/*--------------------------------*- C++ -*----------------------------------*\
| =========                 |                                                 |
| \\      /  F ield         | OpenFOAM: The Open Source CFD Toolbox           |
|  \\    /   O peration     | Version:  v1706                                 |
|   \\  /    A nd           | Web:      www.OpenFOAM.com                      |
|    \\/     M anipulation  |                                                 |
\*---------------------------------------------------------------------------*/
FoamFile
{
    version     2.0;
    format      ascii;
    class       volScalarField;
    location    "0.003";
    object      dsmcNMean_Ar;
}
// * * * * * * * * * * * * * * * * * * * * * * * * * * * * * * * * * * * * * //

dimensions      [0 0 0 0 0 0 0];


internalField   nonuniform List<scalar> 
9720
(
167.462
168.6233333
171.2246667
177.1193333
200.862
167.0466667
167.556
169.0146667
174.7746667
194.7066667
167.06
168.2673333
170.8866667
175.9806667
190.636
167.5233333
168.1246667
169.9306667
173.996
186.444
167.0573333
167.9893333
169.534
173.372
184.5026667
167.612
168.6006667
169.7666667
172.6193333
182.656
166.918
167.444
168.4366667
170.782
179.4326667
167.122
167.234
168.6906667
171.2266667
180.5626667
166.9466667
168.0173333
169.1186667
172.212
181.2693333
167.0046667
166.9546667
167.848
170.1546667
179.5313333
166.852
167.4626667
168.918
170.7633333
178.538
166.772
166.4833333
167.3513333
169.556
177.91
167.0106667
167.492
168.6386667
170.5606667
179.1006667
166.8153333
167.5166667
168.826
170.6113333
178.5333333
166.9313333
167.0273333
167.4853333
169.1046667
177.008
167.0746667
167.22
168.102
170.0246667
177.018
166.656
166.6686667
167.46
168.7766667
176.0466667
167.1586667
167.0826667
167.468
168.2926667
173.0173333
167.5233333
168.394
171.036
177.468
197.5433333
167.114
168.4173333
170.734
177.338
192.746
167.5186667
168.4746667
170.148
174.6346667
186.824
167.416
168.8106667
170.6586667
174.7586667
184.3866667
166.9073333
166.93
168.5086667
172.6193333
181.844
167.1846667
168.444
170.0886667
173.3293333
180.948
167.6733333
168.3566667
169.5086667
172.1446667
178.6073333
166.8026667
167.776
168.8173333
171.6126667
177.9593333
166.8413333
167.494
168.164
170.2566667
176.3213333
166.9426667
167.662
168.1953333
170.386
175.5313333
166.7106667
166.894
168.1933333
171.1313333
177.388
167.5
167.2986667
168.0713333
169.5326667
174.824
167.3586667
167.842
167.99
170.5806667
175.3566667
166.428
166.7006667
167.41
168.8666667
174.3286667
167.1513333
167.4866667
167.99
170.3573333
174.6593333
167.002
167.6226667
168.1646667
169.616
174.1833333
167.4073333
167.9553333
167.862
168.4226667
172.7586667
166.3446667
166.764
167.606
168.8846667
171.6566667
167.6273333
169.032
171.2226667
176.3646667
190.618
167.4526667
168.0833333
170.4746667
175.406
187.0446667
167.64
169.2086667
170.42
174.6873333
183.7613333
166.7926667
167.4306667
170.0746667
173.4453333
180.532
167.2673333
167.88
169.5126667
172.2266667
177.4666667
167.386
168.1033333
169.4113333
171.432
176.3166667
167.042
167.7546667
169.008
170.8433333
175.3926667
167.1446667
166.7846667
167.8913333
170.6293333
174.5613333
167.1146667
167.844
168.6773333
170.3673333
173.7273333
166.8406667
167.28
167.5413333
169.148
172.8506667
166.8406667
167.7253333
168.4786667
169.712
173.034
166.5833333
167.1373333
167.81
169.6033333
173.5606667
166.9146667
167.2733333
168.2126667
170.1146667
173.8913333
167.0833333
167.1853333
168.4166667
170.3566667
173.2093333
167.1966667
167.3473333
167.8346667
168.6753333
172.3233333
167.1346667
167.3666667
168.3493333
169.9933333
171.376
166.9313333
166.8306667
167.352
168.334
170.778
166.9186667
167.6773333
167.4193333
168.5033333
169.9473333
167.2526667
167.7793333
169.5566667
173.674
185.3766667
166.7013333
167.7566667
169.3106667
173.33
183.1813333
167.0866667
168.378
169.956
173.1946667
179.7553333
167.124
167.6093333
169.5226667
173.1426667
178.258
167.5986667
167.8606667
169.446
171.898
175.3686667
166.8826667
167.8253333
169.214
170.938
174.0933333
167.408
167.9013333
168.538
170.124
173.7046667
167.1186667
167.948
169.002
170.29
173.1126667
167.51
167.4973333
168.3593333
169.6686667
172.2253333
167.4013333
167.42
168.1646667
169.3186667
171.752
166.8686667
166.6106667
167.6313333
169.0326667
170.8366667
167.478
168.3706667
169.368
170.2306667
172.2286667
167.034
167.3586667
167.8393333
169.3746667
170.912
166.8646667
167.2686667
167.598
168.6166667
170.8446667
167.1293333
167.4933333
168.02
169.3953333
171.8686667
166.754
166.9933333
167.6126667
168.318
170.79
166.6333333
166.5426667
166.8546667
167.862
169.052
166.3766667
166.29
166.56
167.4206667
168.512
167.4566667
167.682
169.1513333
172.55
183.474
167.4146667
168.4313333
170.4066667
174.1506667
182.0126667
167.8226667
169.1413333
170.6693333
173.9113333
179.0146667
167.1533333
167.874
169.2533333
171.8433333
176.76
166.488
167.3513333
168.7486667
169.99
172.6266667
167.2453333
167.2406667
168.6773333
170.2913333
172.878
167.4713333
168.2746667
169.1066667
170.3653333
172.8566667
167.1666667
167.4326667
168.5206667
169.9106667
172.0346667
167.1133333
168.416
168.8313333
169.33
170.596
166.6266667
167.19
168.272
169.4846667
171.0166667
167.0893333
167.2153333
167.7026667
168.1486667
169.7066667
167.4973333
167.2906667
167.3026667
168.1706667
169.7933333
166.7546667
166.4093333
166.5473333
167.872
168.4166667
166.6866667
166.8286667
167.8306667
167.9026667
168.6786667
166.9453333
167.0566667
166.9806667
167.194
168.254
166.6
166.624
166.4206667
167.478
168.238
166.7853333
167.5593333
168.0386667
168.13
169.3486667
167.408
167.9506667
168.2013333
167.9033333
167.9026667
167.14
168.4246667
169.866
172.0293333
182.372
167.288
168.2733333
169.922
172.4546667
180.0106667
167.4446667
168.3113333
169.6726667
171.9893333
176.422
167.8613333
168.4526667
168.98
170.5886667
173.992
166.8646667
167.8213333
168.7553333
170.698
172.4993333
166.8953333
167.28
167.5406667
170.1966667
173.28
166.84
167.9886667
168.4693333
168.704
170.1253333
166.3753333
167.3006667
168.0906667
169.1193333
170.7
167.098
167.206
167.8506667
168.7386667
170.3346667
167.2886667
167.58
167.572
168.1786667
169.266
166.3846667
166.6173333
167.202
167.9306667
168.6086667
166.5866667
167.492
168.7633333
169.2133333
169.134
167.2193333
168.2273333
168.39
168.8553333
169.4186667
166.604
166.154
166.2686667
167.216
168.4886667
166.472
167.4613333
167.6933333
167.976
169.052
166.966
167.02
167.206
168.562
169.4486667
166.89
167.0953333
167.2113333
167.5173333
168.1266667
166.1873333
166.0413333
166.5906667
166.8033333
167.5693333
167.286
167.8593333
169.0326667
171.76
181.6086667
167.4566667
168.36
170.1986667
173.3366667
180.0666667
166.8306667
167.2953333
168.766
170.5613333
175.4153333
166.7226667
167.1766667
167.7613333
169.2513333
171.918
167.4993333
167.828
169.5593333
171.584
173.816
166.7246667
167.3013333
168.2406667
168.994
170.2546667
167.238
166.93
166.696
168.6006667
169.9566667
166.8746667
166.774
167.0346667
168.014
170.0646667
166.74
166.496
166.944
167.7173333
168.6606667
167.064
167.104
167.574
168.1113333
169.6426667
166.368
166.0566667
166.3606667
167.88
168.742
166.8546667
167.4906667
167.1506667
167.7633333
169.0846667
166.3286667
166.2686667
166.3866667
167.0353333
167.7533333
167.2646667
167.4793333
167.7793333
168.1886667
168.286
166.9753333
167.082
167.1013333
167.184
168.0666667
166.4333333
166.4466667
167.4666667
168.51
168.9706667
166.8493333
166.936
166.7726667
166.0033333
166.2173333
166.5753333
166.8973333
166.91
167.5466667
168.056
167.1473333
167.4426667
168.6633333
171.1413333
180.4606667
166.8313333
167.7593333
168.8493333
170.8113333
176.1393333
167.2546667
167.3573333
168.0066667
170.3926667
175.1313333
167.3
167.4473333
168.19
170.1346667
172.7413333
167.0466667
167.7726667
168.964
170.3393333
171.8226667
166.8333333
167.114
167.2586667
168.3766667
169.424
167.2853333
167.632
167.6446667
167.8046667
169.466
166.764
167.796
168.554
167.998
169.5586667
167.5546667
167.7293333
167.7826667
168.6253333
170.0273333
166.8366667
167.0113333
166.9233333
166.7046667
167.254
166.836
166.8286667
166.7193333
166.2173333
166.8713333
167.07
167.3746667
167.6986667
168.0093333
168.7113333
166.9326667
166.4933333
167.24
167.65
167.9533333
166.8573333
167.0913333
167.7873333
168.0226667
168.964
167.184
167.478
167.332
167.6093333
167.4493333
166.2613333
166.474
166.5793333
166.862
166.9786667
166.744
166.7413333
167.0446667
167.8866667
167.9946667
166.238
165.5793333
165.6246667
166.1446667
166.5233333
167.3993333
167.7766667
169.0613333
171.2693333
180.0266667
166.7873333
167.4766667
168.8293333
170.376
176.7333333
167.0746667
167.1466667
168.622
170.6593333
173.9966667
167.304
168.172
168.9786667
169.66
171.3666667
166.588
166.8573333
167.4113333
168.4173333
170.9373333
167.1613333
167.778
168.4733333
169.3486667
170.61
166.638
167.038
167.6246667
168.8893333
169.3526667
167.1813333
167.0293333
166.8913333
167.76
168.2226667
166.8173333
167.6646667
167.622
167.9773333
168.9626667
167.2773333
167.4966667
168.1846667
168.5886667
168.5366667
166.5906667
167.2
167.8953333
168.462
169.274
166.7953333
166.9773333
167.0233333
167.4993333
167.8473333
166.4713333
167.2213333
166.804
166.952
167.9413333
166.744
167.1666667
166.7453333
167.0953333
168.0826667
166.3386667
166.3346667
166.708
167.004
167.1273333
167.0126667
167.5286667
167.1073333
167.8053333
167.27
166.4546667
166.5093333
166.2286667
166.144
166.3833333
166.3946667
167.0426667
167.1826667
166.7126667
166.4873333
167.2626667
167.1246667
167.842
170.58
179.158
166.8326667
166.8726667
168.004
169.7966667
176.112
167.0426667
167.498
167.992
170.37
173.9026667
167.0973333
167.7746667
168.498
169.904
172.58
166.8566667
166.542
167.726
169.0993333
170.2833333
167.1593333
167.464
166.964
167.4046667
168.1126667
166.674
166.8533333
167.3646667
167.014
168.2813333
166.886
166.7266667
167.1333333
167.7686667
168.5153333
166.3833333
166.358
166.3033333
167.0566667
166.6206667
166.292
166.592
166.0953333
166.508
167.636
166.8053333
166.7033333
167.3126667
167.918
167.8693333
166.9353333
167.192
167.8386667
168.102
168.6973333
166.9626667
168.0893333
168.1053333
168.036
167.4973333
166.474
165.7633333
165.7873333
165.604
166.19
166.4866667
166.506
167.366
166.8953333
167.076
166.934
166.578
165.9966667
166.596
167.692
166.5426667
167.1853333
167.9393333
167.5153333
167.062
166.978
166.422
166.296
166.35
166.5806667
167.0733333
167.3913333
168.1926667
170.014
178.1806667
166.9066667
167.2633333
168.7193333
170.8406667
176.6653333
167.0426667
167.12
167.9493333
169.5466667
173.5633333
166.8866667
167.1433333
167.8373333
169.3506667
171.2246667
166.906
167.806
168.5926667
169.4313333
170.9706667
166.7806667
166.8986667
167.86
168.3666667
169.886
166.6413333
166.9206667
167.0093333
167.9893333
168.504
167.1313333
167.7933333
167.9446667
168.794
168.8533333
167.3913333
168.1546667
168.6653333
168.7293333
168.522
167.1586667
167.1066667
167.064
167.0786667
167.2806667
166.7806667
167.1406667
167.7633333
167.7486667
167.4866667
166.896
166.7246667
166.224
166.2006667
166.374
166.866
166.5826667
166.4886667
166.9346667
167.4533333
166.808
166.9706667
166.9106667
167.2393333
167.4746667
166.8026667
166.452
166.354
167.1586667
167.4506667
166.44
166.8286667
167.1193333
167.452
168.074
166.714
167.0713333
166.7506667
167.412
167.292
166.5446667
166.636
167.1726667
167.5793333
167.8306667
166.972
167.69
168.0626667
170.3313333
178.0706667
167.2113333
167.79
168.904
171.274
176.4653333
166.7673333
166.762
167.296
169.3633333
172.774
166.828
166.972
167.128
168.2466667
169.654
167.1766667
167.4146667
167.6433333
168.492
170.056
166.8086667
167.3473333
167.6026667
168.2373333
169.7533333
167.7166667
168.144
168.6846667
168.5326667
169.1913333
166.5866667
166.464
166.4953333
167.3313333
168.2046667
166.92
166.51
166.894
167.7046667
168.4626667
166.6213333
166.516
166.768
167.344
167.4653333
166.846
166.648
167.3166667
167.3026667
167.3626667
165.95
165.9726667
166.15
166.3966667
167.0926667
166.7026667
167.5233333
167.4393333
167.8386667
167.742
166.494
166.7153333
167.2086667
167.1593333
167.308
166.842
167.0933333
167.256
166.9786667
167.2573333
166.6533333
166.3693333
166.1593333
165.914
165.6133333
166.8546667
167.0606667
166.7953333
166.8306667
166.6033333
166.7426667
167.1713333
166.7546667
166.6246667
166.7113333
166.6133333
167.388
168.2953333
170.1946667
178.2793333
166.698
166.9066667
167.6973333
170.4546667
175.268
167.1433333
168.334
169.1893333
170.9166667
174.266
166.5366667
166.386
167.9266667
168.994
170.5646667
166.4993333
166.55
167.2246667
168.6226667
169.8266667
166.6053333
166.9146667
166.428
167.2373333
167.9986667
166.5966667
167.0453333
167.5053333
167.8926667
169.3186667
167.038
167.088
167.0906667
166.9986667
167.536
166.5026667
166.4173333
165.9386667
166.206
167.168
166.75
167.602
167.4346667
167.48
167.252
167.13
167.3686667
167.7333333
168.0313333
167.93
167.1
167.5533333
166.8
166.8533333
167.0306667
166.5106667
166.0273333
167.0286667
167.478
167.344
165.938
165.3306667
165.1293333
165.4266667
166.2873333
167.1386667
167.5126667
167.172
167.896
167.168
166.1146667
166.3053333
166.656
166.0413333
166.4433333
166.6046667
165.6066667
165.4266667
165.41
165.5686667
166.756
167.1853333
167.956
168.0453333
168.2133333
167.8273333
168.07
168.438
169.8786667
177.1546667
167.226
167.816
168.0293333
169.318
174.7633333
166.958
167.3
167.536
168.9353333
172.4126667
167.1613333
166.952
167.474
168.3333333
170.174
166.9706667
167.0646667
167.5373333
167.8786667
168.822
167.3166667
167.2233333
167.4553333
167.8346667
168.8493333
166.9213333
167.2866667
167.4006667
167.514
167.4986667
166.4773333
166.7306667
166.8606667
167.3966667
167.8573333
167.004
166.9706667
167.4013333
168.0746667
168.544
166.722
166.44
167.2613333
167.4686667
167.4446667
165.9026667
165.4473333
164.7873333
165.0626667
165.5573333
167.2726667
167.1226667
167.5206667
166.4813333
166.8473333
165.8406667
165.39
165.6286667
165.706
165.8513333
166.7586667
167.5233333
167.3386667
167.382
167.1426667
166.2586667
166.324
166.3586667
166.658
166.452
166.572
166.5566667
166.9493333
167.6533333
168.2213333
166.692
166.814
167.0973333
166.5066667
166.098
166.5593333
166.1453333
165.7006667
165.58
166.206
166.5693333
166.546
167.354
168.9713333
176.7653333
166.894
167.1026667
167.9766667
169.578
175.2926667
166.5966667
166.588
167.4546667
168.6073333
171.176
166.8846667
167.2246667
168.02
169.5953333
171.618
166.764
166.9566667
167.2493333
167.98
168.824
166.6786667
167.2633333
167.2086667
167.482
167.1146667
166.75
167.324
167.9166667
169.0126667
170.1853333
166.874
167.1753333
167.3633333
167.4
167.8293333
166.532
165.6646667
165.6533333
165.9993333
166.2253333
167.3246667
167.992
168.086
167.782
167.3826667
166.9313333
166.8453333
166.92
167.684
167.832
166.878
166.9513333
166.486
166.1653333
166.314
166.8726667
166.81
167.37
167.2186667
167.27
166.6786667
167.4133333
167.6966667
167.6713333
167.456
167.2193333
166.7306667
165.8146667
165.6193333
166.0286667
166.1666667
166.006
166.5746667
167.2146667
167.7533333
167.2233333
167.0786667
166.6253333
166.4613333
166.4926667
166.402
166.186
167.0786667
167.02
167.168
166.57
167.546
168.366
169.8873333
177.6246667
166.8326667
166.964
167.562
169.5253333
173.9773333
167.084
167.208
168.2966667
169.072
171.9306667
167.5593333
167.8733333
168.3646667
168.7453333
169.7373333
166.7846667
167.6353333
169.0026667
169.114
170.2453333
167.1353333
166.916
167.2206667
167.2466667
168.4086667
166.5846667
166.6666667
166.9573333
168.1633333
168.2713333
166.6586667
166.746
166.5706667
166.1026667
166.2206667
166.1366667
165.2006667
165.0026667
165.3546667
166.6773333
166.596
166.7853333
167.5873333
167.592
167.356
166.9706667
167.364
167.0413333
167.3486667
166.8293333
166.336
165.9586667
166.0246667
166.676
166.8446667
166.806
167.334
167.2186667
167.3773333
167.5873333
166.9833333
167.0553333
167.786
167.7626667
167.8813333
166.6073333
167.13
167.4586667
167.3013333
167.1806667
167.0686667
166.63
166.916
166.476
166.08
166.2273333
166.498
166.0753333
166.2273333
166.6486667
166.594
166.844
167.0286667
166.82
166.116
166.648
165.9586667
165.78
167.556
175.36
166.7886667
167.3593333
167.3346667
168.196
172.7266667
166.7586667
167.174
167.64
168.8293333
170.8833333
166.704
166.7146667
166.6206667
167.3333333
168.8066667
166.732
166.9906667
167.1446667
168.05
169.1106667
167.31
167.5226667
168.164
168.5973333
168.878
167.2126667
167.016
166.5526667
166.4533333
166.5373333
166.7046667
166.86
167.066
167.54
167.4146667
166.542
166.728
167.444
167.6413333
167.6233333
167.094
167.2133333
166.5666667
166.326
166.024
167.1693333
167.3726667
168.226
167.954
168.5393333
166.3886667
166.4733333
166.17
166.0513333
166.6053333
166.5446667
166.13
166.0193333
166.3053333
166.0106667
166.4566667
166.6773333
166.9446667
166.9193333
166.6006667
166.2106667
165.5653333
165.242
165.1986667
164.9813333
166.832
167.296
166.9166667
167.1193333
166.7086667
166.636
166.14
166.0953333
166.1866667
166.2006667
166.4813333
166.684
166.9053333
167.1393333
167.1686667
166.912
167.4473333
167.9993333
168.538
173.8606667
167.2473333
166.916
167.0753333
168.448
171.746
166.954
167.8693333
168.4993333
169.236
169.64
166.608
166.6026667
166.8713333
167.0906667
168.1866667
166.9566667
166.894
167.238
167.292
168.004
166.0973333
165.9073333
165.9026667
166.282
166.68
166.5473333
167.084
166.8786667
167.6166667
168.488
166.7946667
166.7993333
167.3113333
166.9073333
167.598
166.6373333
166.966
167.1973333
167.4146667
166.93
166.428
166.6653333
166.6206667
166.698
166.8566667
166.678
166.664
167.0653333
167.3246667
167.26
166.9146667
167.4706667
166.924
166.6586667
166.4753333
166.8486667
166.4173333
166.5186667
166.4333333
166.8493333
166.5226667
166.4566667
166.7833333
167.092
167.3966667
166.8353333
166.804
166.556
166.2946667
166.674
167.116
167.1686667
166.696
166.8773333
166.61
167.0146667
167.0273333
167.626
167.4373333
167.3853333
166.484
166.6246667
166.56
166.3553333
166.8926667
280.9386667
317.2113333
332.42
340.1646667
341.99
343.9486667
338.4506667
339.7786667
335.9566667
333.28
336.0793333
332.3306667
327.7466667
324.7633333
317.6273333
311.5273333
301.526
291.7113333
284.116
268.2686667
256.4273333
237.2046667
211.8673333
184.9666667
141.5706667
247.5586667
284.1693333
308.0946667
319.0733333
325.964
329.1273333
326.416
323.9233333
326.74
320.948
321.2133333
317.4653333
310.2126667
306.638
300.8813333
296.002
289.1686667
279.7193333
272.192
259.35
243.872
227.7053333
209.0246667
181.7933333
143.7186667
231.4213333
257.4286667
278.1506667
292.6586667
301.684
306.206
313.6566667
312.246
310.654
308.94
307.02
308.7586667
305.864
299.1266667
294.5006667
291.0386667
280.576
271.494
263.382
254.686
240.2973333
225.0246667
207.7526667
182.998
147.9373333
223.4973333
244.1066667
258.1326667
269.2926667
277.7526667
287.01
294.6313333
298.446
300.924
300.7426667
300.5273333
300.0026667
297.0533333
292.6366667
287.5473333
283.5366667
277.7453333
268.152
260.8106667
249.364
237.9913333
224.204
208.1006667
184.344
152.4533333
218.2506667
231.79
244.638
253.9686667
261.2953333
269.0446667
277.9793333
282.526
287.8126667
289.85
287.088
290.7066667
289.3486667
286.5886667
282.2413333
277.1766667
266.9973333
263.1813333
257.0486667
248.6626667
235.8413333
224.328
208.0253333
186.2393333
155.18
213.8933333
228.2013333
236.5346667
241.762
246.718
254.6046667
260.9293333
268.518
273.856
277.73
278.4706667
280.2946667
282.5293333
277.7013333
272.192
269.5293333
265.5513333
259.9126667
253.7946667
244.258
234.85
221.604
207.1
187.2753333
159.2686667
209.5146667
220.566
228.674
231.4053333
235.4906667
240.1086667
247.6233333
252.218
258.522
263.998
267.204
265.7893333
268.5226667
270.276
265.2666667
263.082
258.6933333
253.714
249.2353333
241.53
231.4486667
221.3046667
205.5546667
189.3193333
163.348
209.9893333
220.862
223.882
226.7273333
230.0853333
232.36
238.2186667
243.4646667
246.4513333
249.9053333
251.872
255.666
255.8246667
259.932
254.1786667
257.946
253.6393333
248.0046667
242.1253333
234.1746667
226.322
217.904
204.83
187.544
162.9433333
211.176
219.86
220.9846667
219.3606667
220.5673333
223.2366667
226.176
230.7133333
232.3793333
238.3586667
241.582
243.5246667
245.8973333
247.4506667
246.7806667
246.568
244.3866667
240.0266667
236.5853333
230.5913333
224.2953333
215.706
202.2373333
187.8686667
162.048
207.4166667
215.75
217.244
218.702
216.9986667
216.1753333
218.4813333
219.8353333
224.768
225.364
230.9346667
233.62
235.978
236.4446667
236.6893333
233.7246667
232.4873333
230.6686667
226.9773333
225.5633333
216.2466667
208.4113333
197.6613333
184.7493333
160.4766667
205.4226667
214.2893333
214.8226667
214.7993333
212.886
213.0293333
213.0266667
212.1553333
215.0573333
215.934
216.644
221.1846667
225.2286667
226.3733333
224.2986667
223.0166667
221.1106667
219.3426667
218.5213333
212.908
208.9873333
200.2726667
191.814
180.0933333
156.088
205.126
213.0706667
213.7486667
211.4246667
208.23
204.1353333
204.7566667
205.146
204.6306667
208.856
208.1346667
212.6066667
213.2653333
213.0793333
212.642
213.3573333
211.796
210.9073333
205.8306667
203.1466667
201.1106667
195.604
184.836
175.336
151.8033333
205.3426667
213.4333333
213.6033333
208.988
204.006
201.4473333
201.53
201.8866667
199.7746667
199.672
198.5746667
198.1593333
201.088
202.7866667
200.2306667
200.9113333
198.774
199.9206667
198.3586667
195.9486667
191.3006667
186.186
179.3986667
169.5686667
146.9986667
204.8726667
211.8026667
212.6613333
208.052
204.48
200.9606667
195.088
194.092
191.2886667
190.516
190.002
187.508
188.09
187.8766667
188.508
186.722
189.3073333
189.4846667
186.9986667
186.9886667
182.716
179.2
171.1793333
162.6333333
142.6953333
203.1726667
209.0153333
207.68
204.1413333
198.7713333
196.3386667
189.4666667
186.0973333
183.5333333
179.6933333
178.6513333
176.318
179.8746667
177.884
177.1813333
179.4153333
178.9566667
178.746
175.746
176.88
172.2153333
170.512
164.1933333
156.648
136.204
202.238
207.1166667
205.0586667
199.436
194.8993333
188.7553333
182.704
178.8833333
176.1333333
172.8513333
170.6853333
170.2666667
168.594
168.7206667
168.298
168.3446667
168.7426667
167.49
167.9526667
167.9866667
166.2853333
162.3786667
157.5306667
149.9306667
135.5826667
200.0753333
203.9713333
199.9913333
192.684
186.1833333
179.4253333
173.7286667
170.1086667
165.9946667
162.862
161.8266667
161.9686667
160.6246667
160.9433333
159.4013333
160.1893333
159.7186667
160.062
162.052
159.7433333
159.044
157.552
153.3086667
148.5226667
131.26
191.3866667
192.0626667
186.312
181.014
175.2313333
171.5646667
166.6693333
164.9413333
162.878
162.5493333
159.5693333
160.9906667
161.0233333
160.906
162.3593333
159.4466667
162.068
161.9526667
163.7553333
162.8126667
160.6813333
161.2206667
158.692
155.1966667
144.7593333
247.8113333
283.328
304.904
318.7906667
323.262
326.9146667
326.5673333
322.8906667
322.876
320.406
319.8006667
318.104
315.1433333
308.688
302.0646667
298.694
289.6366667
279.672
269.126
258.9766667
246.6993333
229.68
206.3106667
182.0186667
145.312
221.2173333
256.9866667
285.46
304.8073333
313.096
315.4853333
315.3546667
311.05
306.1873333
305.9433333
300.5406667
298.61
292.91
287.8766667
285.7
279.002
272.4986667
266.3353333
256.858
247.9173333
236.036
218.9513333
199.9066667
177.9306667
143.9693333
208.1226667
233.7753333
261.88
283.854
296.5006667
302.2986667
305.814
305.3973333
300.768
297.2333333
291.0133333
289.38
285.014
279.3106667
276.3866667
269.7606667
265.666
258.1206667
249.0053333
239.6386667
228.5893333
213.918
197.07
175.9053333
146.288
200.8653333
221.978
244.5946667
262.33
276.7153333
285.956
289.9253333
291.8933333
291.496
291.5066667
288.6973333
286.1053333
281.0826667
276.2406667
273.366
267.8066667
261.9866667
253.09
245.392
237.0826667
227.1486667
215.6533333
198.5326667
177.7473333
152.2733333
196.4613333
216.492
235.8426667
250.09
261.6466667
271.0413333
279.5846667
283.6366667
283.9173333
283.7406667
280.3906667
280.428
275.6573333
272.7506667
268.09
265.0686667
256.4613333
251.4333333
244.226
232.9326667
226.222
211.0193333
198.8386667
180.9493333
158.0013333
194.7633333
211.2006667
226.7666667
240.5213333
252.5086667
261.1446667
264.868
269.5826667
274.266
276.3166667
274.4573333
273.1486667
269.208
267.7473333
264.3066667
260.6213333
254.1233333
247.8073333
240.0733333
231.438
223.3553333
213.5906667
200.612
181.7486667
157.504
192.3486667
208.77
223.024
234.9946667
243.1813333
250.9726667
255.2013333
260.8286667
263.2546667
264.7646667
265.8173333
263.3113333
263.7106667
261.4573333
258.188
252.3693333
248.524
244.614
239.0326667
229.552
224.1866667
213.6373333
201.0326667
184.4393333
159.1966667
190.4253333
205.3166667
217.8673333
229.0006667
236.926
241.406
248.2106667
250.2753333
251.4186667
254.3313333
256.0086667
255.9846667
254.1506667
252.022
250.4166667
247.84
243.0973333
239.8026667
233.4286667
227.5313333
220.0366667
210.2613333
198.1033333
182.8466667
160.76
188.648
202.434
214.288
224.2033333
231.5313333
236.4973333
240.684
242.4726667
244.524
245.7293333
246.6253333
246.776
248.1933333
244.138
243.1646667
240.2553333
237.784
234.2093333
230.1053333
224.546
216.232
207.41
196.4313333
182.5813333
160.0666667
186.8173333
200.4906667
211.166
222.038
227.0793333
231.532
233.3906667
235.3013333
234.806
234.9573333
236.3566667
235.8913333
235.2693333
235.1553333
236.486
232.4833333
229.2793333
226.156
220.1086667
216.7746667
210.518
202.7046667
193.608
179.888
160.7746667
188.82
201.24
211.8546667
219.6706667
225.3873333
226.8186667
226.5733333
226.5166667
226.8566667
227.278
226.7313333
224.616
225.5253333
225.294
224.44
222.8433333
219.798
216.3986667
214.81
207.596
204.092
196.47
188.86
175.058
155.9233333
185.6333333
198.67
209.1386667
218.2493333
221.9033333
223.0393333
223.7746667
222.1813333
223.4206667
219.692
218.2
217.562
217.3546667
215.9306667
213.422
212.74
211.3733333
208.4293333
203.078
201.1593333
196.8153333
191.7873333
185.3706667
172.6453333
153.9306667
186.2966667
198.4253333
208.4833333
215.41
219.434
220.2606667
220.908
218.042
215.1166667
212.7533333
209.5833333
208.1433333
208.7106667
207.7386667
204.098
203.6993333
201.226
199.316
197.2146667
191.812
188.744
183.4473333
177.0386667
167.616
150.4926667
184.792
197.5406667
206.4126667
212.218
215.4286667
216.8333333
215.6873333
213.7713333
209.4826667
205.552
203.802
202.2906667
199.2146667
196.8753333
194.386
193.7106667
192.3906667
190.9986667
188.2326667
185.0826667
180.4146667
175.624
170.992
161.21
145.3946667
184.7393333
196.7713333
204.5286667
211.4426667
212.6593333
211.7986667
209.2866667
206.0233333
201.5393333
199.548
194.494
192.4213333
190.516
186.2566667
185.2873333
183.0186667
183.4306667
182.056
180.8146667
177.7093333
174.1693333
170.818
165.4146667
157.71
141.2346667
184.2126667
193.2166667
202.2106667
206.6726667
208.796
208.0673333
203.7773333
199.276
194.5746667
190.6306667
187.976
184.3686667
181.74
179.002
176.2893333
175.73
174.0453333
172.612
170.0806667
170.1573333
167.5453333
164.698
159.4693333
152.2746667
139.1966667
181.506
191.7873333
198.6026667
202.308
201.7233333
199.3146667
196.77
192.24
188.5153333
183.38
179.9673333
178.5693333
176.3926667
175.6633333
171.582
168.076
168.496
166.296
165.352
163.876
164.2153333
161.3746667
157.144
149.5466667
139.3506667
177.9913333
183.7606667
187.9333333
190.9233333
191.1393333
190.572
187.894
186.218
184.696
182.46
179.4193333
177.8866667
176.0113333
176.2226667
174.1266667
173.3073333
173.3813333
173.096
172.5266667
172.9
171.0013333
170.4626667
168.1713333
163.2066667
155.7246667
231.978
259.6226667
279.5153333
290.0813333
302.3473333
308.6033333
313.0673333
311.7333333
314.564
313.062
310.5733333
305.0413333
303.9573333
297.0486667
291.732
288.1613333
280.966
274.544
261.786
250.762
240.872
225.36
207.0666667
183.5406667
146.7713333
209.0066667
235.256
261.7853333
282.5953333
297.1433333
305.3613333
303.908
301.5526667
301.304
299.628
293.916
292.3333333
285.2973333
281.3353333
275.2866667
270.4746667
264.06
253.76
247.7026667
239.1553333
230.332
214.8266667
197.4733333
177.1306667
147.27
197.472
217.0513333
240.5526667
260.7086667
277.536
292.0593333
297.428
298.5006667
299.6786667
297.9413333
292.0726667
285.2566667
282.0106667
275.1733333
271.4313333
264.7486667
257.176
250.106
242.0586667
233.242
224.8506667
209.8666667
196.9973333
177.532
152.9053333
191.6646667
207.2513333
225.478
244.34
264.0146667
276.9693333
287.03
292.6426667
294.5173333
293.3346667
290.146
286.156
281.4246667
273.7313333
269.4073333
262.148
254.1106667
246.6446667
240.1
232.6253333
224.2053333
212.3393333
197.5806667
180.832
159.0673333
187.0346667
200.1426667
215.5546667
231.262
247.5373333
261.146
275.6673333
280.7786667
286.0133333
287.506
287.276
284.6753333
281.7086667
273.2533333
269.7526667
262.2273333
255.254
248.9726667
241.7826667
231.3906667
223.386
211.6373333
197.4886667
183.5086667
162.2253333
184.2953333
196.038
208.8826667
222.9953333
237.7313333
251.4886667
263.74
271.254
276.2393333
280.9546667
280.362
278.6613333
275.874
272.7406667
267.1446667
262.7633333
255.6326667
247.708
240.3366667
230.958
222.3926667
211.9713333
200.768
184.728
166.006
182.7306667
193.19
205.2593333
218.3053333
230.274
241.8466667
252.6386667
261.1353333
266.4386667
271.1206667
272.1786667
273.1566667
271.44
267.2273333
264.5206667
259.8946667
254.8386667
246.5093333
239.5006667
233.704
224.0666667
215.522
204.1686667
190.086
170.264
181.5346667
190.5626667
201.8186667
213.1873333
225.9966667
235.2213333
244.858
251.3566667
254.774
261.734
265.0193333
263.7746667
263.378
260.7906667
259.124
255.484
251.25
243.884
237.2226667
230.792
223.1313333
214.5573333
203.2826667
189.7693333
171.552
180.8833333
189.422
199.4006667
209.3746667
220.192
228.8153333
235.6733333
243.4853333
249.5086667
254.588
255.8406667
255.5346667
256.3886667
254.664
251.2226667
246.5633333
245.4646667
239.5646667
232.4153333
228.03
221.1946667
213.2993333
202.324
188.4886667
172.1273333
179.258
188.2786667
197.1673333
206.664
215.2173333
225.1413333