/*--------------------------------*- C++ -*----------------------------------*\
| =========                 |                                                 |
| \\      /  F ield         | OpenFOAM: The Open Source CFD Toolbox           |
|  \\    /   O peration     | Version:  v1706                                 |
|   \\  /    A nd           | Web:      www.OpenFOAM.com                      |
|    \\/     M anipulation  |                                                 |
\*---------------------------------------------------------------------------*/
FoamFile
{
    version     2.0;
    format      ascii;
    class       volScalarField;
    location    "0.003";
    object      dsmcNMean_Ar;
}
// * * * * * * * * * * * * * * * * * * * * * * * * * * * * * * * * * * * * * //

dimensions      [0 0 0 0 0 0 0];


internalField   nonuniform List<scalar> 
9720
(
167.6873333
168.8406667
170.4033333
175.8413333
199.5226667
167.376
168.4473333
170.8193333
177.0406667
195.2666667
167.5266667
168.6353333
170.4826667
175.59
189.522
167.3233333
168.4226667
170.3106667
174.3053333
186.402
167.2306667
168.6286667
170.2606667
174.4873333
184.9346667
167.2873333
167.8353333
169.8706667
172.6066667
182.512
166.802
166.85
167.6393333
170.5106667
180.7
167.0493333
168.0246667
168.5113333
170.8366667
180.398
167.1133333
167.3946667
168.6913333
171.0366667
178.8913333
167.2486667
167.4973333
168.1873333
170.3206667
178.7053333
167.0666667
167.6833333
167.8446667
170.192
178.416
166.4613333
166.4293333
167.504
169.2926667
177.6606667
167.096
167.352
168.4333333
169.9726667
178.1666667
167.3693333
167.8693333
168.6606667
170.2393333
177.6453333
166.7113333
166.692
166.656
168.4446667
176.8813333
166.6206667
166.918
167.8373333
169.9646667
178.0546667
166.808
166.9146667
167.9433333
168.73
174.9333333
166.4673333
167.0086667
167.1306667
167.304
171.646
167.62
168.3153333
171.0546667
177.316
196.4826667
167.6406667
168.5466667
170.804
177.1226667
190.7646667
167.7606667
168.3073333
170.4853333
175.4546667
187.1806667
167.102
168.646
171.2946667
174.5946667
184.5006667
167.966
167.8026667
169.6233333
172.6626667
181.898
167.2146667
168.2646667
169.7766667
172.3353333
179.358
167.6046667
168.284
169.1733333
171.6926667
178.8106667
166.9806667
167.71
168.6766667
170.7613333
177.2533333
167.3266667
167.7093333
167.96
170.7986667
177.4246667
167.0106667
167.72
169.3
170.7946667
176.6446667
167.3706667
167.5026667
168.624
171.3066667
176.384
167.498
167.9573333
168.3453333
170.7113333
175.5153333
166.9393333
167.67
169.1633333
170.88
176.4973333
166.8046667
167.262
167.4333333
169.8713333
175.4793333
167.2726667
167.8453333
169.068
170.658
176.312
167.0986667
168.26
168.5293333
170.9473333
175.3866667
166.6506667
167.25
167.6253333
168.9526667
173.904
166.924
166.7746667
166.762
167.688
171.05
167.4333333
168.202
170.486
175.5413333
191.396
166.9126667
168.512
170.5413333
175.254
187.0133333
167.336
168.73
170.068
173.9226667
181.7886667
167.3973333
167.7626667
170.5006667
174.2713333
180.812
167.328
168.6926667
169.5193333
172.238
177.972
167.4166667
168.432
169.408
171.5633333
177.272
166.8006667
167.4853333
168.744
171.4826667
176.386
166.984
167.2086667
168.6126667
170.93
174.7226667
167.0446667
168.088
169.2133333
171.1013333
174.6473333
166.7813333
166.7366667
167.2686667
169.402
172.9953333
166.674
167.272
168.3606667
170.0126667
173.392
166.8133333
166.966
168.1193333
169.5266667
173.46
166.9393333
166.8726667
168.2673333
169.9546667
173.196
166.7986667
166.9533333
167.812
168.6326667
171.5626667
166.9113333
167.1426667
166.9106667
168.28
170.434
166.5426667
166.7373333
167.9213333
168.3966667
171.066
167.064
167.0993333
168.242
169.348
171.562
166.346
166.6413333
167.6293333
168.73
169.6413333
167.1806667
168.354
170.082
175.2446667
188.2266667
167.472
168.5413333
170.0433333
174.1866667
183.7586667
166.9866667
167.524
169.3813333
173.206
179.6926667
167.3993333
168.374
170.758
173.422
178.2393333
166.7393333
167.632
168.6193333
171.0153333
176.486
166.6946667
167.736
169.376
171.9893333
174.4846667
167.3826667
168.212
169.1366667
169.518
172.7346667
167.054
167.5326667
168.0433333
169.1946667
171.5326667
167.3
167.7293333
168.6173333
170.9466667
173.0586667
166.902
167.5393333
168.3053333
169.7546667
172.6913333
167.388
168.148
169.148
169.6906667
171.19
166.8366667
166.9853333
167.6906667
168.5673333
171.3653333
166.9746667
167.534
168.17
169.4833333
171.3586667
166.668
166.7506667
167.1
168.054
170.2753333
166.6033333
167.324
168.632
170.172
171.1593333
166.784
166.4786667
166.298
167.4526667
169.5126667
167.2286667
167.7013333
167.7286667
168.8773333
169.5966667
166.924
166.5433333
166.3866667
166.6013333
168.09
167.6633333
168.402
170.2653333
173.1706667
185.022
167.1313333
167.8553333
169.7646667
173.1866667
181.6966667
166.8726667
167.4446667
168.4526667
171.944
177.5013333
167.1866667
168.304
169.726
171.198
174.864
167.0673333
167.8293333
169.342
171.0193333
174.2973333
167.4893333
167.7626667
168.886
171.292
173.9946667
167.056
167.0186667
167.7433333
169.62
172.3633333
167.0726667
167.8946667
168.318
169.5993333
171.508
167.0926667
167.0493333
167.7266667
168.5426667
170.52
166.8553333
167.2906667
167.5033333
169.4773333
170.426
166.9326667
167.588
167.9806667
168.896
170.0953333
166.804
167.1746667
167.5393333
168.4946667
169.7113333
167.0673333
167.022
166.8293333
167.6973333
168.7413333
166.7913333
166.8933333
166.8446667
167.6353333
169.332
167.11
167.3846667
167.7166667
168.2513333
169.268
167.1713333
168.31
168.8986667
169.3006667
170.386
166.664
166.9246667
167.4186667
167.4313333
168.718
166.6453333
166.6713333
167.0313333
167.4153333
166.9806667
167.1453333
168.2666667
169.6546667
172.842
183.15
167.2806667
168.1073333
169.8406667
173.924
181.502
167.0986667
167.3446667
169.538
172.13
176.8553333
166.9166667
168.2973333
169.1486667
171.4493333
175.306
167.0366667
167.2426667
168.5886667
170.494
172.8306667
167.2746667
167.902
168.7293333
169.6893333
172.3426667
166.9226667
167.112
167.9533333
169.1286667
170.5913333
166.8773333
166.7073333
167.1553333
168.6593333
170.738
166.494
166.6526667
166.8206667
167.5233333
168.56
166.5713333
167.13
167.862
168.4806667
170.192
166.818
166.496
166.5393333
167.834
168.4233333
167.2566667
168.1106667
168.8353333
169.3346667
169.9993333
167.1813333
167.8753333
168.508
169.29
170.454
167.158
167.2466667
167.2653333
167.898
168.99
166.4853333
166.604
167.2026667
167.3946667
167.9433333
166.2566667
166.2373333
166.6966667
167.1546667
168.424
167.2573333
167.5753333
167.6733333
167.9793333
168.244
166.5686667
166.4313333
166.1993333
166.9453333
167.95
166.646
167.2086667
167.9986667
171.0993333
181.6353333
167.0946667
167.7793333
169.5033333
171.656
178.202
167.8006667
168.58
169.05
171.0326667
176.3366667
166.8746667
167.2
168.038
170.6006667
173.7326667
167.018
168.1006667
169.514
169.8553333
171.9106667
167.0346667
167.5453333
168.7113333
169.71
171.7453333
166.9626667
167.8406667
168.31
168.3893333
169.9206667
166.852
166.9806667
167.726
168.2426667
168.746
167.0406667
167.736
167.5046667
168.974
169.6173333
167.2373333
168.0793333
168.902
169.1226667
169.3006667
166.4286667
166.4866667
166.7453333
167.2673333
168.55
167.2646667
167.2473333
167.7426667
167.6966667
168.6446667
166.8026667
166.6506667
167.2366667
167.9366667
168.334
166.564
167.2733333
167.9386667
168.414
168.3866667
166.368
166.47
166.756
167.7693333
168.7013333
166.92
167.4153333
167.4666667
167.1766667
167.53
166.6626667
166.616
166.294
166.4246667
167.5453333
166.552
166.7226667
167.434
167.538
167.5253333
167.7186667
168.5546667
169.3006667
171.86
181.8766667
166.7606667
166.954
167.99
171.372
178.7186667
166.9726667
167.466
168.612
170.998
174.6366667
166.7946667
167.3646667
168.448
169.61
172.858
166.7466667
167.206
168.1853333
169.8326667
171.8073333
166.9493333
167.206
167.582
168.414
169.9946667
166.652
167.414
168.1333333
168.878
170.2753333
167.0286667
166.936
166.9246667
167.7733333
168.572
166.956
167.354
167.7646667
167.8826667
167.858
166.6366667
166.8053333
166.7886667
167.22
167.9966667
166.664
166.722
166.7713333
167.2093333
167.5753333
167.0246667
167.5886667
168.5106667
168.7086667
168.058
166.8726667
166.892
166.9633333
167.8546667
168.276
166.584
166.486
166.4133333
166.7026667
167.4233333
166.8593333
167.044
167.046
167.02
167.5973333
166.9726667
167.6426667
167.4773333
167.638
167.788
166.4333333
166.524
166.8133333
166.86
167.0493333
166.7846667
166.8466667
166.6526667
167.2353333
167.0366667
166.9093333
167.2713333
168.802
171.5413333
179.9253333
167.3753333
168.0466667
169.0846667
171.4333333
177.554
166.454
166.9213333
167.5113333
169.1786667
174.1986667
167.7493333
168.5173333
168.3873333
169.57
172.402
167.116
166.8646667
167.4386667
168.618
170.5926667
166.684
167.1833333
167.634
168.8773333
170.042
166.7953333
167.0913333
167.7253333
168.3106667
169.2613333
167.098
167.6046667
167.66
168.294
169.8053333
166.94
167.4446667
167.8066667
167.6086667
167.8526667
167.028
166.8273333
167.2886667
167.6686667
168.864
166.92
166.638
166.884
167.5286667
167.4266667
166.384
166.628
166.462
167.3133333
167.74
167.0986667
166.6566667
166.616
167.2953333
168.5813333
166.9766667
167.4173333
167.664
167.578
167.9233333
166.56
166.6213333
167.1446667
166.7913333
167.1946667
166.6606667
166.9373333
167.2053333
167.7113333
168.2366667
166.94
166.942
166.6526667
167.08
167.1913333
166.7866667
166.734
166.8053333
166.5706667
166.5746667
167.1746667
167.7833333
168.5133333
170.678
178.9946667
166.9366667
166.9006667
167.854
170.1693333
176.7793333
167.074
167.8346667
169.248
171.076
174.6713333
166.8606667
168.0513333
168.9926667
170.144
172.178
166.5586667
167.0126667
167.6673333
168.6326667
170.2413333
166.8266667
167.1213333
167.6006667
168.648
169.3766667
166.716
166.7033333
167.3713333
167.3113333
168.5553333
167.2293333
167.1113333
168.136
168.4806667
168.9986667
167.2613333
167.2933333
167.288
168.194
168.572
166.406
166.9733333
166.8013333
167.1026667
166.85
166.9033333
167.0433333
166.6526667
166.5173333
166.902
166.8606667
167.0253333
167.322
167.544
166.9646667
166.6253333
167.0613333
167.9026667
168.07
168.7513333
166.802
166.6906667
167.0286667
167.5053333
167.2266667
166.4266667
166.07
165.6746667
165.9506667
166.67
166.9806667
167.044
166.9373333
166.96
166.9626667
167.18
167.3453333
167.0686667
167.346
167.4013333
166.2793333
165.5893333
165.9386667
165.798
165.8366667
167.0693333
167.0613333
167.8666667
170.6286667
178.5513333
167.158
168.0033333
169.2126667
171.0466667
177.2153333
166.8353333
167.6613333
168.0933333
169.66
173.2193333
166.9646667
167.03
167.1753333
168.2553333
170.7173333
166.8746667
166.4266667
167.1346667
168.7233333
170.6466667
167.3286667
167.6233333
167.886
168.4766667
170.284
166.696
166.7933333
167.4893333
168.236
169.03
167.018
167.0606667
167.136
167.7793333
167.5973333
166.9026667
166.9673333
166.8886667
166.87
167.6426667
166.758
167.374
167.91
168.2346667
168.9933333
166.8853333
166.8853333
166.9233333
166.666
166.932
167.2006667
167.2013333
166.4773333
165.962
166.3666667
167.0686667
166.8966667
166.7966667
166.916
166.7526667
166.598
166.7353333
166.9446667
167.4033333
167.8253333
166.186
166.7686667
166.9606667
166.6753333
166.418
167
166.762
167.1913333
167.1313333
167.3813333
166.2626667
166.242
166.1786667
166.3253333
167.534
166.968
167.1893333
167.732
167.648
167.3266667
167.1533333
167.8053333
168.2886667
169.582
177.8806667
166.626
167.5606667
168.3326667
170.588
175.7533333
167.1813333
167.2653333
168.1826667
170.4826667
173.406
166.526
166.7866667
167.128
167.762
169.202
166.74
167.2353333
167.4713333
168.52
170.1846667
166.89
167.0393333
166.8973333
167.406
168.132
166.94
167.2646667
167.9353333
168.8286667
169.5113333
166.8193333
167.1733333
168.1706667
168.1153333
168.678
166.446
165.792
165.8246667
166.222
166.7386667
166.85
166.696
166.8026667
167.5
167.6733333
167.05
166.772
167.5546667
168.448
168.1126667
166.5
166.5693333
167.0753333
166.6353333
166.412
166.4933333
166.5133333
166.954
167.4113333
167.8253333
166.796
167.2673333
166.9666667
167.08
167.5586667
166.6906667
166.574
166.7113333
167.066
166.8113333
166.9566667
166.9073333
167.4513333
166.9173333
167.66
166.388
166.5366667
166.8353333
167.2013333
166.2933333
166.674
166.574
166.5266667
166.2946667
166.06
166.4186667
166.7726667
168.0333333
170.2273333
179.2113333
167.004
166.606
166.914
169.3653333
175.6426667
167.188
168.204
169.3386667
171.0413333
174.2506667
167.2526667
167.5706667
168.754
169.584
171.8773333
166.8566667
167.4253333
167.872
168.7953333
170.376
166.5546667
167.006
167.462
168.1026667
168.8513333
167.2
166.936
166.6506667
167.3406667
167.9613333
166.6733333
166.4173333
166.368
166.6226667
167.38
166.9846667
167.2473333
168.2273333
168.1013333
167.9246667
166.706
167.406
167.9486667
168.2573333
168.212
166.6833333
166.8053333
166.7173333
166.1633333
166.2486667
166.204
165.884
166.0826667
166.6333333
166.5853333
167.1306667
166.6746667
166.2633333
166.4633333
167.3333333
166.444
166.374
166.9746667
166.8233333
166.5833333
166.9453333
167.4146667
167.54
167.8306667
167.2746667
166.7506667
166.846
166.8333333
166.9046667
167.3066667
166.5933333
166.9286667
166.8766667
166.542
166.7026667
166.6766667
166.5446667
166.4153333
167.0746667
166.9266667
167.27
167.576
168.5033333
170.0526667
177.9446667
166.672
167.7206667
168.0773333
169.7393333
174.4453333
167.0326667
167.1173333
168.134
169.998
172.412
167.27
167.3033333
167.5493333
168.6253333
170.53
166.7806667
166.4666667
167.9053333
168.7
169.552
167.0573333
167.2413333
167.6193333
167.856
168.2173333
166.9466667
166.9593333
167.9846667
168.1133333
168.5986667
166.3846667
167.058
167.2653333
167.3286667
167.7293333
166.9826667
167.4593333
167.234
167.7126667
168.038
166.52
165.6326667
165.6106667
165.662
166.3406667
166.694
166.9206667
167.0026667
167.5133333
167.822
167.352
168.3133333
168.3266667
168.5753333
168.3333333
166.7586667
166.454
166.7266667
167.016
166.74
166.5266667
167.0506667
167.0606667
166.9953333
167.292
167.31
166.374
166.1793333
166.9666667
166.7566667
166.9633333
167.4653333
167.1326667
167.586
167.9146667
166.5653333
166.4113333
166.4886667
165.9486667
166.0053333
166.7
166.648
166.306
166.414
166.8906667
166.6873333
167.1386667
167.9193333
169.7533333
177.074
166.978
166.7093333
167.772
169.596
174.6406667
166.692
167.3606667
168.188
169.52
172.7413333
166.6933333
166.7966667
167.1993333
167.6666667
169.5453333
167.0733333
168.1806667
168.3846667
168.8153333
169.49
166.9806667
166.7906667
166.632
167.688
168.3366667
166.7426667
166.3186667
167.12
167.6346667
168.2293333
167.0373333
167.4306667
166.7353333
166.798
166.386
166.8926667
166.862
167.2566667
167.2906667
167.8786667
166.6493333
167.11
167.2926667
166.8793333
166.754
166.856
165.952
166.1213333
165.822
166.1586667
166.7093333
166.2546667
166.06
166.2073333
166.7206667
166.7506667
167.3453333
167.522
167.324
167.9966667
166.9986667
166.4773333
166.1773333
165.846
165.9953333
166.2986667
166.178
166.4093333
166.8273333
167.2733333
167.0386667
166.96
166.9093333
166.82
166.5513333
166.7966667
166.3526667
166.6706667
167.1026667
167.1993333
166.516
166.7166667
166.5273333
166.8886667
166.7686667
166.8926667
167.692
168.108
169.856
176.976
166.9446667
167.1193333
167.2586667
168.4726667
173.618
166.8146667
167.06
168.0146667
169.6273333
171.9106667
166.7833333
167.2133333
167.5
167.714
169.5446667
166.7986667
166.4666667
166.03
167.5973333
168.4446667
166.184
166.5506667
167.5713333
167.6053333
168.6786667
166.7786667
167.0346667
167.2413333
167.374
168.328
167.5506667
167.1886667
166.8673333
167.098
167.0773333
166.3653333
166.85
167.0633333
167.6206667
168.366
166.5146667
166.6266667
166.978
167.562
167.47
167.412
168.112
167.898
167.9426667
168.4146667
166.3453333
166.942
166.896
167.046
167.57
166.7833333
166.4086667
166.9586667
167.5133333
166.8326667
166.5053333
166.5546667
167.0266667
167.2046667
167.0066667
166.5326667
166.9966667
166.842
166.916
166.9073333
166.5033333
166.0726667
165.7333333
165.404
165.556
166.1946667
166.5513333
166.5606667
166.9813333
166.372
167.0166667
167.0493333
166.5326667
166.0753333
166.0613333
166.772
166.6926667
167.4313333
168.8873333
175.8613333
166.728
167.6373333
167.5166667
168.81
172.998
167.104
167.4113333
167.6746667
168.2986667
171.6253333
166.6266667
166.532
167.432
168.294
170.0513333
167.4066667
167.8813333
168.0233333
168.388
168.752
166.9806667
166.816
166.9906667
166.754
167.4393333
166.8053333
167.5646667
168.1086667
168.6026667
168.908
166.52
166.4306667
166.6046667
166.6213333
167.3346667
167.1186667
166.9433333
167.904
168.0893333
168.5133333
166.8473333
167.0346667
167.7326667
168.0433333
167.806
166.2933333
166.11
166.3
166.2633333
166.2333333
167.432
167.4366667
167.6153333
167.43
167.168
166.7826667
166.654
166.4753333
166.6966667
167.5266667
167.0486667
167.2673333
167.104
166.9666667
165.9033333
167.3273333
167.0266667
167.046
166.57
167.0553333
165.8773333
165.6806667
165.706
165.3306667
165.0993333
166.9806667
167.078
166.808
166.9733333
167.2286667
166.7313333
167.2026667
167.9346667
167.778
167.3813333
166.1233333
166.1786667
166.6533333
167.8866667
172.8986667
167.0233333
166.75
167.2053333
167.7106667
169.76
166.93
167.1
167.2626667
167.8993333
169.2853333
166.646
166.4833333
166.9226667
167.884
169.0526667
166.9773333
167.0506667
166.6913333
167.0766667
167.7686667
166.2053333
165.936
166.4466667
167.3153333
167.848
167.014
166.8693333
166.7026667
166.9906667
167.178
166.636
166.294
166.1866667
166.4533333
166.9146667
166.9393333
166.6353333
166.3613333
166.2146667
165.7186667
166.282
165.88
165.628
165.9433333
166.886
166.8893333
166.5986667
166.0446667
165.698
165.28
166.5486667
166.848
166.566
166.9766667
167.2826667
166.6906667
166.5706667
166.6073333
166.55
166.3166667
166.3926667
166.5426667
166.9153333
167.0666667
167.6713333
166.662
167.3
167.5613333
167.366
167.2666667
166.6526667
166.632
166.832
167.0573333
167.9906667
166.5993333
166.724
167.1266667
167.0466667
167.12
166.78
166.6313333
166.5013333
166.9546667
167.1413333
279.3466667
316.942
326.5833333
333.9626667
334.038
340.696
343.7246667
340.5813333
341.2786667
339.5086667
333.5786667
333.498
330.0933333
323.7033333
319.154
312.5666667
306.1433333
291.9006667
281.4626667
268.7006667
253.01
235.088
214.246
186.8813333
144.1373333
246.984
284.0426667
302.8453333
317.08
322.6533333
324.8033333
325.826
323.0113333
324.5726667
323.0153333
319.468
312.7
314.73
306.772
304.7773333
300.4626667
289.8606667
284.4266667
272.228
259.78
246.1753333
228.142
208.738
183.4706667
145.9753333
233.6066667
259.9053333
276.5473333
290.0113333
302.318
307.6046667
310.058
314.45
314.4526667
312.466
309.836
306.684
305.1686667
298.5686667
293.5406667
291.6366667
281.416
275.9033333
264.508
255.13
239.8953333
223.2693333
206.0346667
184.7926667
150.256
223.922
244.5006667
259.2873333
267.7646667
280.2873333
288.4253333
292.9126667
296.4166667
300.7633333
299.984
302.294
300.778
297.3346667
294.8493333
287.7586667
283.072
275.2193333
268.1286667
259.122
249.036
236.638
222.4246667
206.4613333
185.9026667
153.0513333
220.6506667
234.004
244.4033333
253.186
261.564
268.6513333
274.7633333
279.9446667
286.4906667
289.352
290.99
290.8666667
289.6733333
288.152
282.208
277.0193333
270.96
263.4906667
253.7186667
246.3073333
236.0613333
221.694
207.6826667
186.5413333
157.25
213.5466667
226.7293333
236.5186667
243.2146667
247.6446667
253.776
260.5446667
269.0813333
274.3333333
278.298
280.922
279.488
279.5693333
276.5153333
271.768
269.232
264.7733333
257.15
253.6326667
244.538
231.198
220.3973333
209.6553333
189.3026667
158.4466667
211.1546667
221.9386667
227.734
232.3106667
236.354
238.9966667
247.5133333
254.3906667
258.0873333
263.7033333
266.208
268.6013333
268.008
266.6253333
264.3433333
263.516
257.2253333
253.7513333
250.618
241.3613333
229.532
221.022
208.5793333
190.0533333
159.1706667
209.5026667
220.7246667
222.5366667
224.2713333
226.2726667
231.838
236.4206667
241.9213333
243.824
248.5493333
250.8386667
256.1986667
258.6293333
257.4773333
257.032
256.7433333
251.876
246.0806667
243.8033333
236.472
228.8033333
219.974
204.9633333
189.8613333
159.8433333
208.448
216.688
220.126
219.7853333
219.9406667
224.6226667
225.7406667
230.4733333
232.702
239.0513333
244.1253333
244.35
247.2
246.5453333
245.1846667
244.4233333
244.4006667
240.7926667
240.6873333
232.14
226.1326667
215.3686667
199.528
185.5966667
158.402
207.954
215.58
216.118
217.6213333
216.6066667
217.3833333
219.4853333
221.0446667
224.6093333
225.368
230.0333333
231.488
236.9026667
237.8853333
237.4913333
235.35
235.2186667
231.3073333
227.2226667
225.0213333
218.8606667
210.6793333
201.1126667
185.68
158.76
205.7846667
213.8526667
214.448
212.594
213.5726667
211.7273333
211.0686667
213.256
213.8386667
216.8533333
217.8706667
218.6593333
221.74
227.588
224.27
224.8973333
222.002
220.972
220.442
215.772
211.0726667
204.6413333
194.0566667
181.6453333
154.536
202.6993333
213.1466667
215.572
211.3546667
209.696
208.5013333
208.2426667
206.162
206.4953333
206.954
207.9393333
208.1393333
209.5586667
213.9746667
214.3233333
215.2513333
212.132
212.982
209.4053333
204.832
200.18
197.2913333
187.1506667
175.2413333
151.482
203.3793333
211.71
213.6966667
210.0853333
205.7326667
204.176
204.3766667
200.724
197.8573333
196.846
197.7453333
198.2806667
198.678
200.726
201.664
200.8753333
201.1866667
201.1093333
200.228
195.4673333
190.9866667
187.838
180.9766667
167.924
147.476
204.968
210.9346667
210.1546667
209.288
204.0566667
199.1633333
195.1753333
193.488
193.4033333
191.7673333
190.162
189.1186667
190.7386667
191.6133333
189.2653333
191.3426667
190.136
188.9633333
188.4166667
182.0606667
181.8433333
179.3873333
174.3546667
164.4893333
142.2166667
202.8313333
210.126
211.1146667
205.0813333
199.9613333
193.1066667
190.574
185.234
182.252
181.1226667
179.8093333
179.2573333
176.072
176.2753333
176.9273333
176.6
175.062
177.066
179.1073333
176.1226667
172.36
171.9513333
164.9753333
157.3053333
138.0326667
203.3786667
208.5926667
205.144
199.6086667
192.5226667
187.0866667
182.818
177.5293333
175.03
172.6373333
169.4126667
167.714
167.4953333
168.4846667
167.2513333
169.236
168.8606667
168.8973333
165.48
167.1526667
164.6713333
163.3293333
158.2446667
150.4466667
134.3713333
198.7053333
203.576
199.74
191.638
184.6506667
178.4493333
173.254
169.8873333
167.1813333
164.1026667
160.0506667
157.9786667
161.2353333
159.8046667
159.526
160.526
161.8433333
161.318
159.6173333
159.3513333
159.4886667
159.448
154.9926667
148.114
133.7726667
189.264
191.442
185.5446667
178.562
173.0353333
170.5393333
167.0506667
166.4073333
163.33
164.238
162.1066667
162.3993333
160.9106667
160.8613333
161.676
162.0473333
161.4373333
160.6893333
163.254
162.9853333
163.6073333
162.752
159.2333333
156.4986667
144.0273333
248.3473333
282.798
305.01
316.6126667
320.2613333
322.9286667
326.0273333
327.7246667
324.704
320.4006667
317.2593333
314.6726667
311.6953333
306.6553333
300.048
296.664
290.3086667
278.0166667
273.6946667
260.108
244.7673333
226.856
209.692
186.16
145.1186667
221.9593333
256.2546667
283.8706667
304.8553333
312.9326667
315.396
313.8086667
310.0273333
306.854
304.7846667
300.9513333
297.9213333
294.042
290.9113333
286.6593333
279.796
273.446
267.9686667
260.35
247.2566667
235.8573333
221.706
202.2906667
177.052
143.5566667
208.8826667
236.0366667
261.98
281.446
294.972
301.1606667
304.804
304.3033333
303.1653333
296.0506667
294.3666667
288.8086667
287.1366667
284.6326667
278.0713333
273.2906667
265.4193333
260.5466667
252.2053333
237.6993333
227.542
217.4513333
198.2866667
177.7933333
147.208
202.516
225.456
244.9606667
262.9006667
278.358
287.3693333
292.706
292.9973333
294.434
292.2686667
287.9993333
285.372
282.91
277.5973333
273.3086667
265.884
262.6106667
254.2
246.322
237.088
225.8113333
213.914
199.1026667
177.8746667
150.922
198.064
217.3973333
234.934
250.682
263.3113333
272.196
277.1406667
281.838
285.1933333
282.6793333
283.2066667
280.9086667
276.3373333
272.0266667
266.934
263.258
255.5813333
248.4833333
243.334
235.696
227.7293333
213.6106667
197.772
179.6666667
156.3413333
194.4993333
211.7186667
226.9653333
242.556
253.0253333
261.474
267.9306667
269.8526667
275.258
276.0933333
274.5353333
273.1206667
269.0733333
269.1353333
261.0506667
257.4966667
251.4853333
244.5313333
239.214
233.8853333
225.7126667
213.2
197.952
181.9553333
157.1513333
191.868
205.6613333
221.5713333
234.7006667
243.058
250.2446667
256.3813333
259.132
261.1066667
264.6886667
264.4853333
264.0373333
262.73
261.074
257.012
251.8493333
248.5593333
241.992
235.5033333
230.1533333
220.3233333
211.746
200.8726667
184.0153333
159.3686667
189.636
204.518
216.184
228.2026667
235.6853333
243.0993333
247.6946667
252.0826667
253.4706667
254.268
253.022
255.764
253.5906667
252.2613333
250.126
247.872
243.6433333
236.13
232.5833333
226.3973333
218.256
211.9066667
198.554
181.8786667
160.584
189.9166667
202.9693333
215.02
225.3413333
231.7533333
236.4226667
239.0213333
241.608
245.4086667
247.0926667
244.8946667
246.5573333
246.6433333
246.254
242.22
239.3686667
236.8593333
231.732
228.2333333
222.5193333
216.7926667
207.3106667
196.7786667
183.1593333
159.4846667
189.052
202.344
214.5086667
222.61
227.908
230.6446667
233.5386667
234.6346667
236.126
238.144
237.5713333
235.824
237.3286667
236.3666667
232.9413333
232.464
228.5993333
225.5786667
224.3953333
219.1873333
212.594
203.54
193.8433333
180.3746667
158.828
188.104
201.0546667
211.064
218.7306667
223.592
227.19
227.2686667
228.486
228.1526667
228.14
226.5513333
226.73
224.856
225.1346667
224.88
223.6053333
220.7446667
219.276
217.1953333
211.2593333
204.1753333
198.6486667
189.9993333
177.038
157.7526667
185.4593333
199.6786667
210.2093333
218.2913333
221.5153333
223.9253333
223.526
222.8366667
221.2213333
219.2413333
217.782
217.112
215.0826667
215.8606667
215.1726667
214.226
211.306
211.2266667
208.3073333
204.2866667
197.7753333
191.77
183.846
171.8486667
152.9093333
186.722
198.0853333
208.6193333
215.268
217.5593333
220.536
221.4506667
217.004
213.8813333
211.5666667
208.9253333
208.34
206.2153333
205.3053333
204.808
204.402
202.6353333
200.2013333
197.5413333
195.892
190.0326667
183.4926667
177.244
168.366
152.1706667
187.074
197.7946667
209.1073333
215.754
218.4733333
219.038
217.2146667
213.3913333
209.3846667
205.5693333
202.9986667
202.6833333
200.218
197.46
196.7213333
193.4406667
192.9326667
189.4946667
187.084
186.544
181.894
177.0626667
170.9993333
162.414
145.5286667
186.208
197.1353333
205.5713333
210.626
214.1486667
210.9366667
209.4233333
203.946
201.2813333
198.6093333
194.5386667
191.4013333
189.4266667
187.8966667
186.6893333
185.2293333
182.6606667
180.1193333
179.1886667
175.9173333
172.7773333
169.0826667
163.9453333
157.9473333
142.4186667
185.2786667
194.7213333
204.0933333
209.0613333
209.23
206.0393333
202.872
199.4393333
194.3853333
191.4266667
188.1786667
183.3566667
180.7853333
178.5506667
177.028
175.0453333
173.8706667
171.0706667
170.6886667
171.2526667
167.624
163.8826667
159.382
153.7733333
139.226
182.51
191.134
197.3993333
201.4773333
201.1293333
199.364
194.7953333
191.626
187.2886667
183.3646667
179.7826667
176.7113333
175.6813333
172.896
170.79
170.2193333
170.048
167.6886667
165.1413333
164.4186667
163.3753333
160.3213333
157.748
151.7013333
140.486
176.0073333
183.2706667
189.4513333
189.7946667
190.6853333
190.102
188.5226667
187.694
183.9066667
181.2806667
179.826
177.5693333
175.6453333
175.744
174.2993333
174.3773333
173.66
173.6706667
173.238
171.2173333
171.0253333
169.024
166.5733333
163.666
156.3226667
233.2406667
257.244
277.33
290.9986667
298.75
306.3146667
309.542
312.4573333
314.8026667
310.9313333
308.854
306.7386667
301.98
297.674
292.9433333
286.8906667
280.0986667
272.266
263.2886667
254.006
241.356
225.7733333
207.252
184.4133333
150.6286667
209.264
236.096
263.06
282.3946667
294.6953333
302.498
302.3126667
303.2393333
301.0853333
299.716
295.1393333
289.812
290.198
283.552
277.808
270.7933333
266.0306667
256.7466667
249.6626667
241.6626667
228.7906667
217.082
199.0073333
177.784
149.1346667
195.54
215.9033333
238.586
260.046
279.9386667
289.968
296.5853333
300.9466667
299.056
295.7586667
291.8673333
285.186
282.3153333
278.1646667
271.3
265.108
259.7146667
251.92
244.932
232.946
223.9506667
213.632
197.72
177.224
151.5973333
191.3433333
205.728
225.386
244.8346667
262.31
275.8473333
284.516
292.1466667
296.888
294.0613333
289.5173333
285.91
282.6133333
276.322
271.142
264.8433333
257.938
248.6486667
239.2126667
232.4566667
221.5993333
211.4186667
197.6233333
180.296
156.9793333
187.1106667
202.074
218.7666667
233.684
249.1373333
263.4246667
275.356
283.122
287.024
286.8433333
284.536
283.8786667
278.94
273.4666667
267.252
263.5833333
255.1353333
248.1253333
239.962
231.5493333
222.152
212.6653333
201.22
183.5486667
161.9526667
185.028
196.2373333
209.554
224.93
238.31
250.1806667
263.2626667
270.328
276.3273333
281.9386667
281.3393333
280.5693333
277.7746667
273.2753333
268.4033333
261.4926667
255.6546667
246.8506667
239.8813333
232.0386667
221.8186667
212.5493333
199.928
185.6
167.7226667
184.742
193.862
205.7893333
217.256
229.5946667
241.0393333
251.8646667
260.4686667
266.4273333
272.6846667
273.2726667
272.0266667
271.506
267.064
262.436
257.7646667
253.69
247.2826667
239.0533333
231.6973333
223.036
213.844
202.4946667
187.3986667
168.978
181.7753333
191.5573333
201.8946667
213.3346667
225.0466667
235.2413333
245.196
253.6073333
258.0213333
262.3013333
263.6213333
264.304
263.084
261.8566667
258.09
253.6806667
248.1153333
240.402
235.0066667
229.538
222.0993333
214.1973333
202.4026667
188.2553333
172.4813333
180.2973333
190.0626667
199.088
210.2686667
220.5613333
228.8886667
236.7593333
242.5026667
249.2273333
252.3113333
253.4706667
254.636
255.3293333
253.4646667
250.8046667
247.178
243.9613333
240.2513333
232.5206667
226.2233333
220.4646667
212.1426667
201.222
187.982
174.028
180.15
187.8773333
197.5113333
207.1133333
214.93
221.7226667
228.8593333
236.3833333
239.5966667
242.1726667