/*--------------------------------*- C++ -*----------------------------------*\
| =========                 |                                                 |
| \\      /  F ield         | OpenFOAM: The Open Source CFD Toolbox           |
|  \\    /   O peration     | Version:  v1706                                 |
|   \\  /    A nd           | Web:      www.OpenFOAM.com                      |
|    \\/     M anipulation  |                                                 |
\*---------------------------------------------------------------------------*/
FoamFile
{
    version     2.0;
    format      ascii;
    class       volScalarField;
    location    "0.003";
    object      dsmcSigmaTcRMax;
}
// * * * * * * * * * * * * * * * * * * * * * * * * * * * * * * * * * * * * * //

dimensions      [0 3 -1 0 0 0 0];


internalField   nonuniform List<scalar> 
9720
(
6.307781796e-16
6.35719638e-16
6.43357181e-16
6.712250922e-16
6.420671581e-16
6.443869575e-16
6.302042762e-16
6.390043805e-16
6.388781217e-16
6.542493575e-16
6.202696515e-16
6.298004498e-16
6.297144446e-16
6.574494289e-16
6.591567085e-16
6.193995452e-16
6.18043338e-16
6.36008711e-16
6.414008245e-16
6.544611907e-16
6.268047129e-16
6.430939422e-16
6.368743052e-16
6.36213322e-16
6.403824037e-16
6.44754739e-16
6.364512346e-16
6.471658064e-16
6.341046353e-16
6.475915484e-16
6.23251038e-16
6.31544675e-16
6.39838348e-16
6.364159061e-16
6.356876411e-16
6.191580901e-16
6.148239732e-16
6.17399882e-16
6.379253309e-16
6.353331579e-16
6.240539705e-16
6.323131849e-16
6.407005814e-16
6.266656648e-16
6.31294821e-16
6.077785384e-16
6.210369441e-16
6.409176614e-16
6.299173887e-16
6.52561051e-16
6.397888171e-16
6.168401676e-16
6.124745005e-16
6.291211928e-16
6.426935239e-16
5.980211083e-16
6.265069871e-16
6.302796846e-16
6.348330552e-16
6.565510143e-16
6.120377563e-16
6.239616826e-16
6.181528792e-16
6.414742151e-16
6.467805069e-16
6.121989142e-16
6.246354682e-16
6.188780977e-16
6.396841887e-16
6.53168607e-16
6.035947918e-16
6.267507299e-16
6.51961671e-16
6.401491951e-16
6.454956529e-16
5.882400934e-16
6.143272227e-16
6.273233488e-16
6.417748136e-16
6.228367638e-16
6.343347284e-16
6.03113711e-16
6.268810949e-16
6.231862604e-16
6.518204934e-16
6.190186131e-16
5.987771629e-16
6.148984955e-16
6.075048616e-16
6.278404143e-16
6.377094983e-16
6.715597823e-16
6.36197754e-16
6.502058413e-16
6.469811011e-16
6.475319028e-16
6.293202477e-16
6.519556744e-16
6.411495086e-16
6.431975984e-16
6.298211282e-16
6.37165188e-16
6.290741377e-16
6.462975371e-16
6.542092815e-16
6.701548901e-16
6.355899853e-16
6.349275113e-16
6.517335256e-16
6.685451054e-16
6.252478974e-16
6.200506431e-16
6.591816341e-16
6.425276852e-16
6.368667939e-16
6.323915675e-16
6.239691209e-16
6.409656295e-16
6.523233313e-16
6.274049157e-16
6.222168654e-16
6.171846e-16
6.461352439e-16
6.265770111e-16
6.321664201e-16
6.22992745e-16
6.280875751e-16
6.351523159e-16
6.403760108e-16
6.454996679e-16
6.086906352e-16
6.228489771e-16
6.358993289e-16
6.38028997e-16
6.394069304e-16
6.172018208e-16
6.050624393e-16
6.161541905e-16
6.393445482e-16
6.322163602e-16
6.116303075e-16
6.291633252e-16
6.392561415e-16
6.395258057e-16
6.411943232e-16
5.965883473e-16
6.411798745e-16
6.296625137e-16
6.40344601e-16
6.400548551e-16
5.780265011e-16
6.119392463e-16
6.418444245e-16
6.421296778e-16
6.449981731e-16
6.271220487e-16
6.214283522e-16
6.287209144e-16
6.28966927e-16
6.20524632e-16
6.067169784e-16
6.303425134e-16
6.162194253e-16
6.301145964e-16
6.30422755e-16
6.28299874e-16
6.32086834e-16
6.378367534e-16
6.280357696e-16
6.296888411e-16
6.266882794e-16
5.977775059e-16
6.29045872e-16
6.087152182e-16
6.583173599e-16
6.158797961e-16
6.036311493e-16
6.180259461e-16
6.331410438e-16
6.342262976e-16
6.209310928e-16
6.218118709e-16
6.479376511e-16
6.632465211e-16
6.496575808e-16
6.089673654e-16
6.350230127e-16
6.169288076e-16
6.494740426e-16
6.670201564e-16
6.56410641e-16
6.472630496e-16
6.431176515e-16
6.43763941e-16
6.407927474e-16
6.296365059e-16
6.350860015e-16
6.520688056e-16
6.759117992e-16
6.329310194e-16
6.310834216e-16
6.228272452e-16
6.250406385e-16
6.469389353e-16
6.378252039e-16
6.100886501e-16
6.384133769e-16
6.429924185e-16
6.354204667e-16
6.30928756e-16
6.27238231e-16
6.272965196e-16
6.347428646e-16
6.364606417e-16
6.268439925e-16
6.309861676e-16
6.302760023e-16
6.250384459e-16
6.36033846e-16
6.305476334e-16
6.108913177e-16
6.326981146e-16
6.319090435e-16
6.28763146e-16
6.382941513e-16
6.23029251e-16
6.498723855e-16
6.364946484e-16
6.33545192e-16
6.53792725e-16
6.336334388e-16
6.076706035e-16
6.541836402e-16
6.315329984e-16
6.344307392e-16
6.099251308e-16
6.158225632e-16
6.202125943e-16
6.291575656e-16
6.308758117e-16
6.450786825e-16
6.240615772e-16
6.398542051e-16
6.320743796e-16
6.185030864e-16
6.107032804e-16
6.123141602e-16
6.21541801e-16
6.245492126e-16
6.225213231e-16
6.131156104e-16
6.478145911e-16
6.276387016e-16
6.383897452e-16
6.210332055e-16
6.198558397e-16
6.310265519e-16
6.358225907e-16
6.31152074e-16
6.266115682e-16
6.133255249e-16
6.532985469e-16
6.272677602e-16
6.161814695e-16
6.335985539e-16
6.134991343e-16
5.843285889e-16
6.20393839e-16
6.170504566e-16
6.34249458e-16
6.511465395e-16
6.21059327e-16
6.39898935e-16
6.552833205e-16
6.61802168e-16
6.261708871e-16
6.306478225e-16
6.658344514e-16
6.289021882e-16
6.438608025e-16
6.263542944e-16
6.380961025e-16
6.435418193e-16
6.530234875e-16
6.484976196e-16
6.333897625e-16
6.416850472e-16
6.327996494e-16
6.301723066e-16
6.292280421e-16
6.166855998e-16
6.227995903e-16
6.358324727e-16
6.505875087e-16
6.375263207e-16
6.131572781e-16
6.340728835e-16
6.31293663e-16
6.360395576e-16
6.246316479e-16
6.311533535e-16
6.425835415e-16
6.116801741e-16
6.183851571e-16
6.343745489e-16
6.177880215e-16
6.583365722e-16
6.143450203e-16
6.245699305e-16
6.222825635e-16
6.130571226e-16
5.935571352e-16
6.491437108e-16
6.208207053e-16
6.508236966e-16
6.178190869e-16
6.316520873e-16
6.367149657e-16
6.078323675e-16
6.279146134e-16
6.221415314e-16
6.202262872e-16
6.678964925e-16
6.271417161e-16
6.403012677e-16
6.017104133e-16
6.125637327e-16
6.291611684e-16
6.406720774e-16
6.280476704e-16
5.985428598e-16
6.151619135e-16
6.358350853e-16
6.186320482e-16
6.336484638e-16
6.29890464e-16
6.366535926e-16
6.104938827e-16
6.252877086e-16
6.232893137e-16
6.170053616e-16
6.423855086e-16
6.248557522e-16
6.358325281e-16
6.159217998e-16
6.044306453e-16
6.243320164e-16
6.487643935e-16
6.170586338e-16
6.249117236e-16
5.857788705e-16
6.330431854e-16
6.0138716e-16
6.315805681e-16
6.133285377e-16
5.957057503e-16
5.969709384e-16
6.096679531e-16
6.153633097e-16
6.147149084e-16
6.457398703e-16
6.208734976e-16
6.207688733e-16
6.450814053e-16
6.475230294e-16
6.345153955e-16
6.625354085e-16
6.363734229e-16
6.201585927e-16
6.322496856e-16
6.117349557e-16
6.245424645e-16
6.355996565e-16
6.479412002e-16
6.315049044e-16
6.088538728e-16
6.465360364e-16
6.427527808e-16
6.219875959e-16
6.179069721e-16
6.260197049e-16
6.329018908e-16
6.258239454e-16
6.368513731e-16
6.17211709e-16
6.495441985e-16
6.152328768e-16
6.577255336e-16
6.36259678e-16
6.688572406e-16
6.474819624e-16
6.380732871e-16
6.258316458e-16
6.246873129e-16
6.415558079e-16
6.457141774e-16
6.277858443e-16
6.216981042e-16
6.277811406e-16
6.188191869e-16
6.176279235e-16
6.207824739e-16
6.105650648e-16
6.142544215e-16
6.286733103e-16
6.384352552e-16
6.214591345e-16
6.0305974e-16
6.309431989e-16
6.135413422e-16
6.351802796e-16
6.263827246e-16
6.338393968e-16
6.055158614e-16
6.139947895e-16
5.959119593e-16
6.16102341e-16
6.077563369e-16
6.287801099e-16
6.230047983e-16
6.183644048e-16
6.177606413e-16
6.137371145e-16
6.125279496e-16
6.272751265e-16
5.619546083e-16
6.126930835e-16
6.164124918e-16
6.160313223e-16
6.060186024e-16
5.780222309e-16
6.103230403e-16
5.899959063e-16
6.331385028e-16
6.377456689e-16
5.764778598e-16
5.979040978e-16
6.112670633e-16
6.069005179e-16
6.281548361e-16
6.061655307e-16
6.182203386e-16
6.323038569e-16
6.095279623e-16
6.063610063e-16
6.094335765e-16
6.120212737e-16
5.934493491e-16
6.105462905e-16
6.088447271e-16
6.190496525e-16
6.300385658e-16
6.389213347e-16
6.387780826e-16
6.445860852e-16
6.178339467e-16
6.363459909e-16
6.21525203e-16
6.317733702e-16
6.430949257e-16
6.460111893e-16
6.382442444e-16
6.477948784e-16
6.305526994e-16
6.354624556e-16
6.218513816e-16
6.331302739e-16
6.249915224e-16
6.350702747e-16
6.236507662e-16
6.298332174e-16
6.310337293e-16
6.384929113e-16
6.143385323e-16
6.321754004e-16
6.032235608e-16
6.349139875e-16
6.578228408e-16
6.296904842e-16
6.140692927e-16
6.217878757e-16
6.213954439e-16
6.474478568e-16
6.33706402e-16
6.453432466e-16
6.079350382e-16
6.10771783e-16
6.33821051e-16
6.134091059e-16
6.402256014e-16
6.048590111e-16
6.154414487e-16
6.173355157e-16
6.370633167e-16
6.554477944e-16
6.091934725e-16
6.101461125e-16
6.460451258e-16
6.309287535e-16
6.26878193e-16
6.284386162e-16
6.067797652e-16
5.975389459e-16
6.474695592e-16
6.115252299e-16
6.12111818e-16
5.989028079e-16
6.346984003e-16
6.476799285e-16
6.481768669e-16
6.065476289e-16
6.098438818e-16
6.003821277e-16
5.962630136e-16
6.098983461e-16
5.908820527e-16
6.376332407e-16
6.184216049e-16
6.025492652e-16
6.501931881e-16
5.989629607e-16
6.322575759e-16
6.303557958e-16
6.46529262e-16
6.160421162e-16
5.977758356e-16
6.124633711e-16
6.723175139e-16
6.0673543e-16
6.063016595e-16
6.200110527e-16
6.036800436e-16
5.924735651e-16
5.945269377e-16
6.014591658e-16
5.636407559e-16
6.154214284e-16
6.051712706e-16
6.151671211e-16
6.039275273e-16
6.177276938e-16
6.587450912e-16
6.36873555e-16
6.425474944e-16
6.539632108e-16
6.199574363e-16
6.196671819e-16
6.379601939e-16
6.312030754e-16
6.45120994e-16
6.189556312e-16
6.426107479e-16
6.34734377e-16
6.431455345e-16
6.271443789e-16
6.071959261e-16
6.517180849e-16
6.407240438e-16
6.164231278e-16
6.531775552e-16
6.302753585e-16
6.332954155e-16
6.21090942e-16
6.210052107e-16
6.607198601e-16
6.383023091e-16
6.184102798e-16
6.305249957e-16
6.57617356e-16
6.463392691e-16
6.262736078e-16
6.200081997e-16
6.173014591e-16
6.172299595e-16
6.210236867e-16
6.12860039e-16
6.199213848e-16
6.478379588e-16
6.344082138e-16
6.170236884e-16
6.04251427e-16
6.291992478e-16
6.036852823e-16
6.387798167e-16
6.000809072e-16
6.020885595e-16
6.153363221e-16
6.082109227e-16
5.9892131e-16
6.108428363e-16
6.097362757e-16
6.04759927e-16
6.101561592e-16
6.362283942e-16
6.299076878e-16
6.237786427e-16
6.125171564e-16
6.161310373e-16
6.083410924e-16
6.137854751e-16
6.148333604e-16
6.04829865e-16
6.175109518e-16
6.004667847e-16
6.007791102e-16
6.273456663e-16
5.895743992e-16
6.182210001e-16
6.143265856e-16
6.171314194e-16
5.611302535e-16
5.900077513e-16
5.973914913e-16
6.120656421e-16
5.982448014e-16
5.956702057e-16
5.887237879e-16
6.021788986e-16
6.147860274e-16
6.048105661e-16
5.849123335e-16
5.850882498e-16
5.973618637e-16
6.338604056e-16
6.185204849e-16
5.815152729e-16
6.133924862e-16
6.098998786e-16
6.241832472e-16
6.216530823e-16
6.093917441e-16
6.371311118e-16
6.353526108e-16
6.432548799e-16
6.3428598e-16
6.413654287e-16
6.438900331e-16
6.29839573e-16
6.431250963e-16
6.403946126e-16
6.15896887e-16
6.411498086e-16
6.269757521e-16
6.449070965e-16
6.442454257e-16
6.119701069e-16
6.260860535e-16
6.304877918e-16
6.279433797e-16
6.259547006e-16
6.386012927e-16
6.315931854e-16
6.459915396e-16
6.389026486e-16
6.176958193e-16
6.1743632e-16
6.157835338e-16
6.133059849e-16
6.59515165e-16
6.25465792e-16
6.371048061e-16
5.910876174e-16
5.986654291e-16
6.217882455e-16
6.231407121e-16
6.163230957e-16
6.13141569e-16
6.148411592e-16
6.181005046e-16
6.18474785e-16
6.101731058e-16
6.157817607e-16
6.049324554e-16
6.039259513e-16
6.070272325e-16
6.161660258e-16
6.033396502e-16
6.251459141e-16
6.30478141e-16
6.139140843e-16
6.123550375e-16
5.990633765e-16
6.120678857e-16
6.137801619e-16
6.154667114e-16
6.046062435e-16
5.911670749e-16
5.972735357e-16
6.210561219e-16
6.36214031e-16
6.334205434e-16
6.102286889e-16
6.086611907e-16
6.002765028e-16
6.098636595e-16
6.136686904e-16
6.073891791e-16
5.747928041e-16
6.020890485e-16
6.109543853e-16
6.138356974e-16
6.142557381e-16
6.283887435e-16
6.185105567e-16
5.998477621e-16
6.127053618e-16
5.862118835e-16
5.996541818e-16
6.121490542e-16
6.106536639e-16
5.617515294e-16
6.303718268e-16
5.87269315e-16
5.895171728e-16
6.051492177e-16
6.170127929e-16
5.975706144e-16
5.800780722e-16
5.698837871e-16
6.210601265e-16
6.13390446e-16
6.311695275e-16
6.464049465e-16
6.377517193e-16
6.366949787e-16
6.262185843e-16
6.169996961e-16
6.294123162e-16
6.417721895e-16
6.354597084e-16
6.308914118e-16
6.226827212e-16
6.293196959e-16
6.317548187e-16
6.280237093e-16
6.575805976e-16
6.272427284e-16
6.261228279e-16
6.597886553e-16
6.393134876e-16
6.08989045e-16
6.326194061e-16
6.047444938e-16
6.360739368e-16
6.388241437e-16
6.151181073e-16
6.202914237e-16
6.224570523e-16
6.022127646e-16
6.526218328e-16
6.239421603e-16
6.094470428e-16
6.020837527e-16
6.014625695e-16
6.189067714e-16
5.992652596e-16
6.085919843e-16
6.151713896e-16
6.230083721e-16
6.152900905e-16
5.970231777e-16
6.07653376e-16
6.004600579e-16
6.059976468e-16
6.173008029e-16
6.366007572e-16
5.939054268e-16
6.20286342e-16
5.931513925e-16
6.083727351e-16
5.893294116e-16
6.089256981e-16
5.757732238e-16
6.322272052e-16
6.169528608e-16
5.987559663e-16
5.876895359e-16
6.379594365e-16
5.957340113e-16
5.937317722e-16
5.883073219e-16
6.120461281e-16
6.05886399e-16
6.067006051e-16
6.173396102e-16
5.787455704e-16
6.1655149e-16
6.017322723e-16
6.229523596e-16
6.032219183e-16
6.131961402e-16
5.79368005e-16
6.134404449e-16
6.048283197e-16
5.999632545e-16
5.793374663e-16
5.8048636e-16
6.035701432e-16
6.171439981e-16
5.882571595e-16
5.821971393e-16
6.063107183e-16
5.882768779e-16
6.130940349e-16
5.704504562e-16
5.807017066e-16
5.748602932e-16
6.216081239e-16
6.083914389e-16
6.037269327e-16
6.19887887e-16
6.033814936e-16
6.316385739e-16
6.322800741e-16
6.450804392e-16
6.001956421e-16
6.496122704e-16
6.210791306e-16
6.371423978e-16
6.494906929e-16
6.25543841e-16
6.393273417e-16
6.169346185e-16
6.45058565e-16
6.213557905e-16
6.203036413e-16
6.253983069e-16
6.372155752e-16
6.232408953e-16
6.301224948e-16
6.291557748e-16
6.250669795e-16
6.363920553e-16
6.623277024e-16
6.255787077e-16
6.32561143e-16
6.186742647e-16
6.121349088e-16
6.200340301e-16
6.108233438e-16
6.034779463e-16
5.925892641e-16
6.005106749e-16
6.196894075e-16
6.161905503e-16
6.103139357e-16
5.982319077e-16
6.189790102e-16
6.295757012e-16
6.126628892e-16
5.869835759e-16
6.049029789e-16
6.278947599e-16
6.409807067e-16
5.922557177e-16
6.055969008e-16
5.939586864e-16
6.091034303e-16
6.090001386e-16
6.031005169e-16
5.970066295e-16
5.809692785e-16
5.863358342e-16
5.991595208e-16
5.974422166e-16
6.068771374e-16
6.112369914e-16
6.13641925e-16
6.083981109e-16
6.047795458e-16
6.14261688e-16
6.344435687e-16
5.841938664e-16
5.933110603e-16
6.187886843e-16
6.18134074e-16
5.869205949e-16
6.25967511e-16
6.177813041e-16
6.127628237e-16
5.650552746e-16
5.797428424e-16
6.18276843e-16
6.2295862e-16
6.077612615e-16
5.966334441e-16
6.103968481e-16
6.141900172e-16
5.950349248e-16
5.914437122e-16
6.003912274e-16
5.65555362e-16
5.714448273e-16
5.76665457e-16
5.940591899e-16
5.709956121e-16
5.952853291e-16
5.750985186e-16
6.22657948e-16
5.709601675e-16
5.967465791e-16
6.292847158e-16
6.500110278e-16
6.331740926e-16
6.516017012e-16
6.218738217e-16
6.244725381e-16
6.340734168e-16
6.338016333e-16
6.321909254e-16
6.024563993e-16
6.325357845e-16
6.246403692e-16
6.234623634e-16
6.363675236e-16
5.935775076e-16
6.159966404e-16
6.178082848e-16
6.283209413e-16
6.290864832e-16
6.168900991e-16
6.061470694e-16
6.256551754e-16
6.113161337e-16
6.346707504e-16
5.962186028e-16
6.093126975e-16
6.10091083e-16
6.312806213e-16
6.038190803e-16
6.045804359e-16
6.125656898e-16
6.485186866e-16
6.085894568e-16
6.069955114e-16
6.16495357e-16
6.019110529e-16
6.153088534e-16
5.97385173e-16
6.231213292e-16
5.926170764e-16
6.107397098e-16
6.018726468e-16
6.496388351e-16
6.188246154e-16
5.962933489e-16
5.724273525e-16
5.935783289e-16
6.067211828e-16
6.251713256e-16
5.823638438e-16
5.746024758e-16
5.923342672e-16
6.074016227e-16
5.917298774e-16
5.82829638e-16
6.191566014e-16
5.92847352e-16
6.07843224e-16
6.044042182e-16
6.14074831e-16
6.124419425e-16
6.045876568e-16
6.039495402e-16
5.834326841e-16
6.027453874e-16
5.982464476e-16
5.927241681e-16
5.982050113e-16
5.820565955e-16
5.558244201e-16
5.84085846e-16
5.768407493e-16
6.025209993e-16
6.057784982e-16
5.732965528e-16
5.824551123e-16
5.954625816e-16
5.77566208e-16
6.277787685e-16
5.46992787e-16
5.96966532e-16
6.025617143e-16
5.902069949e-16
5.775297462e-16
5.766462424e-16
5.376547715e-16
5.861243371e-16
5.815418219e-16
6.029397996e-16
6.088757631e-16
6.1466535e-16
6.231734605e-16
6.430352132e-16
6.808126577e-16
6.19982857e-16
6.354495248e-16
6.212219077e-16
6.262434477e-16
6.296689579e-16
6.117761766e-16
6.386524306e-16
6.277547533e-16
6.439092937e-16
6.14241464e-16
6.183773968e-16
6.141996516e-16
6.433371304e-16
6.140710934e-16
6.268521256e-16
6.485984315e-16
6.182022902e-16
6.116694164e-16
6.294330145e-16
6.169854326e-16
6.23683062e-16
6.125987723e-16
6.131412162e-16
6.052103985e-16
6.312263489e-16
6.172451653e-16
6.174392373e-16
6.10874611e-16
6.145389805e-16
6.349561224e-16
6.121021447e-16
5.888107306e-16
6.123471594e-16
5.959867139e-16
6.212887013e-16
5.913256512e-16
5.920699705e-16
6.308574446e-16
5.845269709e-16
6.013300893e-16
5.923215466e-16
6.034246161e-16
5.867860917e-16
6.045554004e-16
5.990887134e-16
6.061768618e-16
5.741652425e-16
5.76595536e-16
5.954898573e-16
5.85011967e-16
5.627203834e-16
5.904671383e-16
5.861273751e-16
6.022284205e-16
5.738023815e-16
5.734488946e-16
6.112258945e-16
5.466155673e-16
5.908591814e-16
5.967087642e-16
5.674302469e-16
6.019293755e-16
6.122887517e-16
5.865009343e-16
6.168786722e-16
5.851743239e-16
5.429119069e-16
5.696158176e-16
6.217197298e-16
6.199070956e-16
5.917694709e-16
5.920758809e-16
6.149681975e-16
5.711497684e-16
6.507010466e-16
5.383643499e-16
5.374249777e-16
5.944946416e-16
5.889385862e-16
5.731317503e-16
5.707874435e-16
5.842839689e-16
5.784833147e-16
6.037988252e-16
5.741040007e-16
6.166832897e-16
6.101038844e-16
6.264908214e-16
6.374443089e-16
6.307403196e-16
6.082651211e-16
6.494622881e-16
6.104208216e-16
6.401049649e-16
6.388891209e-16
6.274852493e-16
6.615813361e-16
6.473581243e-16
6.551953005e-16
6.343581683e-16
6.144718632e-16
6.224874992e-16
6.179612379e-16
6.343571299e-16
6.348029283e-16
6.157816707e-16
6.244436381e-16
6.340714253e-16
6.098872488e-16
6.259381043e-16
5.957441649e-16
5.937605038e-16
6.098653198e-16
6.141700492e-16
6.078410374e-16
5.886178473e-16
6.019918778e-16
6.106471974e-16
6.01890914e-16
5.97031046e-16
6.175350945e-16
5.885035768e-16
5.89662961e-16
6.085392917e-16
6.526901063e-16
6.100729293e-16
5.844854136e-16
6.014808634e-16
5.950496487e-16
6.087689454e-16
5.931115078e-16
5.989552025e-16
6.303320747e-16
6.156657058e-16
6.009621746e-16
5.848924298e-16
5.851000814e-16
5.786456358e-16
6.087743257e-16
5.831857394e-16
6.01386815e-16
6.090700509e-16
5.475021772e-16
6.24769863e-16
5.927386276e-16
6.088079935e-16
5.64026049e-16
5.718771124e-16
5.893912092e-16
5.764366727e-16
5.965830755e-16
6.063921724e-16
5.879482102e-16
5.767530098e-16
5.897069752e-16
5.601526957e-16
5.893226962e-16
5.690125695e-16
5.932559369e-16
5.931329368e-16
5.079648589e-16
5.647941131e-16
5.560070405e-16
5.480415612e-16
5.743211394e-16
4.656696284e-16
5.139459401e-16
5.916382933e-16
5.902676933e-16
5.732859728e-16
5.631600266e-16
5.522179218e-16
5.021475416e-16
5.896944939e-16
5.590255015e-16
6.116333748e-16
6.149348454e-16
6.292518751e-16
6.304284914e-16
6.321068648e-16
6.061168751e-16
6.128732988e-16
6.131785022e-16
6.58108798e-16
6.18327021e-16
6.659860005e-16
6.040669553e-16
6.173347669e-16
6.43458274e-16
6.613159367e-16
6.252005061e-16
6.243753895e-16
5.987752665e-16
6.466914448e-16
6.152479052e-16
6.147837613e-16
6.225152085e-16
6.160836782e-16
6.125357414e-16
6.039839421e-16
6.168655802e-16
6.461865502e-16
5.96220954e-16
5.954856454e-16
6.411828333e-16
5.904679395e-16
6.156629716e-16
6.009665713e-16
6.025385538e-16
5.980793124e-16
6.259075632e-16
6.00145559e-16
6.022819034e-16
6.098975572e-16
6.182708451e-16
5.864547592e-16
6.08127989e-16
6.022714673e-16
5.913443427e-16
5.855436627e-16
5.930333308e-16
6.076294653e-16
6.072598752e-16
5.736350016e-16
6.103226903e-16
5.905109572e-16
5.571556373e-16
6.040914608e-16
5.975285142e-16
5.665545486e-16
5.781797392e-16
5.662793544e-16
5.973998735e-16
5.826072849e-16
5.774981348e-16
5.271143182e-16
5.763593918e-16
6.014896598e-16
5.783195969e-16
5.733821251e-16
5.262855861e-16
5.626199307e-16
5.770312596e-16
5.950125834e-16
5.938844704e-16
5.704266899e-16
5.186622767e-16
6.013430945e-16
5.996755422e-16
5.954872639e-16
4.759253233e-16
5.902583232e-16
5.467168992e-16
5.836933863e-16
5.807606462e-16
4.801029481e-16
6.199573053e-16
5.747447856e-16
6.15162201e-16
5.800519888e-16
4.836782414e-16
4.53152713e-16
5.691993573e-16
5.648873919e-16
5.858007042e-16
5.933055468e-16
6.238309124e-16
6.323401775e-16
6.263029312e-16
6.432119204e-16
6.170265187e-16
6.343304501e-16
6.263864775e-16
6.272945538e-16
6.326160102e-16
6.029994569e-16
6.000216782e-16
6.398720111e-16
6.305343976e-16
6.357128661e-16
6.387074875e-16
6.156092846e-16
6.128851497e-16
6.340384705e-16
6.474815234e-16
6.168870932e-16
6.239185636e-16
5.964663559e-16
6.114863212e-16
6.178417756e-16
5.888412955e-16
5.958807074e-16
6.204743531e-16
6.238983487e-16
6.125140312e-16
5.846904495e-16
6.121719328e-16
5.927162462e-16
6.239494776e-16
5.958067742e-16
6.040876262e-16
6.053600181e-16
6.163529872e-16
6.09322676e-16
5.955152837e-16
5.805049225e-16
6.041598111e-16
6.061707641e-16
6.113066908e-16
6.1074019e-16
5.721245516e-16
5.832896854e-16
5.93303083e-16
5.904424618e-16
5.890606298e-16
6.010876464e-16
5.782456576e-16
5.858956379e-16
6.021126016e-16
6.268789165e-16
5.689191417e-16
5.748825495e-16
5.94299015e-16
5.947677807e-16
5.899799225e-16
5.693818749e-16
5.69625926e-16
6.01487714e-16
5.923973904e-16
5.662011529e-16
5.912982795e-16
5.667483555e-16
5.406956997e-16
6.152371175e-16
5.503369911e-16
5.818702731e-16
5.771120613e-16
5.827636731e-16
5.846486773e-16
5.672083051e-16
5.675092049e-16
5.396255825e-16
5.682177734e-16
5.959196955e-16
5.607957168e-16
5.557649815e-16
6.059191078e-16
5.526821258e-16
5.342042108e-16
5.751608748e-16
5.801028292e-16
5.796732273e-16
5.413319252e-16
5.762276761e-16
5.59331331e-16
5.907929914e-16
6.100430941e-16
6.269349301e-16
6.506992992e-16
6.475599844e-16
5.992952223e-16
6.162818918e-16
6.323771538e-16
6.198541551e-16
6.33661687e-16
6.259855777e-16
6.29677003e-16
6.09522085e-16
6.326201617e-16
6.487200148e-16
6.231206311e-16
6.398823037e-16
6.319097523e-16
6.33420403e-16
6.274880709e-16
5.96576465e-16
6.053192686e-16
6.354688466e-16
6.14354399e-16
6.227342524e-16
6.280588072e-16
6.098573308e-16
6.120703713e-16
6.099334188e-16
6.125476144e-16
6.215065541e-16
5.979054599e-16
6.239864648e-16
6.039910161e-16
5.963835061e-16
6.105898668e-16
6.10893295e-16
5.938305001e-16
5.918484781e-16
6.074720856e-16
5.512020371e-16
6.11991516e-16
5.893257002e-16
6.118428992e-16
5.843686573e-16
5.954060233e-16
5.422120615e-16
6.032867928e-16
6.001904381e-16
5.756557571e-16
6.081620253e-16
5.878415624e-16
5.893995501e-16
5.914809511e-16
5.789953316e-16
5.92221106e-16
5.696127538e-16
5.577946531e-16
5.945395996e-16
5.980419657e-16
6.365271385e-16
5.640564866e-16
5.865387264e-16
5.985147347e-16
5.878651628e-16
5.680010627e-16
5.770902262e-16
5.768450675e-16
5.517247891e-16
5.882620774e-16
5.744133058e-16
5.415462784e-16
5.380045777e-16
5.831755801e-16
6.086224649e-16
5.92446677e-16
5.883205271e-16
5.441384332e-16
5.611026878e-16
5.786033726e-16
5.507177436e-16
5.393069698e-16
5.566899064e-16
5.436132014e-16
5.557022013e-16
4.730645039e-16
5.105643133e-16
6.076928617e-16
5.491874358e-16
5.946241652e-16
5.983253429e-16
6.473165639e-16
6.318192245e-16
6.440789529e-16
6.629617406e-16
6.050732588e-16
5.981942268e-16
6.21368944e-16
6.353646341e-16
6.323628213e-16
6.126879483e-16
6.168929294e-16
6.268620875e-16
6.164222759e-16
6.252660396e-16
6.221312075e-16
6.152990998e-16
6.230506743e-16
6.298356781e-16
6.188753308e-16
6.237150115e-16
6.038381805e-16
6.337295804e-16
6.007647787e-16
5.981627566e-16
5.75181938e-16
5.948625562e-16
6.072296684e-16
6.052150046e-16
6.185200604e-16
5.753640378e-16
6.079284518e-16
5.946524218e-16
6.027701653e-16
6.268728097e-16
6.186143446e-16
5.596634504e-16
6.108635213e-16
6.019718391e-16
6.171291293e-16
5.675049986e-16
5.882299317e-16
6.197929033e-16
5.719232308e-16
6.078143693e-16
5.451852283e-16
6.004052001e-16
5.954529738e-16
6.501199124e-16
6.213413441e-16
5.06468111e-16
5.811415097e-16
6.370799786e-16
5.838711618e-16
5.639759595e-16
6.078457001e-16
5.375314919e-16
5.757277936e-16
5.807505067e-16
6.043260589e-16
5.773307744e-16
6.159020617e-16
5.805650488e-16
5.827364984e-16
5.726861855e-16
5.892935526e-16
4.473795117e-16
5.684089567e-16
5.670453563e-16
5.759272683e-16
5.491700267e-16
6.085760594e-16
5.737558506e-16
5.84384283e-16
6.012134262e-16
5.85143414e-16
5.634026017e-16
5.566643253e-16
5.611026878e-16
5.508515466e-16
5.210812829e-16
5.316897836e-16
5.793285496e-16
5.457013297e-16
5.543524116e-16
5.780500717e-16
5.302901014e-16
5.32404449e-16
5.435156087e-16
5.774598369e-16
6.195009298e-16
5.943382037e-16
6.087986399e-16
6.165253761e-16
6.332416032e-16
6.043478901e-16
6.18819022e-16
6.138376751e-16
6.213270571e-16
6.366937507e-16
6.097290302e-16
6.183277857e-16
6.188300003e-16
6.240153521e-16
6.262123909e-16
5.998529346e-16
6.033105345e-16
6.286658108e-16
6.115081755e-16
6.198833425e-16
6.012631854e-16
6.207984969e-16
6.25612221e-16
6.047930244e-16
6.303564479e-16
5.975155333e-16
6.145763148e-16
5.967228138e-16
6.280456069e-16
6.142250756e-16
6.102011606e-16
6.079534576e-16
6.065448646e-16
6.017679832e-16
6.007463201e-16
5.930867347e-16
5.807715113e-16
5.801501311e-16
6.001329506e-16
5.874902164e-16
5.556062444e-16
5.935498984e-16
5.618652691e-16
6.002403132e-16
5.612882844e-16
5.239633414e-16
6.002768976e-16
5.843031282e-16
5.912108144e-16
5.84260371e-16
6.001002822e-16
5.672994257e-16
5.84364796e-16
6.133446339e-16
5.972323775e-16
5.755777134e-16
5.992925443e-16
5.664095162e-16
5.767292506e-16
6.166743315e-16
4.728970135e-16
5.492911683e-16
6.220880688e-16
5.630809988e-16
5.904830535e-16
5.178168892e-16
5.481490935e-16
5.469021541e-16
5.437358856e-16
5.674723695e-16
5.397142263e-16
5.309763431e-16
5.887830635e-16
5.86691593e-16
5.530782796e-16
4.550543913e-16
5.497051782e-16
5.749919781e-16
5.459190274e-16
5.183237114e-16
5.386131441e-16
5.492319685e-16
5.159039602e-16
5.533670472e-16
5.936994841e-16
4.661256077e-16
4.625245586e-16
5.482167112e-16
4.720255633e-16
4.920906125e-16
6.535313206e-16
6.432082019e-16
6.626952939e-16
6.536161258e-16
6.66457996e-16
6.493898058e-16
6.535114131e-16
6.510393217e-16
6.53384379e-16
6.459648438e-16
6.563502525e-16
6.453731999e-16
6.385906775e-16
6.449481717e-16
6.448996111e-16
6.25797695e-16
6.496109897e-16
6.605615336e-16
6.297532581e-16
6.231533438e-16
6.474012437e-16
6.403419343e-16
6.558682675e-16
6.278646892e-16
6.18850298e-16
6.54407109e-16
6.475038033e-16
6.576352018e-16
6.548710409e-16
6.599573173e-16
6.500396527e-16
6.530177354e-16
6.55972855e-16
6.595251154e-16
6.588115342e-16
6.507400504e-16
6.529326791e-16
6.382912824e-16
6.477617547e-16
6.408923886e-16
6.515139252e-16
6.610021001e-16
6.695138296e-16
6.50923827e-16
6.586906379e-16
6.519670227e-16
6.158928607e-16
6.509044857e-16
6.433446737e-16
6.243112927e-16
6.436166095e-16
6.470622745e-16
6.391541247e-16
6.602761683e-16
6.506852772e-16
6.677875302e-16
6.501634025e-16
6.630119197e-16
6.499874464e-16
6.534612559e-16
6.661813418e-16
6.623874666e-16
6.831562605e-16
6.462726492e-16
6.524017255e-16
7.00641498e-16
6.523774923e-16
6.510684262e-16
6.485207572e-16
6.532576508e-16
6.362540442e-16
6.426475529e-16
6.40195093e-16
6.389373151e-16
6.182698123e-16
6.415327241e-16
6.379689512e-16
6.527759268e-16
6.337041024e-16
6.689845826e-16
6.574293304e-16
6.579092116e-16
6.571761036e-16
6.768923279e-16
6.409637955e-16
6.637679943e-16
6.750104389e-16
6.374024704e-16
6.459105478e-16
6.481016273e-16
6.461739293e-16
6.56615739e-16
6.610404635e-16
6.343570827e-16
6.339529951e-16
6.342522652e-16
6.388643972e-16
6.535832182e-16
6.287682368e-16
6.123759786e-16
6.452578704e-16
6.493026953e-16
6.46070587e-16
6.566327562e-16
6.599352068e-16
6.708020301e-16
6.486053047e-16
6.458152259e-16
6.540289334e-16
6.522957689e-16
6.501271859e-16
6.460844449e-16
6.513266656e-16
6.527528233e-16
6.581714486e-16
6.462689172e-16
6.359832552e-16
6.512132453e-16
6.542756651e-16
6.5131306e-16
6.49054749e-16
6.34400507e-16
6.381567131e-16
6.438912733e-16
6.149711764e-16
6.667473709e-16
6.477952801e-16
6.690205067e-16
6.519704881e-16
6.507345045e-16
6.923598162e-16
6.55486083e-16
6.830860808e-16
6.751728188e-16
6.59836516e-16
6.468844125e-16
6.730550823e-16
6.580072088e-16
6.505814842e-16
6.474781624e-16
6.351381984e-16
6.373363494e-16
6.625117156e-16
6.723546862e-16
6.305394305e-16
6.574797283e-16
6.587595974e-16
6.522362629e-16
6.652653794e-16
6.541841887e-16
6.467773941e-16
6.664904014e-16
6.515893039e-16
6.414595929e-16
6.562978306e-16
6.60982786e-16
6.452726441e-16
6.447598258e-16
6.658056789e-16
6.639043214e-16
6.871699554e-16
6.418669338e-16
6.528641906e-16
6.396439798e-16
6.491448456e-16
6.407036799e-16
6.921300255e-16
6.652076822e-16
6.70742525e-16
6.383213344e-16
6.764221672e-16
6.512869657e-16
6.379051434e-16
6.248498623e-16
6.137709268e-16
6.591586818e-16
6.451645414e-16
6.575350545e-16
6.548813249e-16
6.364736212e-16
6.323966754e-16
6.55111619e-16
6.467234109e-16
6.547590056e-16
6.497705873e-16
6.558637766e-16
6.558956658e-16
6.583260873e-16
6.487965902e-16
6.771291298e-16
6.441732282e-16
6.491340519e-16
6.544248787e-16
6.615419772e-16
6.496787505e-16
6.466888617e-16
6.409138963e-16
6.520129751e-16
6.445182734e-16
6.344432915e-16
6.599172657e-16
6.599266681e-16
6.507813794e-16
6.461416565e-16
6.626382627e-16
6.470141955e-16
6.448927951e-16
6.473027228e-16
6.617467466e-16
6.442364015e-16
6.489560878e-16
6.485475039e-16