/*--------------------------------*- C++ -*----------------------------------*\
| =========                 |                                                 |
| \\      /  F ield         | OpenFOAM: The Open Source CFD Toolbox           |
|  \\    /   O peration     | Version:  v1706                                 |
|   \\  /    A nd           | Web:      www.OpenFOAM.com                      |
|    \\/     M anipulation  |                                                 |
\*---------------------------------------------------------------------------*/
FoamFile
{
    version     2.0;
    format      ascii;
    class       volScalarField;
    location    "0.003";
    object      dsmcSigmaTcRMax;
}
// * * * * * * * * * * * * * * * * * * * * * * * * * * * * * * * * * * * * * //

dimensions      [0 3 -1 0 0 0 0];


internalField   nonuniform List<scalar> 
9720
(
6.356392479e-16
6.430183702e-16
6.633576736e-16
6.653374941e-16
6.467165474e-16
6.417614376e-16
6.498471038e-16
6.407082958e-16
6.615142304e-16
6.505555796e-16
6.216705592e-16
6.636013542e-16
6.422983676e-16
6.411677584e-16
6.377962381e-16
6.247423617e-16
6.297619742e-16
6.557226132e-16
6.466209305e-16
6.501977791e-16
6.156941716e-16
6.281571563e-16
6.339138869e-16
6.338114927e-16
6.524144089e-16
6.305139935e-16
6.212822398e-16
6.315728305e-16
6.378279102e-16
6.269559663e-16
6.741446177e-16
6.348790967e-16
6.202250555e-16
6.370958398e-16
6.566302433e-16
6.067974205e-16
6.109400159e-16
6.179127215e-16
6.355789436e-16
6.351763896e-16
6.227758969e-16
6.41604365e-16
6.515869288e-16
6.519259411e-16
6.379170719e-16
6.246612263e-16
6.199444603e-16
6.322828426e-16
6.231860398e-16
6.538717987e-16
6.378792476e-16
6.351525083e-16
6.37922116e-16
6.509595469e-16
6.496615687e-16
6.415163663e-16
6.035415153e-16
6.083993914e-16
6.358062944e-16
6.344872411e-16
6.065645975e-16
6.012115784e-16
6.328089208e-16
6.393235e-16
6.300667016e-16
6.073598601e-16
6.377945939e-16
6.866768256e-16
6.260236992e-16
6.363675948e-16
6.034032781e-16
6.131725232e-16
6.012143163e-16
6.278560127e-16
6.412994197e-16
5.692635624e-16
6.505109458e-16
6.402548316e-16
6.438357267e-16
6.35029541e-16
6.205768254e-16
6.119741963e-16
6.372847165e-16
6.47849839e-16
6.485218382e-16
5.733433865e-16
6.149722592e-16
6.132925353e-16
6.463422866e-16
6.324440831e-16
6.323017667e-16
6.316744888e-16
6.38730792e-16
6.320420678e-16
6.547442661e-16
6.344023159e-16
6.560895509e-16
6.589314347e-16
6.564736024e-16
6.418401438e-16
6.280866156e-16
6.294358335e-16
6.482356807e-16
6.334248766e-16
6.44728579e-16
6.176895646e-16
6.234104042e-16
6.464064477e-16
6.424951249e-16
6.550469636e-16
6.360810198e-16
6.437335846e-16
6.312421419e-16
6.539156103e-16
6.628538088e-16
6.305026352e-16
6.089114979e-16
6.321553329e-16
6.334121565e-16
6.325920389e-16
6.22123675e-16
6.460005996e-16
6.48806085e-16
6.499047494e-16
6.412843348e-16
6.44245195e-16
6.468394635e-16
6.306402832e-16
6.338999535e-16
6.459647287e-16
6.219700081e-16
6.231409551e-16
6.486998436e-16
6.276636799e-16
6.420310591e-16
6.158643206e-16
6.286329022e-16
6.390072581e-16
6.298612351e-16
6.4684058e-16
6.211027715e-16
6.47877537e-16
6.20058296e-16
6.357464102e-16
6.284826307e-16
6.248618082e-16
6.052667882e-16
6.311574347e-16
6.278629081e-16
6.356415204e-16
5.94449372e-16
6.126316806e-16
6.429803539e-16
6.372410845e-16
6.622855352e-16
6.166458181e-16
6.142555508e-16
6.598004774e-16
6.324039027e-16
6.359905554e-16
6.066634935e-16
6.494553426e-16
6.365437291e-16
6.691241341e-16
6.518796271e-16
6.189918564e-16
6.075542485e-16
6.201885827e-16
6.384052237e-16
6.274386853e-16
6.005637154e-16
6.360622624e-16
6.145425136e-16
6.217080027e-16
6.319339141e-16
5.886720069e-16
6.385623654e-16
5.971560689e-16
6.361752628e-16
6.289901889e-16
6.383440747e-16
6.378046599e-16
6.524637558e-16
6.383177897e-16
6.590713646e-16
6.351247203e-16
6.496174414e-16
6.461119474e-16
6.470088048e-16
6.594922218e-16
6.401850332e-16
6.447454117e-16
6.300297822e-16
6.397923832e-16
6.478310159e-16
6.046870516e-16
6.325334325e-16
6.213322643e-16
6.35065922e-16
6.286476165e-16
6.15014473e-16
6.335596392e-16
6.385493551e-16
6.318057541e-16
6.337099026e-16
6.161036121e-16
6.126258256e-16
6.458253728e-16
6.402393131e-16
6.426921045e-16
6.157172439e-16
6.451331942e-16
6.346432084e-16
6.727603142e-16
6.398660805e-16
6.124520912e-16
6.373809281e-16
6.412075227e-16
6.329014266e-16
6.339873964e-16
6.293459084e-16
6.244417037e-16
6.496867006e-16
6.318184573e-16
6.400758742e-16
6.087328952e-16
6.209771238e-16
6.27979795e-16
6.22682264e-16
6.340456e-16
6.140771973e-16
6.262553272e-16
6.321691202e-16
6.208052094e-16
6.31157808e-16
6.142326496e-16
6.237171595e-16
6.165742457e-16
6.412436989e-16
6.443079563e-16
6.096140387e-16
6.155770006e-16
6.250921474e-16
6.446313302e-16
6.261210935e-16
6.173637864e-16
6.052200317e-16
6.178441835e-16
6.287201751e-16
6.351831787e-16
5.978563915e-16
6.268027127e-16
6.152720961e-16
6.152447641e-16
6.328117877e-16
6.240337329e-16
6.229783782e-16
6.203608437e-16
6.207105029e-16
6.267346282e-16
6.323072548e-16
6.007434911e-16
6.051231162e-16
6.197854734e-16
6.293011649e-16
6.015493227e-16
6.221306662e-16
6.440914746e-16
6.244295793e-16
6.361882978e-16
6.202209771e-16
6.503080745e-16
6.425700447e-16
6.259427406e-16
6.631914622e-16
6.382938986e-16
6.434206744e-16
6.270131008e-16
6.352456852e-16
6.586387245e-16
6.559523199e-16
6.238133068e-16
6.307812511e-16
6.43026775e-16
6.43393749e-16
6.176227731e-16
6.277759286e-16
6.284550092e-16
6.334400894e-16
6.377727427e-16
6.269061724e-16
6.218481108e-16
6.262362069e-16
6.562330466e-16
6.219095949e-16
6.737926598e-16
6.150929068e-16
6.169023599e-16
6.387472748e-16
6.184184118e-16
6.010609893e-16
6.156030389e-16
6.552170791e-16
6.350059418e-16
6.390929956e-16
6.007446412e-16
6.3024963e-16
6.265938687e-16
6.258664859e-16
6.460640412e-16
6.192453517e-16
6.347849677e-16
6.270479487e-16
6.454210276e-16
6.207186821e-16
6.26223887e-16
6.466321077e-16
6.31034507e-16
6.286227802e-16
6.312918494e-16
6.336573176e-16
6.404074019e-16
6.213498936e-16
6.404892652e-16
6.254010735e-16
6.358646079e-16
6.151284334e-16
6.278244847e-16
6.205821833e-16
6.369378975e-16
6.050582852e-16
6.212621782e-16
6.234512741e-16
6.180110879e-16
6.321187541e-16
6.305860347e-16
6.110962697e-16
6.082338518e-16
6.204684556e-16
6.347977779e-16
5.91463368e-16
6.1183144e-16
6.145901952e-16
6.268201754e-16
6.101333942e-16
6.342878723e-16
6.108142757e-16
6.174709506e-16
6.230695278e-16
6.246568691e-16
6.311569344e-16
6.542542962e-16
5.995948953e-16
6.186343926e-16
6.355391007e-16
5.968947132e-16
6.298843858e-16
6.294429148e-16
6.204138172e-16
6.073474819e-16
6.202689028e-16
6.278878789e-16
6.337853794e-16
6.372102314e-16
6.449332923e-16
6.258348884e-16
6.277809587e-16
6.329605719e-16
6.414033802e-16
6.350008633e-16
6.215606616e-16
6.457225952e-16
6.361738818e-16
6.484505105e-16
6.586379456e-16
6.176183977e-16
6.401027734e-16
6.515152284e-16
6.389407772e-16
6.342536935e-16
6.178856502e-16
6.100292695e-16
6.454985361e-16
6.24809011e-16
6.52335144e-16
6.551746196e-16
6.628917732e-16
6.253906401e-16
6.230984035e-16
6.512590089e-16
6.145078517e-16
6.273969708e-16
6.192862234e-16
6.387067956e-16
6.334178892e-16
6.248768945e-16
6.338960647e-16
6.218890552e-16
6.506371062e-16
6.207150247e-16
6.513031187e-16
6.343497904e-16
6.065716505e-16
6.244515053e-16
6.390059974e-16
6.004651387e-16
5.957122806e-16
6.253172312e-16
6.601272487e-16
6.283695651e-16
6.247734955e-16
6.144754128e-16
6.085596195e-16
6.093334606e-16
6.25294834e-16
5.995829281e-16
6.182068729e-16
6.231736506e-16
6.124675813e-16
6.123121628e-16
6.039013932e-16
6.0987571e-16
6.150004195e-16
6.157467862e-16
6.318683661e-16
6.121981391e-16
6.446198493e-16
6.118472022e-16
6.126405636e-16
6.256630432e-16
5.986186137e-16
6.625307719e-16
6.174501052e-16
6.149935385e-16
6.240422808e-16
6.057560667e-16
5.961662643e-16
6.250743309e-16
6.416394e-16
5.992641894e-16
6.101290477e-16
6.116985731e-16
6.045764412e-16
6.075914789e-16
6.201930286e-16
5.815227619e-16
6.060881828e-16
5.95078583e-16
6.005592821e-16
6.210736426e-16
6.170155085e-16
6.300630033e-16
6.364325879e-16
6.213704472e-16
6.349682132e-16
6.510990661e-16
6.21315293e-16
6.382638206e-16
6.478335198e-16
6.558320058e-16
6.31191279e-16
6.164049626e-16
6.301333805e-16
6.330763124e-16
6.370960737e-16
6.542256781e-16
6.171788368e-16
6.360598532e-16
6.209105369e-16
6.263731226e-16
6.285165791e-16
6.198155285e-16
6.44670001e-16
6.255472034e-16
6.312233235e-16
6.128434479e-16
6.417029224e-16
6.396482308e-16
6.367516238e-16
6.403931686e-16
6.405973943e-16
6.377917655e-16
6.142844666e-16
6.26781471e-16
6.156749916e-16
6.071241208e-16
6.170030176e-16
6.241744042e-16
6.251477543e-16
6.307586516e-16
6.0717709e-16
6.290792879e-16
6.11680479e-16
6.207033359e-16
6.389792059e-16
6.099542983e-16
6.07300254e-16
6.196210402e-16
6.148116976e-16
6.205315781e-16
6.277481653e-16
6.214213342e-16
6.254675309e-16
6.168240718e-16
6.184538777e-16
6.269232925e-16
5.993307182e-16
6.04031828e-16
6.096577529e-16
6.306540908e-16
6.07364283e-16
6.082475809e-16
6.153727043e-16
6.475861663e-16
6.206677817e-16
6.120741447e-16
6.082140313e-16
6.191800013e-16
6.155573224e-16
6.191929252e-16
6.006837958e-16
5.980662463e-16
5.948409386e-16
6.544923299e-16
6.024545339e-16
5.835093069e-16
6.092617831e-16
6.10336181e-16
6.383456754e-16
6.150391045e-16
5.997171746e-16
6.000771346e-16
6.024327061e-16
6.353765502e-16
6.235647319e-16
5.798644496e-16
6.105254411e-16
6.232874142e-16
6.134516637e-16
6.217872453e-16
6.080546851e-16
6.334517779e-16
6.292836414e-16
6.375429834e-16
6.357048218e-16
6.322139881e-16
6.325045933e-16
6.298950413e-16
6.306152831e-16
6.36837767e-16
6.340581531e-16
6.212648756e-16
6.20849438e-16
6.342666696e-16
6.458362666e-16
6.061783953e-16
6.217233361e-16
6.24421428e-16
6.19112914e-16
6.294498669e-16
6.001646606e-16
6.263934032e-16
6.33071312e-16
6.586457486e-16
6.184259015e-16
6.259333573e-16
6.144620099e-16
6.108378927e-16
6.345960955e-16
6.167456498e-16
6.124376388e-16
6.230084641e-16
6.41401327e-16
6.19006513e-16
6.333542788e-16
6.237555536e-16
6.055471335e-16
6.247892782e-16
6.304895679e-16
6.17502601e-16
6.133642605e-16
6.14627932e-16
6.368861034e-16
6.211956932e-16
6.003114034e-16
5.890688705e-16
6.135190189e-16
6.135542012e-16
6.263032519e-16
6.199961759e-16
6.340602681e-16
6.203783038e-16
6.073074101e-16
6.136212384e-16
6.16132372e-16
5.735598275e-16
5.891545714e-16
6.425753246e-16
6.532230174e-16
5.931139498e-16
5.84508489e-16
6.105302016e-16
6.065504766e-16
5.986319517e-16
6.271484539e-16
6.220552314e-16
5.917588679e-16
6.238047645e-16
6.112420979e-16
6.069103292e-16
6.206064877e-16
5.97541843e-16
6.151203068e-16
5.993493217e-16
6.12800961e-16
5.788162368e-16
5.820123471e-16
6.110002518e-16
5.83144046e-16
6.089295879e-16
5.98524208e-16
6.190622398e-16
5.768178192e-16
5.912948669e-16
5.817922013e-16
5.913733385e-16
5.96821186e-16
6.013393157e-16
5.996824637e-16
6.128243558e-16
6.192437589e-16
6.239119398e-16
6.457031935e-16
6.308099974e-16
6.619536134e-16
6.226296085e-16
6.277963473e-16
6.29392965e-16
6.272815849e-16
6.566432859e-16
6.171188888e-16
6.335483396e-16
6.18718245e-16
6.215866824e-16
6.216643469e-16
6.240178744e-16
6.387775011e-16
6.589129135e-16
6.252669211e-16
6.227620108e-16
6.203171214e-16
6.175270912e-16
6.412978757e-16
6.167091986e-16
6.164994829e-16
6.246085375e-16
6.400829827e-16
6.45036176e-16
6.373939283e-16
6.161581753e-16
6.016628618e-16
6.057152187e-16
6.174539179e-16
6.172342422e-16
6.223129477e-16
6.090003923e-16
6.301946821e-16
6.213702764e-16
6.109876705e-16
6.427059607e-16
5.902110505e-16
6.272752256e-16
5.891273636e-16
6.203161707e-16
6.161364993e-16
6.303744725e-16
6.202308116e-16
6.237595761e-16
6.280035651e-16
6.043730426e-16
5.933657191e-16
5.864003288e-16
5.912232668e-16
6.245189928e-16
5.960483608e-16
5.889651029e-16
5.862585086e-16
5.951698472e-16
5.965822868e-16
6.056360429e-16
6.199525244e-16
5.981202015e-16
6.11106652e-16
6.003896249e-16
5.845047229e-16
5.915388474e-16
6.05536477e-16
5.899194858e-16
6.019092755e-16
6.002189478e-16
6.210017356e-16
5.974329713e-16
6.028127377e-16
5.914566092e-16
6.09593977e-16
6.301248901e-16
6.088326704e-16
5.706766315e-16
6.437883665e-16
5.974510352e-16
5.805626248e-16
5.877588683e-16
6.081074101e-16
5.8257181e-16
5.727350825e-16
5.732871495e-16
5.969960957e-16
6.073603916e-16
5.932326473e-16
5.952377968e-16
6.098146675e-16
6.222905987e-16
6.297726726e-16
6.442296096e-16
6.419192168e-16
6.178837214e-16
6.081800092e-16
6.405746203e-16
6.367708515e-16
6.437293553e-16
6.159996026e-16
6.190408946e-16
6.417624505e-16
6.45398296e-16
6.371612016e-16
6.419655876e-16
6.152018481e-16
6.164802306e-16
6.35466272e-16
6.410548627e-16
6.082421143e-16
6.11044902e-16
6.098312633e-16
6.018692395e-16
6.343385802e-16
5.945825318e-16
6.316761181e-16
6.070452529e-16
6.379984342e-16
6.306435616e-16
5.880355366e-16
6.2865283e-16
6.452478317e-16
5.95875659e-16
6.159528256e-16
5.94308122e-16
6.254948119e-16
6.051951751e-16
5.978917889e-16
6.268170543e-16
6.201854545e-16
6.201686783e-16
6.053531382e-16
6.097598256e-16
6.107124931e-16
6.2046382e-16
5.930912937e-16
6.084793333e-16
5.990435887e-16
5.968106179e-16
5.745325272e-16
5.997721453e-16
5.980065434e-16
6.086058285e-16
6.1920132e-16
5.879561588e-16
6.029374446e-16
6.349225156e-16
5.995514416e-16
6.030741005e-16
6.204987084e-16
5.875926404e-16
6.044060207e-16
6.086873792e-16
6.188698864e-16
5.838992421e-16
5.826588147e-16
6.083237156e-16
6.055594134e-16
6.061949319e-16
6.007490802e-16
5.954682772e-16
5.956031434e-16
6.164993034e-16
5.868039049e-16
5.994649752e-16
5.861078852e-16
5.88619846e-16
6.06613094e-16
6.08008214e-16
5.470533218e-16
5.939040861e-16
5.960541795e-16
6.026855155e-16
6.059936824e-16
6.06212508e-16
6.085443845e-16
5.911902353e-16
6.062576411e-16
5.970289556e-16
6.156919933e-16
6.454665342e-16
6.280881679e-16
6.270061623e-16
6.643019175e-16
6.18125814e-16
6.341361855e-16
6.448304873e-16
6.464908211e-16
6.345054268e-16
6.117124876e-16
6.219347469e-16
6.270178046e-16
6.295364873e-16
6.309671833e-16
6.283841861e-16
6.321810034e-16
6.458144716e-16
6.364491276e-16
6.458587882e-16
6.205004014e-16
6.07281134e-16
6.102209629e-16
6.007735803e-16
6.315941265e-16
6.322481097e-16
6.073979497e-16
6.117614847e-16
6.352941259e-16
6.423375923e-16
5.908274126e-16
6.046458419e-16
6.098803266e-16
6.156596382e-16
6.448904163e-16
5.944224084e-16
6.101346836e-16
6.263731312e-16
6.035789825e-16
6.003628879e-16
6.307804487e-16
6.382072827e-16
6.043447549e-16
6.027880255e-16
6.112533554e-16
6.379367414e-16
6.14635839e-16
5.979330864e-16
6.136250698e-16
6.016754175e-16
5.992538731e-16
6.159089619e-16
6.355622383e-16
6.109762348e-16
6.067806484e-16
5.962937435e-16
5.647430422e-16
6.238192605e-16
5.868222669e-16
6.054736238e-16
5.8565518e-16
5.998196662e-16
6.077517909e-16
6.359313591e-16
6.099510835e-16
5.795757406e-16
5.688300837e-16
6.016326248e-16
6.033481e-16
6.070659945e-16
5.964494332e-16
6.050320693e-16
5.858437024e-16
5.883792225e-16
5.885463831e-16
5.673549255e-16
5.994971397e-16
5.689154854e-16
5.906904601e-16
6.107167161e-16
5.896863186e-16
6.023507894e-16
5.898019472e-16
6.104456239e-16
5.929247203e-16
5.86667988e-16
6.083823893e-16
6.17173487e-16
5.806256069e-16
5.684337676e-16
6.11213202e-16
6.469815379e-16
6.263459606e-16
6.402041906e-16
6.293612943e-16
6.206929881e-16
6.176930048e-16
6.300234881e-16
6.345755835e-16
6.322044878e-16
6.256523579e-16
6.262807867e-16
6.274678875e-16
6.147014839e-16
6.31245116e-16
6.241397261e-16
6.215325432e-16
6.293607389e-16
6.284532192e-16
6.155526916e-16
6.165420002e-16
6.231374773e-16
6.23261e-16
6.075382328e-16
6.140134835e-16
6.063938338e-16
6.152829604e-16
6.112699521e-16
6.203247468e-16
6.236811523e-16
6.010331621e-16
6.025744226e-16
6.079120687e-16
6.081251046e-16
6.340219287e-16
6.061415215e-16
6.048439723e-16
6.258342199e-16
6.042835037e-16
6.045451252e-16
6.286268498e-16
6.078324361e-16
5.981895243e-16
5.958713091e-16
6.385684765e-16
6.307775392e-16
5.993220751e-16
6.031866687e-16
5.8565245e-16
6.072668796e-16
5.909308547e-16
6.050104049e-16
5.674805227e-16
6.028705911e-16
6.070829258e-16
5.8426982e-16
5.788318221e-16
5.768017822e-16
6.103407297e-16
6.274775494e-16
5.565658978e-16
5.811117492e-16
5.823715074e-16
6.002457849e-16
6.058641925e-16
5.847948124e-16
5.506381979e-16
5.776938772e-16
5.754258296e-16
5.878780334e-16
5.698696923e-16
5.891210978e-16
5.916170748e-16
6.104641533e-16
5.915332897e-16
5.644687034e-16
5.777299237e-16
5.86692812e-16
5.869158613e-16
5.807859015e-16
5.649630186e-16
6.034809578e-16
5.735947472e-16
6.170631053e-16
5.890858241e-16
6.078653145e-16
6.00194362e-16
5.956501991e-16
5.934120304e-16
6.051336479e-16
6.221409204e-16
6.351976846e-16
6.480572406e-16
6.438711359e-16
6.37111815e-16
6.354069314e-16
6.339426917e-16
6.363816069e-16
6.357066984e-16
6.52324713e-16
6.394321211e-16
6.134846776e-16
6.365557272e-16
6.369112956e-16
6.376109056e-16
6.102035223e-16
6.370397668e-16
6.094431393e-16
6.200309403e-16
6.275251116e-16
6.15066969e-16
6.219593395e-16
6.292670888e-16
6.170781019e-16
6.294116935e-16
6.175948627e-16
6.126948483e-16
6.125665287e-16
6.184381396e-16
6.118502022e-16
6.35623631e-16
6.259094296e-16
6.050653889e-16
6.157508295e-16
6.184870185e-16
6.165058017e-16
5.885044732e-16
5.980958383e-16
6.10832374e-16
6.365721327e-16
5.685614619e-16
6.185233075e-16
5.768981984e-16
6.027942218e-16
6.153495619e-16
6.088095346e-16
5.911409552e-16
5.860606755e-16
6.451840108e-16
6.044308869e-16
5.361494456e-16
5.969775338e-16
5.896580089e-16
6.307655116e-16
6.068909439e-16
5.964216903e-16
5.882628343e-16
5.915312906e-16
6.151049617e-16
5.919834355e-16
5.874085341e-16
5.866250474e-16
6.453325933e-16
5.909325748e-16
6.131293906e-16
5.427378802e-16
6.117052135e-16
6.178196192e-16
5.666692525e-16
5.855238767e-16
5.408432386e-16
5.582153204e-16
5.643422786e-16
6.159073656e-16
6.016092538e-16
5.802201794e-16
5.913215264e-16
6.116882203e-16
5.720607849e-16
5.864397632e-16
5.643498319e-16
6.076107026e-16
6.058356357e-16
5.921825895e-16
5.709181862e-16
5.695241521e-16
5.706132208e-16
6.118677124e-16
5.942956156e-16
5.967292047e-16
6.151134194e-16
6.276679276e-16
6.265512621e-16
6.370026466e-16
6.423002641e-16
6.214157646e-16
6.196050517e-16
6.423039982e-16
6.429696519e-16
6.225117601e-16
5.974240183e-16
6.224023083e-16
6.318191656e-16
6.206720131e-16
6.153206636e-16
5.97761627e-16
6.165617645e-16
6.069867927e-16
6.210389028e-16
6.236766279e-16
6.079367456e-16
6.280087025e-16
6.5805152e-16
6.09946804e-16
6.283039632e-16
6.163955372e-16
6.031051574e-16
6.012420012e-16
6.02690958e-16
6.207709559e-16
6.541288273e-16
5.8708922e-16
6.18877576e-16
6.637751558e-16
6.101640059e-16
5.732645348e-16
6.035507458e-16
6.08716416e-16
6.008838132e-16
5.932562821e-16
5.944490779e-16
6.012696771e-16
6.010215011e-16
6.100250344e-16
6.010608642e-16
6.008054794e-16
6.140842533e-16
6.514285698e-16
6.188834608e-16
5.929591511e-16
6.047307933e-16
6.071903579e-16
5.982109624e-16
6.177435395e-16
5.901502983e-16
6.093486336e-16
5.719797448e-16
5.985208887e-16
5.749260331e-16
5.853645531e-16
5.481822399e-16
5.377894454e-16
5.770440121e-16
5.766045207e-16
6.155441248e-16
6.236925118e-16
4.94673175e-16
5.946768139e-16
5.758386331e-16
6.272471415e-16
5.869844682e-16
5.920696076e-16
5.874036679e-16
5.830039151e-16
5.874077596e-16
5.475626879e-16
5.975914045e-16
6.029851316e-16
6.006057782e-16
5.714183095e-16
4.50245313e-16
5.667727119e-16
5.721223175e-16
5.454453321e-16
5.837041376e-16
4.987424845e-16
5.928001442e-16
5.861076736e-16
5.718994155e-16
5.931869579e-16
6.137582328e-16
6.480027898e-16
6.49641832e-16
6.489810621e-16
6.379831305e-16
6.117091984e-16
6.073952832e-16
6.323201256e-16
6.224191475e-16
6.29145733e-16
6.187420841e-16
6.604688546e-16
6.24455963e-16
6.214772599e-16
6.607089164e-16
6.120238727e-16
6.200794045e-16
6.259680929e-16
6.338433166e-16
6.359821332e-16
6.094155586e-16
6.087569095e-16
6.211185622e-16
6.081452308e-16
6.30416474e-16
6.521244226e-16
6.008194903e-16
6.422024331e-16
6.1842987e-16
6.139724394e-16
6.063129466e-16
5.900673726e-16
5.926427666e-16
6.191531029e-16
6.14481405e-16
5.977902835e-16
5.957042618e-16
6.133006309e-16
5.936660139e-16
6.106449736e-16
6.016891682e-16
6.35366868e-16
5.838806995e-16
5.824819664e-16
5.780414105e-16
5.794267757e-16
6.212486504e-16
5.853903211e-16
6.111214853e-16
6.038736204e-16
5.980020336e-16
5.92014726e-16
6.128664962e-16
6.049742491e-16
5.905998151e-16
5.71928313e-16
5.650220305e-16
5.892788204e-16
5.761632139e-16
5.959780662e-16
5.612408864e-16
6.06110166e-16
5.940012995e-16
5.830394727e-16
6.047702834e-16
5.922569481e-16
5.644432871e-16
6.117291122e-16
5.938353646e-16
6.078659789e-16
5.767064681e-16
5.97112494e-16
5.336584789e-16
5.581500981e-16
5.798917336e-16
5.313941599e-16
5.962741025e-16
5.796809892e-16
6.030759522e-16
5.768643341e-16
5.885361333e-16
5.4855702e-16
5.413225542e-16
5.954906387e-16
5.691204075e-16
5.302365265e-16
5.162927383e-16
5.694877565e-16
5.415225847e-16
5.801876827e-16
6.148212312e-16
6.323775889e-16
6.238935575e-16
6.228740703e-16
6.42756525e-16
5.75120578e-16
6.0060419e-16
6.196583144e-16
6.461276705e-16
6.537447325e-16
6.131272351e-16
6.193264604e-16
6.187183843e-16
6.444041352e-16
6.221368184e-16
6.190151207e-16
6.211052448e-16
6.123822832e-16
6.141230296e-16
6.107697155e-16
5.900562526e-16
6.059077164e-16
6.084259141e-16
6.18307369e-16
6.05043444e-16
6.101674512e-16
5.986478177e-16
6.063822039e-16
5.992003193e-16
6.176034143e-16
5.882113687e-16
6.111355863e-16
6.173599798e-16
5.877031416e-16
6.117135439e-16
5.668362379e-16
6.092073855e-16
5.827925963e-16
5.961797431e-16
6.021506288e-16
5.699723919e-16
6.063511906e-16
6.194554184e-16
6.038186036e-16
6.251452704e-16
5.703068088e-16
5.992949874e-16
6.041700915e-16
5.857729086e-16
6.377807509e-16
6.036679444e-16
5.968811276e-16
5.872696953e-16
5.726433553e-16
6.061856095e-16
6.112548491e-16
5.768217213e-16
5.997643532e-16
5.535321793e-16
6.017195316e-16
5.995251345e-16
5.636001562e-16
5.993652439e-16
5.851084258e-16
6.134174377e-16
5.623189955e-16
5.546190602e-16
5.98308349e-16
5.928959264e-16
5.757389383e-16
5.790814062e-16
5.864338643e-16
6.097917951e-16
5.798401808e-16
5.76550219e-16
5.671332347e-16
4.668420397e-16
5.890583443e-16
6.010072167e-16
5.71671603e-16
5.274030406e-16
5.760047101e-16
5.782732507e-16
5.506701824e-16
5.690970147e-16
5.727542179e-16
5.656891259e-16
5.626185478e-16
4.822422113e-16
5.429886171e-16
6.080307899e-16
6.111067003e-16
6.365226606e-16
6.217145901e-16
6.440013642e-16
5.95823933e-16
6.313597735e-16
6.484987326e-16
6.385612884e-16
6.344009734e-16
5.890066394e-16
6.009341259e-16
6.298327995e-16
6.28777001e-16
6.294786568e-16
6.130054242e-16
6.081356096e-16
6.610601847e-16
6.436684251e-16
6.169125682e-16
6.161676727e-16
6.208657788e-16
6.500758762e-16
6.064623764e-16
6.261069045e-16
5.894926461e-16
6.304296847e-16
6.0306727e-16
6.1909011e-16
5.930029551e-16
5.99403064e-16
6.16203629e-16
6.002947072e-16
6.029296497e-16
6.081639141e-16
5.883094244e-16
6.057084195e-16
6.042897082e-16
6.048420164e-16
5.945696285e-16
6.051388517e-16
5.788891936e-16
5.991125942e-16
6.112422288e-16
6.150174839e-16
6.087715378e-16
5.79556255e-16
5.883622736e-16
5.966405228e-16
5.889229122e-16
5.832104668e-16
5.980159379e-16
5.754200414e-16
5.941812667e-16
5.974058004e-16
5.763968503e-16
5.909236364e-16
5.570883527e-16
5.843968286e-16
5.757620323e-16
5.738929076e-16
6.405011285e-16
5.93787759e-16
5.813992491e-16
5.548853178e-16
5.329308091e-16
6.222021627e-16
5.804550945e-16
5.717086016e-16
5.733639401e-16
5.967389335e-16
5.620926839e-16
5.916668693e-16
5.556441591e-16
5.675156595e-16
5.770880071e-16
5.06156135e-16
5.590136168e-16
6.016884191e-16
5.836034817e-16
4.606004818e-16
5.769557049e-16
6.144002196e-16
5.911861225e-16
5.425413443e-16
5.485624866e-16
5.055381065e-16
5.546388193e-16
5.150576923e-16
5.432882683e-16
5.822356908e-16
5.938669969e-16
6.080799095e-16
6.229249234e-16
6.247269338e-16
6.23165056e-16
6.343072054e-16
6.460304726e-16
6.186002201e-16
6.263322918e-16
5.971506685e-16
6.254032217e-16
6.371648235e-16
6.303471342e-16
6.196822818e-16
5.936973983e-16
6.255531969e-16
6.067054855e-16
6.134573421e-16
6.451658546e-16
5.956509562e-16
6.215744845e-16
6.282849716e-16
6.069554674e-16
6.043681646e-16
6.36077508e-16
6.09751051e-16
6.12474322e-16
5.955779487e-16
6.148735787e-16
6.022706657e-16
5.725053338e-16
6.044999983e-16
6.034800079e-16
6.26293405e-16
6.057833181e-16
6.0153005e-16
6.001374452e-16
6.23565192e-16
5.901648116e-16
5.857986969e-16
5.871131983e-16
5.795613918e-16
6.008005747e-16
6.326845493e-16
5.803588858e-16
5.781799971e-16
6.119385942e-16
5.812329582e-16
5.79760982e-16
5.347364414e-16
6.014518485e-16
6.277276458e-16
5.495513565e-16
5.959453032e-16
5.571955665e-16
6.022959498e-16
5.932466913e-16
5.608759674e-16
5.920023236e-16
6.248639938e-16
5.768257763e-16
5.572514532e-16
6.136789525e-16
5.800415086e-16
4.956328076e-16
5.331280772e-16
5.587129544e-16
5.503668921e-16
5.93898208e-16
5.967762631e-16
6.222418011e-16
5.74168155e-16
4.75410624e-16
5.511653033e-16
5.731829079e-16
5.419245152e-16
5.48430236e-16
5.389702084e-16
5.430854724e-16
4.550527398e-16
5.122917113e-16
5.802307541e-16
5.612129954e-16
5.824938445e-16
5.559574166e-16
5.772090455e-16
5.502583939e-16
5.530447567e-16
5.149498748e-16
5.952072311e-16
6.089167024e-16
6.398522617e-16
6.217141914e-16
6.329710378e-16
6.189906792e-16
6.496438475e-16
6.199984904e-16
6.360947432e-16
6.310324462e-16
6.281445461e-16
6.537861158e-16
6.092941079e-16
6.204666883e-16
6.389994137e-16
6.313527536e-16
6.204920766e-16
5.891977345e-16
6.076887429e-16
6.186593344e-16
6.252941169e-16
5.89142157e-16
6.140446098e-16
5.965525281e-16
6.183410836e-16
6.015480861e-16
6.006905995e-16
5.961981065e-16
6.135425418e-16
6.075427589e-16
6.013597472e-16
5.927598462e-16
5.843234282e-16
6.24274712e-16
6.005388612e-16
5.720144945e-16
5.817685392e-16
6.05479953e-16
6.05919698e-16
6.012328605e-16
6.133435209e-16
5.632746967e-16
5.617500989e-16
5.891173934e-16
5.825557729e-16
5.727884547e-16
5.824447027e-16
5.946585154e-16
5.674672678e-16
5.944148335e-16
5.971189776e-16
5.799724453e-16
5.82591819e-16
5.786189315e-16
5.627898808e-16
5.599927713e-16
6.092878471e-16
5.872403478e-16
5.988354856e-16
5.673158544e-16
5.845615364e-16
5.618469669e-16
5.641452173e-16
5.720867704e-16
5.760378284e-16
5.81190884e-16
5.872276569e-16
5.639985584e-16
5.704407761e-16
5.772762557e-16
6.235121178e-16
5.753028107e-16
5.788494689e-16
6.254469751e-16
6.058241293e-16
5.615080094e-16
5.696061953e-16
5.37618645e-16
5.127032163e-16
5.77582203e-16
5.564319037e-16
5.605102327e-16
5.519189668e-16
5.862710571e-16
5.791754917e-16
4.684676666e-16
5.76146677e-16
5.474907938e-16
5.091714532e-16
5.768544636e-16
6.50025097e-16
6.776214392e-16
6.723798785e-16
6.699492008e-16
6.540843125e-16
6.740598843e-16
6.639198221e-16
6.573434147e-16
6.529492499e-16
6.655438514e-16
6.511575785e-16
6.563432778e-16
6.562443042e-16
6.476137753e-16
6.411544329e-16
6.466413947e-16
6.55966996e-16
6.364901105e-16
6.391981443e-16
6.274660166e-16
6.341957345e-16
6.333018844e-16
6.336776099e-16
6.251899467e-16
6.221705706e-16
6.849811521e-16
6.606225367e-16
6.673042924e-16
6.480560646e-16
6.89977617e-16
6.406278781e-16
6.674324129e-16
6.462684688e-16
6.547161328e-16
6.578902503e-16
6.400835117e-16
6.412078058e-16
6.497002469e-16
6.779709948e-16
6.336370613e-16
6.480209238e-16
6.559162689e-16
6.397843021e-16
6.3741021e-16
6.413777259e-16
6.368410516e-16
6.355617903e-16
6.419469259e-16
6.244495367e-16
6.145966882e-16
6.410777858e-16
6.474740701e-16
6.582921799e-16
6.524762593e-16
6.637866977e-16
6.369518561e-16
6.896890613e-16
6.526376351e-16
6.647600364e-16
6.522494936e-16
6.423667896e-16
6.463327175e-16
6.470996624e-16
6.603751939e-16
6.382453355e-16
6.573833072e-16
6.262181823e-16
6.346053402e-16
6.589404254e-16
6.429594643e-16
6.358867467e-16
6.418633041e-16
6.376709586e-16
6.119978652e-16
6.45400432e-16
6.600592189e-16
6.517524918e-16
6.388733027e-16
6.493615327e-16
6.686319738e-16
6.696210665e-16
6.57641138e-16
6.641020039e-16
6.504025943e-16
6.440968325e-16
6.705377417e-16
6.580994627e-16
6.660599643e-16
6.560988656e-16
6.512803605e-16
6.508432335e-16
6.481189343e-16
6.488002737e-16
6.448961802e-16
6.354578054e-16
6.606383914e-16
6.307266097e-16
6.468995809e-16
6.462730155e-16
6.216058565e-16
6.567536209e-16
6.505586394e-16
6.537618651e-16
6.513215056e-16
6.516304349e-16
6.680038068e-16
6.505264678e-16
6.58662262e-16
6.588432844e-16
6.702738544e-16
6.675815e-16
6.619882758e-16
6.450155644e-16
6.569067566e-16
6.531523471e-16
6.449215547e-16
6.430053938e-16
6.565322176e-16
6.346987635e-16
6.464484166e-16
6.784966249e-16
6.338852676e-16
6.433812235e-16
6.316074746e-16
6.120232669e-16
6.63282434e-16
6.508000926e-16
6.475642115e-16
6.598822311e-16
6.475518026e-16
6.498920125e-16
6.644783418e-16
6.604023355e-16
6.532134429e-16
6.540694816e-16
6.497974179e-16
6.443085912e-16
6.411561269e-16
6.644815505e-16
6.414214252e-16
6.552629778e-16
6.592940096e-16
6.504143297e-16
6.448764666e-16
6.549019725e-16
6.661779096e-16
6.378221979e-16
6.677169084e-16
6.732931169e-16
6.465092087e-16
6.912447677e-16
6.56749551e-16
6.523786028e-16
6.61876755e-16
6.38388637e-16
6.514581397e-16
6.524275304e-16
6.619361668e-16
6.708657972e-16
6.675226503e-16
6.530512577e-16
6.469628044e-16
6.55926025e-16
6.419824582e-16
6.481337878e-16
6.528110502e-16
6.564446296e-16
6.566843139e-16
6.519952595e-16
6.509068921e-16
6.483651474e-16
6.540773034e-16
6.508227675e-16
6.35951392e-16
6.128857716e-16
6.578005904e-16
6.504474555e-16
6.367183776e-16
6.431067024e-16
6.451603556e-16
6.4484501e-16
6.59844852e-16
6.384273724e-16
6.551231107e-16
6.550247822e-16
6.802314332e-16
6.483687143e-16
6.62430807e-16
6.528462925e-16
6.662707904e-16
6.557632689e-16
6.589036967e-16
6.806453787e-16
6.517430367e-16
6.676580949e-16
6.507190537e-16
6.540200054e-16
6.326346207e-16
6.468164709e-16
6.351189112e-16
6.411254754e-16
6.361901023e-16
6.420076272e-16
6.356370236e-16
6.479469353e-16
6.428931708e-16
6.613467033e-16
6.304076899e-16
6.439360339e-16
6.552171877e-16
6.538390893e-16
6.479925031e-16
6.531923029e-16