/*--------------------------------*- C++ -*----------------------------------*\
| =========                 |                                                 |
| \\      /  F ield         | OpenFOAM: The Open Source CFD Toolbox           |
|  \\    /   O peration     | Version:  v1706                                 |
|   \\  /    A nd           | Web:      www.OpenFOAM.com                      |
|    \\/     M anipulation  |                                                 |
\*---------------------------------------------------------------------------*/
FoamFile
{
    version     2.0;
    format      ascii;
    class       volScalarField;
    location    "0.003";
    object      Ma_Ar;
}
// * * * * * * * * * * * * * * * * * * * * * * * * * * * * * * * * * * * * * //

dimensions      [0 0 0 0 0 0 0];


internalField   nonuniform List<scalar> 
9720
(
5.513999072
5.180486019
4.499504286
3.442660698
2.121006222
5.586888971
5.186642725
4.498668119
3.542142985
2.308584184
5.617029308
5.197334833
4.537739047
3.665227147
2.561452794
5.567943663
5.181241789
4.680983918
3.845059043
2.744680908
5.670594791
5.326229732
4.805753445
4.06086965
2.889714467
5.70825187
5.343534918
4.925478732
4.211447482
3.053207907
5.742351667
5.472304499
5.036884772
4.309174553
3.125446428
5.761461762
5.514105356
5.150287953
4.478167036
3.210537153
5.817645034
5.620583572
5.293331436
4.565264268
3.298297431
5.807956715
5.636140636
5.253286006
4.596744771
3.294903731
5.845968037
5.629514179
5.242047693
4.645218128
3.321210085
5.889416225
5.685577317
5.294476968
4.66251115
3.352464442
5.892466527
5.700490033
5.401080654
4.764250474
3.387439404
5.900797181
5.714487121
5.456009434
4.796468335
3.421987059
5.8951215
5.716388984
5.445611785
4.874809119
3.509188651
5.891401045
5.777031133
5.492376018
4.961826781
3.551118727
5.888036066
5.788048322
5.57271909
5.106747816
3.655301969
5.90848003
5.833214375
5.739289239
5.311408759
3.97993581
5.601245797
5.150909764
4.455549971
3.503972195
2.313142646
5.599389699
5.159720284
4.558740845
3.511539828
2.5025599
5.531314192
5.140673182
4.550203585
3.681376541
2.754567108
5.637871233
5.228835835
4.670049405
3.845216046
2.915406724
5.667591118
5.36262979
4.789298298
4.048069772
3.110580576
5.667418423
5.419688925
4.882606061
4.117046019
3.2617086
5.632332751
5.368086996
4.952471427
4.297646929
3.431293813
5.794587028
5.499666299
5.113095875
4.323643261
3.482917028
5.774556772
5.547905827
5.159896705
4.456780945
3.544496291
5.780600073
5.582827828
5.198218853
4.503516677
3.570339503
5.827595846
5.613357112
5.244747211
4.530619965
3.618170344
5.797138508
5.659200994
5.211258206
4.553870592
3.630384481
5.845532049
5.602915456
5.183543061
4.518291437
3.663325044
5.833071295
5.677131349
5.322263802
4.615528166
3.751596565
5.846236888
5.70742791
5.345550215
4.74503614
3.844950229
5.845407931
5.751747341
5.454394265
4.801829567
3.873277117
5.842437519
5.770073621
5.533401593
4.987756653
4.090773553
5.964994739
5.873491764
5.653279828
5.149580973
4.433660392
5.617982373
5.272440783
4.558240071
3.682747563
2.594620932
5.562114504
5.151406774
4.532863459
3.692344203
2.76748035
5.622957664
5.227346706
4.654102579
3.797130821
2.980593981
5.667473696
5.310229142
4.743216088
3.987852171
3.264740425
5.653019399
5.382730442
4.852756694
4.191928559
3.455165365
5.684883993
5.37436717
4.85087949
4.310014047
3.626749927
5.69908562
5.378654062
4.984912973
4.502409557
3.774876532
5.749373163
5.522915901
5.095748203
4.577833709
3.89640061
5.744287068
5.540915096
5.224503362
4.643168592
3.971214411
5.789697798
5.563899379
5.219576612
4.732072279
4.090390296
5.818953719
5.606615505
5.284751138
4.813542111
4.070364376
5.780771046
5.588523091
5.354127066
4.796665648
4.103282741
5.820754265
5.582502311
5.340640894
4.871476693
4.180294681
5.85426434
5.689147584
5.352001633
4.812589563
4.212096915
5.787179964
5.676087025
5.366239079
4.896317346
4.236376807
5.871138776
5.707157395
5.472380478
5.012473347
4.387248424
5.878557456
5.769947622
5.555348394
5.149889496
4.558153852
5.925956725
5.800955813
5.614003653
5.297980894
4.82709376
5.658995562
5.274724886
4.704412732
3.87792155
2.823701641
5.608110766
5.214496918
4.586678951
3.842373806
2.964903472
5.713626159
5.243277813
4.655125263
4.012296453
3.297893306
5.626129484
5.294644931
4.771061104
4.14040168
3.581291574
5.681530685
5.381981421
4.917477875
4.369765383
3.797559554
5.719211162
5.401712628
4.979207447
4.496869607
3.956642485
5.683809608
5.453482289
5.206780372
4.717145116
4.081980059
5.742273688
5.56407616
5.261037064
4.775519636
4.24192662
5.784869367
5.585575235
5.26783364
4.864946929
4.389583567
5.796904423
5.633904702
5.367318596
4.925848792
4.483051377
5.810102367
5.627412739
5.33680155
4.944133576
4.508635063
5.833027164
5.690794209
5.425388718
4.979073622
4.531625677
5.873428911
5.71547828
5.411630003
5.066947518
4.637173534
5.870594101
5.695078589
5.452885834
5.117507702
4.615184154
5.891796179
5.740074816
5.528574762
5.248559966
4.77024738
5.908068567
5.783074594
5.559861391
5.291908323
4.794176778
5.89787185
5.778666009
5.631785332
5.305580235
4.954177097
5.89425349
5.833501133
5.728155761
5.481797123
5.091091905
5.581101797
5.316426212
4.798972079
4.069776845
2.909699111
5.614834046
5.229033584
4.795867741
4.049243621
3.171066493
5.604982552
5.220433738
4.761365445
4.152473889
3.452042939
5.695275798
5.385661852
4.919682888
4.357258814
3.814065055
5.702890684
5.399591483
4.968604817
4.523193018
4.027564685
5.722265274
5.443045175
5.103043232
4.660525845
4.211878591
5.698675183
5.520493033
5.209751022
4.856330274
4.393721822
5.701206793
5.511958569
5.252009821
4.92888173
4.546340655
5.812321342
5.593503189
5.316503035
5.03847602
4.669684071
5.817417584
5.618482747
5.372530836
5.126875249
4.665069482
5.808078679
5.666280021
5.401577047
5.20493793
4.805814289
5.789880697
5.722552653
5.550918381
5.223269182
4.831800825
5.853379842
5.722740998
5.525379073
5.187908698
4.94257188
5.876157728
5.749116009
5.583106412
5.295428003
5.027446158
5.898160226
5.754957137
5.635768763
5.410223457
5.013896148
5.906253827
5.765994639
5.643932254
5.409118574
5.113755483
5.907879832
5.825752914
5.687285361
5.513953711
5.238849899
5.935410321
5.863963739
5.786801482
5.605407349
5.368537527
5.668522843
5.297165328
4.85456651
4.195518213
3.011782445
5.683591034
5.313217449
4.821554191
4.163181699
3.301372275
5.635565523
5.377686121
4.954692422
4.34073216
3.698594028
5.695820119
5.425920395
5.045669489
4.498983395
4.022601064
5.719618766
5.472207982
5.114741664
4.650039727
4.274967775
5.751572042
5.53908916
5.236778059
4.846870118
4.410408454
5.794786432
5.582056286
5.337691527
4.97802492
4.619237099
5.807307395
5.590171714
5.414373767
5.147524587
4.762427667
5.79633255
5.672341997
5.453818687
5.259243561
4.871557255
5.816366398
5.692429462
5.491862931
5.257816149
4.986300985
5.857997402
5.810883122
5.596716839
5.295762362
5.007683546
5.910787184
5.760247726
5.605128817
5.285989624
5.09118737
5.874621615
5.788303012
5.616873867
5.410086336
5.201853551
5.905567509
5.784604459
5.69941644
5.436891792
5.213487368
5.925021633
5.832034486
5.729136367
5.508942119
5.284392883
5.927897044
5.854836314
5.695371384
5.564670164
5.319891082
5.913592983
5.883465389
5.767696365
5.659277201
5.464982022
5.958396388
5.92934345
5.810034943
5.686846105
5.598673731
5.631680126
5.377051578
4.960120265
4.276738282
3.091024062
5.643683529
5.418347224
4.920928179
4.268597369
3.370909307
5.680712385
5.423033832
5.065707836
4.52172123
3.785115293
5.721121731
5.553404073
5.144310304
4.678601152
4.15814313
5.790670484
5.55878004
5.254667946
4.810154148
4.424176675
5.793269693
5.604312006
5.34749073
4.969593274
4.588146984
5.776782386
5.614673249
5.461446131
5.164129313
4.819469117
5.833839554
5.714374429
5.532571452
5.27394704
4.906722541
5.833149441
5.734439838
5.619811901
5.385791422
5.002099614
5.82973076
5.766099266
5.594165851
5.405164441
5.198060243
5.916306958
5.868121278
5.657901537
5.457253486
5.217353233
5.917510585
5.811045352
5.720474937
5.464478995
5.265234249
5.939060449
5.792430644
5.709977557
5.582733241
5.422767687
5.928429328
5.823372304
5.7525715
5.563983665
5.447767386
5.978825413
5.866608197
5.795689588
5.650380386
5.418128011
5.985721517
5.917125629
5.804846685
5.64376708
5.551650438
5.964977032
5.89205287
5.782988438
5.763242799
5.627564762
5.951591961
5.923281461
5.849896172
5.759841483
5.657202718
5.710159869
5.468908463
5.034169502
4.398830551
3.207701538
5.70178513
5.400771585
4.972613231
4.348024603
3.467644646
5.716573179
5.451539883
5.090623561
4.578698244
3.891242152
5.727330988
5.550592576
5.198696219
4.75718839
4.288184651
5.814225989
5.615717714
5.386851928
4.935121979
4.601855399
5.818079822
5.637545437
5.401558393
5.096570833
4.771057336
5.820850067
5.700657746
5.549831325
5.317625837
4.965837747
5.853614542
5.704616803
5.558430827
5.429186016
5.135359827
5.854504131
5.722052474
5.64340774
5.444523086
5.179757493
5.857721818
5.73123786
5.641119078
5.537817648
5.296587868
5.923655926
5.840807401
5.706310783
5.551214804
5.366134898
5.931932351
5.811838135
5.731765093
5.594865895
5.408936238
5.945788085
5.844089761
5.733582811
5.667338571
5.522930577
5.945561686
5.862107525
5.80718496
5.691283196
5.568975059
5.941330412
5.862686793
5.778526019
5.732214481
5.531655623
5.969385663
5.938504856
5.862692663
5.75161881
5.686036644
5.964230423
5.929604577
5.869760661
5.829683427
5.745663001
5.978988073
5.967722141
5.913888469
5.830130245
5.782788102
5.730062334
5.527229235
5.10498775
4.486049284
3.266121327
5.7426537
5.555240342
5.039116913
4.433039249
3.515389539
5.719749759
5.528163999
5.139275258
4.569821451
3.987241123
5.831477929
5.581693122
5.307590998
4.833560311
4.422847161
5.806702382
5.645827522
5.418492431
5.072007218
4.666680372
5.835113481
5.701704181
5.456106787
5.217431187
4.878326143
5.858259678
5.714153666
5.563982056
5.300131349
5.051618394
5.905227788
5.743095586
5.607518049
5.453360382
5.207365426
5.862491144
5.716318764
5.68334129
5.540564482
5.340349633
5.879550173
5.818223549
5.767975659
5.592307239
5.412800064
5.939580727
5.82743353
5.774183141
5.648479583
5.502979161
5.925126073
5.87680793
5.781476619
5.675598329
5.540295626
5.964074762
5.875819293
5.826748906
5.729286917
5.612942382
5.961223874
5.871883975
5.869304517
5.758721954
5.645121054
6.000042174
5.94464229
5.863314351
5.773061728
5.691272848
5.993374468
5.931493648
5.879734915
5.7808992
5.748063421
5.994383065
5.923241152
5.900509729
5.839737291
5.791427271
5.974023163
5.965405567
5.950996852
5.896355393
5.856199282
5.803617069
5.663432554
5.305226355
4.651413506
3.327872031
5.75468228
5.584162456
5.195322422
4.518963135
3.559758975
5.804471284
5.600363308
5.258637727
4.736145707
4.054846297
5.824765607
5.643001676
5.349747135
4.936806245
4.410896842
5.774378687
5.665030976
5.40272299
5.10665388
4.739837613
5.832978354
5.684006437
5.481774305
5.288439033
5.014052643
5.865581288
5.74844767
5.601520967
5.387987739
5.146212784
5.857645885
5.745487429
5.663261815
5.502845844
5.294309322
5.911588293
5.773618187
5.731016757
5.583014446
5.444453727
5.905180732
5.831161651
5.799433104
5.640670452
5.497630417
5.941396006
5.87456945
5.800645757
5.681295097
5.554759266
5.948517646
5.897977265
5.827836993
5.726509075
5.671991404
5.945003687
5.910003359
5.880832155
5.781797045
5.668744363
5.945097693
5.897049688
5.875955205
5.831233676
5.729885543
5.959743788
5.91471017
5.868764493
5.844161888
5.739884877
5.961798045
5.909882508
5.90419036
5.849690245
5.784615512
5.987610604
5.948723059
5.943092615
5.86162081
5.816822025
5.976829662
5.964822848
5.937359405
5.889532303
5.849554842
5.810602816
5.649831257
5.288772737
4.651471906
3.384626568
5.82480198
5.627115896
5.283471912
4.596397887
3.582581092
5.826250757
5.593806669
5.303339802
4.725356407
4.070622854
5.805309603
5.593105984
5.326511557
4.910178306
4.424397489
5.762196057
5.698066461
5.445613058
5.107506078
4.763247801
5.837036159
5.747235166
5.505252476
5.323861067
5.037190401
5.880590804
5.776745176
5.632314943
5.48529414
5.277786655
5.883807811
5.808997898
5.71929408
5.603610782
5.428850135
5.94829598
5.828192203
5.738395563
5.644980314
5.54214273
5.939061208
5.87812989
5.790220422
5.683011575
5.613450945
5.944971129
5.898754325
5.835784622
5.761260083
5.703665923
5.941367837
5.905748602
5.860597222
5.794222777
5.757269946
5.940500402
5.889068236
5.850962092
5.81956131
5.754194486
5.974584237
5.938348171
5.880324314
5.820332425
5.751591765
5.96658935
5.96321578
5.932513199
5.89672901
5.797171192
5.970047394
5.954486934
5.944495035
5.884257222
5.822942021
5.996211515
5.966392614
5.955010986
5.884778173
5.836577824
6.007600357
5.991457594
5.97749968
5.917685939
5.867079742
5.870268076
5.629286981
5.345715941
4.708761758
3.375642246
5.859810266
5.648688535
5.254040756
4.549911187
3.655048004
5.84092852
5.629994972
5.287114103
4.753845935
4.098634782
5.840491588
5.642682907
5.373581592
4.977158311
4.501510867
5.814643256
5.695133711
5.50506375
5.216495276
4.834314729
5.863207046
5.726298349
5.610278559
5.387636304
5.100935861
5.861077086
5.754556459
5.635665627
5.541741987
5.257806583
5.887392027
5.785517924
5.74393415
5.657230755
5.402710891
5.882352027
5.832267409
5.758512067
5.686744599
5.515582131
5.947804943
5.897519162
5.833920469
5.707555674
5.666636566
5.955911996
5.940415599
5.851912718
5.759410173
5.718669724
5.94515388
5.937318357
5.878005735
5.839504681
5.751424357
5.986838729
5.954110329
5.932922733
5.853817626
5.790591481
5.953816731
5.948634277
5.948740571
5.887413729
5.810025519
5.9882961
5.978490477
5.942176003
5.896926246
5.816159396
5.952866564
5.945418118
5.925317436
5.940500898
5.886713126
5.980705509
5.953159239
5.96191883
5.941814862
5.895414383
5.992677552
5.975106893
5.96716305
5.938774039
5.916505567
5.860505634
5.663588821
5.358735544
4.780225708
3.459628222
5.867624422
5.683571557
5.341417949
4.626037926
3.719181661
5.817048688
5.65683779
5.387755093
4.852888967
4.244034736
5.837884242
5.716969396
5.470780279
5.066898919
4.599158094
5.8399397
5.747599871
5.558789203
5.243676692
4.943764445
5.860592299
5.775276659
5.62678593
5.406717384
5.139145893
5.892719371
5.843778653
5.720113708
5.594366994
5.308419238
5.882852851
5.817254083
5.802432701
5.655196828
5.502786565
5.904976246
5.85579659
5.792167241
5.755038626
5.609973126
5.941299852
5.892995279
5.864219842
5.818985393
5.679119295
5.960615167
5.934156416
5.890102113
5.798247292
5.741388969
5.95649974
5.950806031
5.933048354
5.877700636
5.813902535
5.959180084
5.967328874
5.939954084
5.876152947
5.846197684
5.959085206
5.953955914
5.927606602
5.887960029
5.861107853
5.983445103
5.965714704
5.945881032
5.908911997
5.881363104
5.999322238
5.955870146
5.953126761
5.918725978
5.871949199
6.009517709
6.010500482
5.988343523
5.959444351
5.915636044
6.00687059
6.012232444
6.000814511
5.959732965
5.962122718
5.81773296
5.657264184
5.366998684
4.810790274
3.449896571
5.82449614
5.678953842
5.336195973
4.740194472
3.831427579
5.844093547
5.62072656
5.364375938
4.92144611
4.241203099
5.844082715
5.771142623
5.463380544
5.118399436
4.652656677
5.844640127
5.752382344
5.560566124
5.33399226
5.06551989
5.856975914
5.797977277
5.649721557
5.450194123
5.242118433
5.936244243
5.869070146
5.730647398
5.605714318
5.400149788
5.910835853
5.886540966
5.790091781
5.678689305
5.534294534
5.93348987
5.907250883
5.822275071
5.759991303
5.656485756
5.970776041
5.927245783
5.845035402
5.80878825
5.760615817
5.954520695
5.935040004
5.922894486
5.887756073
5.819790068
5.950866769
5.948839485
5.912934047
5.881809251
5.832609182
6.002663652
5.970176973
5.960694083
5.927523751
5.894426789
6.000419115
5.973602866
5.942250038
5.943351861
5.910214996
6.011976899
5.985799434
5.952962735
5.93029605
5.910641078
6.009910785
5.991035426
5.972896922
5.980738018
5.939487039
6.002013737
5.975466984
5.962957608
5.970965644
5.925846368
5.984417741
5.966037569
5.973877227
5.972974466
5.9343548
5.845495038
5.706611565
5.462067875
4.888335676
3.48951095
5.837690121
5.69973683
5.406636409
4.809357124
3.792327602
5.865714001
5.776041087
5.510285618
5.001703882
4.320092839
5.868568477
5.801542433
5.564988911
5.128182601
4.726552501
5.901235059
5.797982312
5.595109155
5.393427563
5.072882317
5.910460044
5.788574627
5.748471123
5.544029778
5.333068799
5.929137822
5.874523653
5.78088562
5.655827129
5.519626639
5.945619169
5.893213671
5.821346604
5.769070611
5.606203925
5.959491623
5.93110204
5.853419396
5.830077232
5.692902802
5.957456881
5.926034812
5.886454663
5.837226048
5.782609815
5.976238277
5.972208105
5.962554141
5.887032725
5.841935058
5.969540466
5.947208384
5.942557466
5.8852054
5.836493647
6.003565722
5.983566326
5.963159833
5.927962262
5.897686563
5.973220013
5.956333195
5.953368176
5.941024966
5.898163805
5.977311724
5.978030712
5.9675202
5.935936354
5.919209089
6.002606683
5.997530041
5.981526902
5.97975166
5.956828204
5.988868947
6.006008993
5.986633286
5.978089994
5.951219379
6.00061496
5.996052478
5.998267937
5.984462976
5.961757234
5.924487561
5.775374102
5.487448127
5.011625259
3.538995242
5.897854243
5.738589534
5.440827092
4.995104517
3.924591974
5.902967645
5.752390665
5.471708396
5.100790541
4.447437373
5.875797525
5.776163513
5.557127573
5.27808618
4.871217941
5.912672153
5.765770627
5.632344931
5.433537627
5.155906374
5.893466047
5.825703561
5.753260863
5.657333931
5.411764013
5.91066575
5.90299977
5.848696285
5.701374358
5.566414503
5.963233295
5.944628139
5.845355738
5.778901088
5.694048252
5.982792897
5.965531274
5.883543346
5.873055827
5.7748377
5.96367561
5.953601572
5.869531264
5.84795841
5.792795889
5.980994956
5.934518429
5.944081253
5.895817179
5.841360621
5.991592112
5.968193166
5.952404197
5.915370922
5.871933927
5.957912874
5.970270408
5.952388514
5.90901889
5.88077677
5.973131762
5.99772616
5.954777163
5.942253003
5.90465261
5.97723886
5.959352477
5.940105076
5.930143741
5.914483013
5.974588695
5.968438605
5.963325539
5.975275007
5.95079999
5.99752476
5.995524919
5.982373698
5.965820511
5.970270868
6.001017616
5.985596325
5.978311449
5.984338377
5.970876684
5.907926288
5.79609387
5.661814666
5.088251252
3.622580052
5.887859571
5.71836286
5.518059119
4.945247434
3.971322419
5.907210225
5.759461655
5.549048754
5.087293602
4.591390652
5.885538349
5.783911845
5.621783165
5.380462993
4.987122263
5.927909025
5.845980126
5.717116881
5.588973192
5.28503266
5.92284769
5.881714604
5.821394222
5.676115024
5.473892808
5.915137502
5.893917172
5.843080188
5.765642722
5.602310541
5.949309928
5.905410516
5.851388636
5.795418677
5.688308936
5.967476867
5.933131959
5.873432404
5.853477074
5.796625241
5.962409627
5.915995431
5.886016414
5.882353588
5.84791983
5.97316191
5.956015092
5.94229144
5.925055466
5.859268296
5.982666339
5.968040157
5.9684919
5.960049349
5.907246406
5.991215539
5.983674118
5.97970275
5.945239551
5.91991419
5.995040984
5.992408728
5.968454706
5.936322987
5.946470727
5.973351125
5.976075533
5.957612368
5.96384301
5.949128258
5.959634418
5.965162882
5.959239384
5.955759323
5.96001728
5.985741341
5.988747646
5.969621175
5.961890049
5.965795168
5.992162781
5.998987782
5.990999377
5.981704194
5.966922824
5.928789335
5.865193026
5.721173877
5.307688283
3.923724373
5.933352243
5.84049179
5.663004292
5.209813214
4.383731672
5.947963001
5.855157179
5.653151677
5.276766157
4.893569639
5.936580488
5.849792597
5.675346713
5.485995181
5.211880427
5.96058494
5.851396308
5.751091275
5.641540807
5.469324885
5.932948996
5.881371028
5.875384019
5.727944122
5.594902244
5.98171323
5.946037954
5.904197319
5.809837005
5.672103165
5.969620517
5.941580301
5.920765208
5.873032232
5.749754922
5.958235531
5.947111477
5.909089091
5.843339648
5.835782602
5.981412355
5.957304307
5.930514079
5.891594568
5.86922035
5.989219915
5.984593163
5.923802042
5.923123143
5.899553408
5.996846563
5.970218359
5.961622898
5.938290491
5.918168915
5.987683165
5.988247242
5.971662766
5.968933967
5.975902184
5.992872982
5.991277843
5.973301966
5.969901205
5.936691075
5.9924555
5.995097913
5.979258645
5.976945991
5.953386236
5.983153894
5.991096463
5.992283536
5.966293168
5.961103726
6.001072865
5.988946512
5.980326267
5.967169068
5.958344013
5.986237437
5.977828581
5.967604572
5.977585717
5.976713324
1.187447005
0.9245773733
0.7545072834
0.6250677991
0.5275711492
0.4528343641
0.4000480892
0.3627056842
0.3309520841
0.3093180833
0.2869955498
0.2669562623
0.2540926306
0.245048222
0.2367832679
0.2286739651
0.2316366885
0.2258572518
0.2244842766
0.236682332
0.2445772945
0.2593380529
0.3002811075
0.3608330111
0.5483231035
1.470375311
1.185296318
1.008215599
0.8793822071
0.7722899296
0.6849941563
0.6165878556
0.5571918105
0.5004929178
0.4694732305
0.4384213534
0.411622591
0.3882980654
0.3690457625
0.3587469292
0.3487264321
0.3375646318
0.3399884459
0.3424273665
0.3484643414
0.3618537948
0.3829908035
0.4277759191
0.5081631917
0.6963840838
1.648171933
1.351652786
1.152395951
1.01185986
0.9059652522
0.8250792368
0.7365189748
0.6769026534
0.6266632828
0.5821573785
0.5476637116
0.5108455252
0.4797093429
0.4609774933
0.4490267658
0.4293425622
0.4228995729
0.4230285977
0.4277680597
0.4267256647
0.4425849771
0.4669443578
0.4978751287
0.5736825566
0.7562806533
1.770651402
1.463806695
1.2492184
1.101944247
0.9849071416
0.89176757
0.8160640216
0.7583450576
0.7034607281
0.6558912173
0.623440664
0.5895151368
0.5637669418
0.5383036365
0.5236586942
0.5024468764
0.4946052033
0.4935554617
0.4838729285
0.4921966369
0.4999877437
0.5208006466
0.5553946414
0.6221396841
0.7966639618
1.833616149
1.541877225
1.323557311
1.168167899
1.049515561
0.9543927662
0.8764085936
0.8149833458
0.7645530165
0.7178353202
0.6830509452
0.6466197798
0.6146155654
0.5849443756
0.5673167219
0.5527701493
0.5498935936
0.54041873
0.5320619639
0.5342490349
0.542650128
0.5558393298
0.5869632639
0.6450054737
0.8114788379
1.933581721
1.618734288
1.407939921
1.242440549
1.119562515
1.006908001
0.9288914061
0.8583921733
0.8029042642
0.7584764899
0.7227423318
0.6833410054
0.6528940843
0.6322902388
0.6080986983
0.5958228973
0.5882018847
0.578598664
0.5689590305
0.5735062523
0.5842169765
0.5996727297
0.6241329363
0.6843343865
0.8414695322
1.971612076
1.685337899
1.465651964
1.30884913
1.176993442
1.072007758
0.9665706069
0.9017485568
0.8402472472
0.7938030102
0.751872001
0.7195359294
0.6906193289
0.6614129659
0.6416618091
0.6222777613
0.6128136127
0.6039579623
0.5957043032
0.6060706904
0.6162046386
0.6208141878
0.6509791819
0.7001306049
0.8469226788
2.017966937
1.699683461
1.511203613
1.361084984
1.221528547
1.111163524
1.020885919
0.9450757796
0.8766557579
0.8222944896
0.7798319551
0.7479294922
0.7237302602
0.6890328761
0.6797975868
0.6543115509
0.6357141436
0.6302163033
0.6250290415
0.6217133008
0.6239981897
0.6385507504
0.6697616007
0.7271222005
0.8670968008
2.031796348
1.742392407
1.54370339
1.395231292
1.258112765
1.141272108
1.055289254
0.9741262148
0.9214518883
0.8640492932
0.8200104763
0.7772940738
0.7423312287
0.7173764282
0.6979193569
0.6781414628
0.6701309789
0.6596941989
0.6491964172
0.6518766596
0.652886648
0.6623114159
0.6887668825
0.7320870677
0.8857447535
2.064098533
1.773826213
1.583013855
1.423449908
1.300312391
1.189960215
1.098308623
1.019390258
0.9488408024
0.8917576417
0.8467314218
0.8071737428
0.7710290197
0.7429794293
0.7199162919
0.703058191
0.6889533607
0.6773571314
0.6692688829
0.6640630853
0.6646160498
0.6799839997
0.7034069402
0.7536872513
0.9008782196
2.097344164
1.781385738
1.597726355
1.438161202
1.324438853
1.22064086
1.118850832
1.050042133
0.9786614771
0.9353530229
0.8871157844
0.8377927385
0.8006195027
0.7684437995
0.738557314
0.7285369781
0.7169300625
0.7051247107
0.6941852988
0.6907338093
0.6901642065
0.7042614483
0.7238663973
0.7608456523
0.9297850357
2.083365925
1.806223916
1.613428326
1.457026444
1.342236093
1.243041643
1.150770618
1.079767097
1.026856464
0.9574260213
0.9160595186
0.8655031739
0.8245521257
0.7938067347
0.7716771552
0.7470119806
0.7295405566
0.715433228
0.7079159906
0.7086764784
0.7083220117
0.7151264772
0.7471292645
0.7882782221
0.9526628239
2.127362447
1.816868106
1.618868924
1.502685863
1.391341679
1.284764486
1.185578494
1.1050395
1.052996258
0.983994327
0.9424285641
0.9058728555
0.8638429114
0.8259413598
0.8002296061
0.7733351843
0.7657962363
0.7480033926
0.738563976
0.7287901887
0.7311113928
0.7373406224
0.7560521349
0.8060163607
0.9748939579
2.144070207
1.861018702
1.664852852
1.534519173
1.406662512
1.297491184
1.234503606
1.155083098
1.096299347
1.036826411
0.9859684207
0.9454354784
0.9003493081
0.8649227958
0.8388491239
0.8158248237
0.7954844156
0.7754481295
0.76833428
0.7568592805
0.7539173513
0.7591119783
0.7772464239
0.8219508049
0.9937978036
2.161676365
1.864458987
1.690287194
1.552547413
1.447170489
1.329682747
1.274449445
1.191062042
1.113046642
1.075112152
1.02820945
0.9963848001
0.9393291314
0.9059993337
0.8754870877
0.8540053092
0.8229812297
0.8120226157
0.8034653447
0.7838901186
0.7883649739
0.7884644339
0.8062105018
0.8478408737
1.018923922
2.183793717
1.910844591
1.738361608
1.602014116
1.476275263
1.39417381
1.330537274
1.261874296
1.19583533
1.140065149
1.08591562
1.034312626
0.996469219
0.9757856105
0.9409865189
0.9120188857
0.8921671677
0.8751854406
0.8601743806
0.8475056851
0.8300042746
0.8394795505
0.851013242
0.8968326767
1.04435081
2.247551142
1.967666624
1.806529803
1.686249209
1.571475003
1.474212538
1.40963892
1.345438033
1.287474775
1.236611186
1.184811253
1.137232167
1.112083284
1.066534735
1.035125354
1.004820031
0.9899455973
0.9798191806
0.9491077317
0.9396832819
0.9256087676
0.9257589152
0.9425591652
0.9742404114
1.146687081
2.505779787
2.214811559
2.068845519
1.93122283
1.841869677
1.743372436
1.698257254
1.62504152
1.578703244
1.538629175
1.510043573
1.456583511
1.417396709
1.383243974
1.354222779
1.349765207
1.309134759
1.286015276
1.258575041
1.245358617
1.268549119
1.245775212
1.25652336
1.300002049
1.462566219
1.486379023
1.194002858
1.018549401
0.8860400172
0.7845483844
0.6929741545
0.6169387047
0.5599686713
0.5134656368
0.466368014
0.4334789749
0.4111299486
0.3868509566
0.3712221451
0.3605749669
0.3495335294
0.337664415
0.3391857388
0.3391361028
0.3474400219
0.360721277
0.3857446559
0.4251941084
0.5009620832
0.690744569
1.876744455
1.572146873
1.409016378
1.281104693
1.167728275
1.063919597
0.9717763454
0.8858085756
0.8128366019
0.7385481953
0.6880661436
0.6417460902
0.6105184651
0.5835493259
0.5537704902
0.539843757
0.5266360861
0.5180901007
0.5183000912
0.5159186812
0.5206484365
0.5605025441
0.6149401371
0.7129409003
0.9311195125
2.144320299
1.817734424
1.605513503
1.475181278
1.374217069
1.276290744
1.176453631
1.078973003
1.002167741
0.9346191129
0.8770217054
0.8168307978
0.7724435407
0.7395644052
0.7020339892
0.6781346231
0.656083661
0.6444714407
0.6381084641
0.6403303848
0.6509972048
0.6813960319
0.7349755713
0.8346995375
1.030327366
2.312453891
1.969269587
1.734604262
1.60053706
1.49673244
1.385179856
1.300350863
1.20990437
1.136313701
1.069173268
1.005645542
0.9449482378
0.8971612898
0.8566370992
0.8223737229
0.792592036
0.7703998348
0.7536682721
0.7459896539
0.7359490399
0.7489600818
0.7711424335
0.8167843358
0.9171615164
1.097345049
2.491481186
2.102684343
1.858082741
1.717330176
1.583496002
1.484258415
1.378823879
1.297488669
1.222653073
1.148908964
1.090228349
1.028093095
0.9877767562
0.9501590797
0.9150121264
0.8796331163
0.8598759817
0.8426540822
0.8346242592
0.8275513409
0.8242709221
0.8476800432
0.8826473105
0.973984807
1.147447633
2.590393442
2.215347082
1.976793718
1.816593907
1.671943528
1.558149404
1.462266139
1.360057497
1.291046854
1.210398841
1.158881536
1.107181096
1.060358921
1.014355108
0.9847374496
0.9566964953
0.9361173208
0.9101413453
0.8921653174
0.8908104476
0.8886248914
0.9038993984
0.931456411
1.023961333
1.205641067
2.670346744
2.285886765
2.070183219
1.895967611
1.77052919
1.633388032
1.528745054
1.42492198
1.342850015
1.26611526
1.212680248
1.163056759
1.107131959
1.063208116
1.023882586
0.9993176149
0.9759666988
0.9554165704
0.9446729449
0.9440199627
0.9388729304
0.9562623918
0.9956207916
1.062200314
1.237348406
2.727328235
2.340220918
2.137559356
1.953491289
1.825254065
1.709978881
1.574306086
1.474876665
1.398157528
1.316086632
1.253679146
1.194113545
1.145051267
1.108798759
1.074389821
1.044894053
1.021169451
0.9987422885
0.9888815638
0.9730387077
0.9709337497
0.9884557604
1.023728588
1.094566588
1.267604592
2.760833402
2.405179074
2.199675216
2.031759576
1.886437615
1.757050455
1.631000886
1.526509532
1.438425211
1.357812449
1.287931386
1.235850203
1.181353926
1.141436049
1.10905782
1.080160165
1.054708552
1.035581635
1.023893116
1.0092692
1.012212573
1.019422781
1.053432723
1.125173071
1.304885389
2.832930212
2.436811958
2.252206366
2.064547199
1.939316337
1.804478285
1.700317875
1.591190385
1.49215823
1.419319883
1.340901031
1.281288652
1.231511784
1.184636708
1.138373136
1.115901638
1.083495518
1.059990574
1.054055263
1.039886656
1.040745665
1.048231106
1.0738148
1.160479949
1.339836074
2.867913168
2.485999528
2.281791192
2.113464264
1.980873541
1.861556698
1.749862456
1.64085029
1.540398114
1.462451002
1.382340506
1.327784584
1.266393658
1.210356976
1.179498227
1.148466945
1.111706639
1.09307492
1.07008431
1.070266682
1.063738879
1.086413161
1.108543971
1.180259583
1.362255955
2.905516937
2.516295736
2.30233276
2.125832674
2.015136249
1.912571955
1.791211901
1.691381077
1.578784136
1.510065835
1.430556642
1.369694174
1.304666341
1.252970701
1.217076331
1.173391677
1.146697646
1.111617961
1.106651912
1.092450466
1.092400554
1.104151657
1.129778964
1.201261859
1.384417683
2.944462206
2.561074832
2.353508329
2.210875087
2.089701148
1.973666277
1.842675137
1.739086508
1.644104071
1.554224328
1.479401057
1.406310177
1.339150113
1.293637634
1.25602241
1.216111167
1.191006852
1.150131027
1.129556642
1.119602322
1.115913428
1.126127279
1.156661882
1.221841532
1.413031479
2.993517665
2.599815945
2.413800269
2.251007841
2.108557374
2.00627506
1.904223162
1.7953471
1.707533993
1.615651721
1.536430069
1.459665406
1.401648607
1.354755834
1.308298849
1.266449827
1.227011482
1.198548199