/*--------------------------------*- C++ -*----------------------------------*\
| =========                 |                                                 |
| \\      /  F ield         | OpenFOAM: The Open Source CFD Toolbox           |
|  \\    /   O peration     | Version:  v1706                                 |
|   \\  /    A nd           | Web:      www.OpenFOAM.com                      |
|    \\/     M anipulation  |                                                 |
\*---------------------------------------------------------------------------*/
FoamFile
{
    version     2.0;
    format      ascii;
    class       volScalarField;
    location    "0.003";
    object      mct_Ar;
}
// * * * * * * * * * * * * * * * * * * * * * * * * * * * * * * * * * * * * * //

dimensions      [0 0 1 0 0 0 0];


internalField   nonuniform List<scalar> 
9720
(
3.228623121e-05
3.137077212e-05
2.944731258e-05
2.612132777e-05
2.025142792e-05
3.250636994e-05
3.157830221e-05
2.982131803e-05
2.669637937e-05
2.128829291e-05
3.256383785e-05
3.146873267e-05
2.95818098e-05
2.680383595e-05
2.231572321e-05
3.236922011e-05
3.14544376e-05
3.006330184e-05
2.752542526e-05
2.325132044e-05
3.268550095e-05
3.180057562e-05
3.042206111e-05
2.812717801e-05
2.384259839e-05
3.266730604e-05
3.172843583e-05
3.063337967e-05
2.858291067e-05
2.445336268e-05
3.285057844e-05
3.220565578e-05
3.111062743e-05
2.910481761e-05
2.506362842e-05
3.284687782e-05
3.231905115e-05
3.129242478e-05
2.940401879e-05
2.510261999e-05
3.299942617e-05
3.239482043e-05
3.152013957e-05
2.943259511e-05
2.522499025e-05
3.297076461e-05
3.263493099e-05
3.167648107e-05
2.98534207e-05
2.544890187e-05
3.306677796e-05
3.251208492e-05
3.144239001e-05
2.984375992e-05
2.565133486e-05
3.317693783e-05
3.282370973e-05
3.184735265e-05
3.009006837e-05
2.580574651e-05
3.313686992e-05
3.266006181e-05
3.183441837e-05
3.014745286e-05
2.572318264e-05
3.318671516e-05
3.26695951e-05
3.190148273e-05
3.019872122e-05
2.588329856e-05
3.31591467e-05
3.278439001e-05
3.214558533e-05
3.065034623e-05
2.63197609e-05
3.312428615e-05
3.286561799e-05
3.212259198e-05
3.066626833e-05
2.641456461e-05
3.320047676e-05
3.299369521e-05
3.240696874e-05
3.119632933e-05
2.679828688e-05
3.314013603e-05
3.300628556e-05
3.27404854e-05
3.170714393e-05
2.800101882e-05
3.24559857e-05
3.136345337e-05
2.939652821e-05
2.62212167e-05
2.101534391e-05
3.251411578e-05
3.136047639e-05
2.965522884e-05
2.624166113e-05
2.19434947e-05
3.230504931e-05
3.131432101e-05
2.973965495e-05
2.704302967e-05
2.321353748e-05
3.253634978e-05
3.143117828e-05
2.990857167e-05
2.74046338e-05
2.389890491e-05
3.270213448e-05
3.207783855e-05
3.056939252e-05
2.822624884e-05
2.469736576e-05
3.26476788e-05
3.190488168e-05
3.048027524e-05
2.824899998e-05
2.516268592e-05
3.248546657e-05
3.181187845e-05
3.072525286e-05
2.884544484e-05
2.58848429e-05
3.298345164e-05
3.219293846e-05
3.119395349e-05
2.899897074e-05
2.609462431e-05
3.292866327e-05
3.234199213e-05
3.141281881e-05
2.951422116e-05
2.648060181e-05
3.29278168e-05
3.238187088e-05
3.148383735e-05
2.959904211e-05
2.666439986e-05
3.305797277e-05
3.259291016e-05
3.159094248e-05
2.954427428e-05
2.65072249e-05
3.285406868e-05
3.261169138e-05
3.154036349e-05
2.986382473e-05
2.691614659e-05
3.297677036e-05
3.23954379e-05
3.150045445e-05
2.961006901e-05
2.692119685e-05
3.311896092e-05
3.274865142e-05
3.18826995e-05
3.01070523e-05
2.726809002e-05
3.302653204e-05
3.268406559e-05
3.184260665e-05
3.014720694e-05
2.743759031e-05
3.30329736e-05
3.272603692e-05
3.201922791e-05
3.037937445e-05
2.756511968e-05
3.295341922e-05
3.271043294e-05
3.224893299e-05
3.100569199e-05
2.829458968e-05
3.340549894e-05
3.313893589e-05
3.253321368e-05
3.125766578e-05
2.923566334e-05
3.245760333e-05
3.148504867e-05
2.957759769e-05
2.678709453e-05
2.240321417e-05
3.237683605e-05
3.140856242e-05
2.964668541e-05
2.694670606e-05
2.321238487e-05
3.24623719e-05
3.135759404e-05
2.992095441e-05
2.730413483e-05
2.413158315e-05
3.272890483e-05
3.186890723e-05
3.018191815e-05
2.793597036e-05
2.5224051e-05
3.259838861e-05
3.193135827e-05
3.050985433e-05
2.858918096e-05
2.610181725e-05
3.26362463e-05
3.186627804e-05
3.05267215e-05
2.898884311e-05
2.666716056e-05
3.273337841e-05
3.193696433e-05
3.088979817e-05
2.952062179e-05
2.714570288e-05
3.282010393e-05
3.24328253e-05
3.133044903e-05
2.973234941e-05
2.757100218e-05
3.28237957e-05
3.226373375e-05
3.145573689e-05
2.991327946e-05
2.786049521e-05
3.295507182e-05
3.241169653e-05
3.164950942e-05
3.031523309e-05
2.826922495e-05
3.301067114e-05
3.241859714e-05
3.161125329e-05
3.039472589e-05
2.819902702e-05
3.299188959e-05
3.250001989e-05
3.189050297e-05
3.038546095e-05
2.819553939e-05
3.300910103e-05
3.245780853e-05
3.178071875e-05
3.044810427e-05
2.830093912e-05
3.305496348e-05
3.270132459e-05
3.177075805e-05
3.028578221e-05
2.849729871e-05
3.289262426e-05
3.26458448e-05
3.191920534e-05
3.077679926e-05
2.870234643e-05
3.307247138e-05
3.269742708e-05
3.203320255e-05
3.077203066e-05
2.917965548e-05
3.312168668e-05
3.291863102e-05
3.238434144e-05
3.136062128e-05
2.966148296e-05
3.321917543e-05
3.2822123e-05
3.249138931e-05
3.163364679e-05
3.038026536e-05
3.261461548e-05
3.172262411e-05
3.019010853e-05
2.766423475e-05
2.357514527e-05
3.262134298e-05
3.160049315e-05
2.996722126e-05
2.762530319e-05
2.417329667e-05
3.275799769e-05
3.154560126e-05
3.000373074e-05
2.803323297e-05
2.54043413e-05
3.257073843e-05
3.180160122e-05
3.033803868e-05
2.833271414e-05
2.627872323e-05
3.260085746e-05
3.19395871e-05
3.067190865e-05
2.90595034e-05
2.721734054e-05
3.282089825e-05
3.198803535e-05
3.083928493e-05
2.949411481e-05
2.777089605e-05
3.26494629e-05
3.208129802e-05
3.144413979e-05
3.011045812e-05
2.810824004e-05
3.281424605e-05
3.22878895e-05
3.147016339e-05
3.021312856e-05
2.857059212e-05
3.282543731e-05
3.242312584e-05
3.160899729e-05
3.052282679e-05
2.90491742e-05
3.286674493e-05
3.253364408e-05
3.184663505e-05
3.070264829e-05
2.932325186e-05
3.299560817e-05
3.267608154e-05
3.188641108e-05
3.080333795e-05
2.954232181e-05
3.29383295e-05
3.24787877e-05
3.174987913e-05
3.066385961e-05
2.936092973e-05
3.30927044e-05
3.270758832e-05
3.199790365e-05
3.099858807e-05
2.981088074e-05
3.31059322e-05
3.268474647e-05
3.213289728e-05
3.124757982e-05
2.978331087e-05
3.31213074e-05
3.273696736e-05
3.220961677e-05
3.137763649e-05
2.993421447e-05
3.321370386e-05
3.292343844e-05
3.23499463e-05
3.166801249e-05
3.017566454e-05
3.321847672e-05
3.299690793e-05
3.263981601e-05
3.177091049e-05
3.082124658e-05
3.326384527e-05
3.316971835e-05
3.291338144e-05
3.224153896e-05
3.122017664e-05
3.241435059e-05
3.182170115e-05
3.044991023e-05
2.825667953e-05
2.399972239e-05
3.249899502e-05
3.151079643e-05
3.023916457e-05
2.797206508e-05
2.481811835e-05
3.240472994e-05
3.136478013e-05
3.012176011e-05
2.824015834e-05
2.587898729e-05
3.271883624e-05
3.194174412e-05
3.070579459e-05
2.903269511e-05
2.703825927e-05
3.285455549e-05
3.207222882e-05
3.090501663e-05
2.971611969e-05
2.816220064e-05
3.275109501e-05
3.218395347e-05
3.12077153e-05
2.996545133e-05
2.854027367e-05
3.265100109e-05
3.213989302e-05
3.134806617e-05
3.038149177e-05
2.895306235e-05
3.270884538e-05
3.22713684e-05
3.152998053e-05
3.05949711e-05
2.940854565e-05
3.2951968e-05
3.226132582e-05
3.161717067e-05
3.094387517e-05
2.992626076e-05
3.305235054e-05
3.253943651e-05
3.183008402e-05
3.109776735e-05
2.984673839e-05
3.295539124e-05
3.264912753e-05
3.200985104e-05
3.151549262e-05
3.038113024e-05
3.28380314e-05
3.274162493e-05
3.238186135e-05
3.153306233e-05
3.041042869e-05
3.31074551e-05
3.291415357e-05
3.248341191e-05
3.152603451e-05
3.090900742e-05
3.317306094e-05
3.289458396e-05
3.236815034e-05
3.176174326e-05
3.105918064e-05
3.316503118e-05
3.284831173e-05
3.26193217e-05
3.212099888e-05
3.109092223e-05
3.32351872e-05
3.294982195e-05
3.27538187e-05
3.20705335e-05
3.130762532e-05
3.321924079e-05
3.289617881e-05
3.252957352e-05
3.215803573e-05
3.135998008e-05
3.314524321e-05
3.289874419e-05
3.269478669e-05
3.238714123e-05
3.190294019e-05
3.265090989e-05
3.164760479e-05
3.045219532e-05
2.863782665e-05
2.439544763e-05
3.266154983e-05
3.17201195e-05
3.038330925e-05
2.850114869e-05
2.539367463e-05
3.253815914e-05
3.184655229e-05
3.071467023e-05
2.897221074e-05
2.68201494e-05
3.258290186e-05
3.191559037e-05
3.103141288e-05
2.956332202e-05
2.793454426e-05
3.280631688e-05
3.211464466e-05
3.119910888e-05
2.986164493e-05
2.873519467e-05
3.287431163e-05
3.236852034e-05
3.169186192e-05
3.038595088e-05
2.89212937e-05
3.2975021e-05
3.232636232e-05
3.172677147e-05
3.09249517e-05
2.98969881e-05
3.307305216e-05
3.245211604e-05
3.194645708e-05
3.120205459e-05
3.011243638e-05
3.292384573e-05
3.264666116e-05
3.207290088e-05
3.151228001e-05
3.041191945e-05
3.292931334e-05
3.262549414e-05
3.222053571e-05
3.161643972e-05
3.084418948e-05
3.318037962e-05
3.303981838e-05
3.249365495e-05
3.173624544e-05
3.100925825e-05
3.324747787e-05
3.276747829e-05
3.221565485e-05
3.148810044e-05
3.109386674e-05
3.3053772e-05
3.268370207e-05
3.231549725e-05
3.180084379e-05
3.126329602e-05
3.324276461e-05
3.308658391e-05
3.288848665e-05
3.217007569e-05
3.147216407e-05
3.330063718e-05
3.291525748e-05
3.267489538e-05
3.217549938e-05
3.151142402e-05
3.322843865e-05
3.307072326e-05
3.270606203e-05
3.21829398e-05
3.151673073e-05
3.32000205e-05
3.309593907e-05
3.283950246e-05
3.256140747e-05
3.205401327e-05
3.342008416e-05
3.339218943e-05
3.304549515e-05
3.275374408e-05
3.243174172e-05
3.255178136e-05
3.192448841e-05
3.083050687e-05
2.886911584e-05
2.468313932e-05
3.255808866e-05
3.192000649e-05
3.054960731e-05
2.85941999e-05
2.554866839e-05
3.274813848e-05
3.213163807e-05
3.110160963e-05
2.961008319e-05
2.717893462e-05
3.284940513e-05
3.242511996e-05
3.147146717e-05
3.02045198e-05
2.858905669e-05
3.282447278e-05
3.229131053e-05
3.133833326e-05
3.00473639e-05
2.884642357e-05
3.298729361e-05
3.249458445e-05
3.179289806e-05
3.085598672e-05
2.980637556e-05
3.284853518e-05
3.258338293e-05
3.231893689e-05
3.133935489e-05
3.036117415e-05
3.304346438e-05
3.282479865e-05
3.240012402e-05
3.167733346e-05
3.051903409e-05
3.306225237e-05
3.291486234e-05
3.259919672e-05
3.1969671e-05
3.099162399e-05
3.301264615e-05
3.288164086e-05
3.244416643e-05
3.195359506e-05
3.123300211e-05
3.331218998e-05
3.328198996e-05
3.279660201e-05
3.208879079e-05
3.143702284e-05
3.320385977e-05
3.286458992e-05
3.275095982e-05
3.211458283e-05
3.145427419e-05
3.335717903e-05
3.307261531e-05
3.288564924e-05
3.24961087e-05
3.203597673e-05
3.315195675e-05
3.290709811e-05
3.270974731e-05
3.224575086e-05
3.198600279e-05
3.331177362e-05
3.307521154e-05
3.292299299e-05
3.261796706e-05
3.197783375e-05
3.343712195e-05
3.329393141e-05
3.287549008e-05
3.234809502e-05
3.20792669e-05
3.331246613e-05
3.315105693e-05
3.2962048e-05
3.307342246e-05
3.275067873e-05
3.333124777e-05
3.321421969e-05
3.306747947e-05
3.277268446e-05
3.246907485e-05
3.274373777e-05
3.219570187e-05
3.106334831e-05
2.924829807e-05
2.511806656e-05
3.278403136e-05
3.199022625e-05
3.089246545e-05
2.918943042e-05
2.633886127e-05
3.272654228e-05
3.217001241e-05
3.128907514e-05
2.976140727e-05
2.745667451e-05
3.276255511e-05
3.236775883e-05
3.149604938e-05
3.020921214e-05
2.873061988e-05
3.296760835e-05
3.242796323e-05
3.1739818e-05
3.054944147e-05
2.957678035e-05
3.30157457e-05
3.259238473e-05
3.208355846e-05
3.124290483e-05
3.035515214e-05
3.292893993e-05
3.262297401e-05
3.231567699e-05
3.180049015e-05
3.075545342e-05
3.310876267e-05
3.260953588e-05
3.216254606e-05
3.200151807e-05
3.110744689e-05
3.294700094e-05
3.264760171e-05
3.248216334e-05
3.19156859e-05
3.11146548e-05
3.310142879e-05
3.280641997e-05
3.264697796e-05
3.248246656e-05
3.187164994e-05
3.323606284e-05
3.307184369e-05
3.28163098e-05
3.259667378e-05
3.209071675e-05
3.320453592e-05
3.290862563e-05
3.268420806e-05
3.234387549e-05
3.183023503e-05
3.325516108e-05
3.314510611e-05
3.2779252e-05
3.2570082e-05
3.221658452e-05
3.326661492e-05
3.305090581e-05
3.280186867e-05
3.252342912e-05
3.210107802e-05
3.320545324e-05
3.29915501e-05
3.284451753e-05
3.27025909e-05
3.232182024e-05
3.341803015e-05
3.331042643e-05
3.314834741e-05
3.287110135e-05
3.272003267e-05
3.333591115e-05
3.326613625e-05
3.308610721e-05
3.283731455e-05
3.265386141e-05
3.345106753e-05
3.356540159e-05
3.345643156e-05
3.317831371e-05
3.300396891e-05
3.272325044e-05
3.224050461e-05
3.112932607e-05
2.940920735e-05
2.530531845e-05
3.287549123e-05
3.235551786e-05
3.102914199e-05
2.943943137e-05
2.63531299e-05
3.278151703e-05
3.237660489e-05
3.128911972e-05
2.969841724e-05
2.785136978e-05
3.295690199e-05
3.228952135e-05
3.157597308e-05
3.04480805e-05
2.925718833e-05
3.303309852e-05
3.26558648e-05
3.208324689e-05
3.117691905e-05
2.986359274e-05
3.300762366e-05
3.260945923e-05
3.19711466e-05
3.131740565e-05
3.037833291e-05
3.314043952e-05
3.276825303e-05
3.235214707e-05
3.157912633e-05
3.09772883e-05
3.312200186e-05
3.28375791e-05
3.259205249e-05
3.210911056e-05
3.151015392e-05
3.310928543e-05
3.265060248e-05
3.259791299e-05
3.223325466e-05
3.163778964e-05
3.304743969e-05
3.288236675e-05
3.264382298e-05
3.221963704e-05
3.18734001e-05
3.329948392e-05
3.295848424e-05
3.271624455e-05
3.235164605e-05
3.19048635e-05
3.323895589e-05
3.310872505e-05
3.290992478e-05
3.261040811e-05
3.227211802e-05
3.338543483e-05
3.30582452e-05
3.304171379e-05
3.281355132e-05
3.238644198e-05
3.332012346e-05
3.305574517e-05
3.313737097e-05
3.284642953e-05
3.242533786e-05
3.34807645e-05
3.337241862e-05
3.313926612e-05
3.290081139e-05
3.271256593e-05
3.333970318e-05
3.310653421e-05
3.308359426e-05
3.274526524e-05
3.278683992e-05
3.344847956e-05
3.330389521e-05
3.331199193e-05
3.320741492e-05
3.306045875e-05
3.340783744e-05
3.326052757e-05
3.320609943e-05
3.318772645e-05
3.315714968e-05
3.290189673e-05
3.265046572e-05
3.178245491e-05
2.990365375e-05
2.55840936e-05
3.288393628e-05
3.25291494e-05
3.151115016e-05
2.972624346e-05
2.653705375e-05
3.296052172e-05
3.245782038e-05
3.165744487e-05
3.011791178e-05
2.802930078e-05
3.297266428e-05
3.247840924e-05
3.174403629e-05
3.06326198e-05
2.9040839e-05
3.293433457e-05
3.277568777e-05
3.200994269e-05
3.113259161e-05
3.01448823e-05
3.299196045e-05
3.263388218e-05
3.231715373e-05
3.183064377e-05
3.111372496e-05
3.315003076e-05
3.287887975e-05
3.248883798e-05
3.211552534e-05
3.138001203e-05
3.309121239e-05
3.29005446e-05
3.264549584e-05
3.219717853e-05
3.162314791e-05
3.32998152e-05
3.302856218e-05
3.295159301e-05
3.250613514e-05
3.229713704e-05
3.32978999e-05
3.309271009e-05
3.312575386e-05
3.27202117e-05
3.221101137e-05
3.327210891e-05
3.315933463e-05
3.289140367e-05
3.253266949e-05
3.228529011e-05
3.326206228e-05
3.31059583e-05
3.284023053e-05
3.258806211e-05
3.236547791e-05
3.324826405e-05
3.295864899e-05
3.289232476e-05
3.271164827e-05
3.258815929e-05
3.334314131e-05
3.338733923e-05
3.333858075e-05
3.328204935e-05
3.296431482e-05
3.338734894e-05
3.329548904e-05
3.303820993e-05
3.307207976e-05
3.282547693e-05
3.328472322e-05
3.325810935e-05
3.336033226e-05
3.313122744e-05
3.278009108e-05
3.340740125e-05
3.320289588e-05
3.304571968e-05
3.297039889e-05
3.296911365e-05
3.330184657e-05
3.338753878e-05
3.335480631e-05
3.324805823e-05
3.312056222e-05
3.296311837e-05
3.257371545e-05
3.168235312e-05
3.000137107e-05
2.585280762e-05
3.302145176e-05
3.255561181e-05
3.157566055e-05
2.97333195e-05
2.652889808e-05
3.299023514e-05
3.250794833e-05
3.174721984e-05
3.02293461e-05
2.810208202e-05
3.297673233e-05
3.249679189e-05
3.181468139e-05
3.066660525e-05
2.928813434e-05
3.289064356e-05
3.258536328e-05
3.19265349e-05
3.106931225e-05
3.00617692e-05
3.306293655e-05
3.286097851e-05
3.218930191e-05
3.172302222e-05
3.084651151e-05
3.318292314e-05
3.291725205e-05
3.260256978e-05
3.211751703e-05
3.159442696e-05
3.308727356e-05
3.281117248e-05
3.261016541e-05
3.221489219e-05
3.18485944e-05
3.317702509e-05
3.278918719e-05
3.250941013e-05
3.230926796e-05
3.214154297e-05
3.320160937e-05
3.309289427e-05
3.292531585e-05
3.270669531e-05
3.251895061e-05
3.328518926e-05
3.31188666e-05
3.287865509e-05
3.272739566e-05
3.2654169e-05
3.32411777e-05
3.320578308e-05
3.321785769e-05
3.308975698e-05
3.297682099e-05
3.325411699e-05
3.320947142e-05
3.315040034e-05
3.300209368e-05
3.277379708e-05
3.334260894e-05
3.323484849e-05
3.313387125e-05
3.294944792e-05
3.276465043e-05
3.331844863e-05
3.338306529e-05
3.334211412e-05
3.312008417e-05
3.286496807e-05
3.340643585e-05
3.329689352e-05
3.321525263e-05
3.302814825e-05
3.278291248e-05
3.33945414e-05
3.326424639e-05
3.330979529e-05
3.303747719e-05
3.296666241e-05
3.34459064e-05
3.339815677e-05
3.326613653e-05
3.306832315e-05
3.291483606e-05
3.310708382e-05
3.248312501e-05
3.183127704e-05
3.007444608e-05
2.586203486e-05
3.302848464e-05
3.249814531e-05
3.147738224e-05
2.95586726e-05
2.673173103e-05
3.307553487e-05
3.264736985e-05
3.184092872e-05
3.03315416e-05
2.830603973e-05
3.307745474e-05
3.2648826e-05
3.206367469e-05
3.101094778e-05
2.973060829e-05
3.294449916e-05
3.265850036e-05
3.222824602e-05
3.147390662e-05
3.039087901e-05
3.311141982e-05
3.273578123e-05
3.24561352e-05
3.188563791e-05
3.101183507e-05
3.294404469e-05
3.264749181e-05
3.230837653e-05
3.214330769e-05
3.143281964e-05
3.320534159e-05
3.303268581e-05
3.293671868e-05
3.260026823e-05
3.19101267e-05
3.31294386e-05
3.311226173e-05
3.288734229e-05
3.258537565e-05
3.209751575e-05
3.332813412e-05
3.324979035e-05
3.306755666e-05
3.269746972e-05
3.259051739e-05
3.329467731e-05
3.329556725e-05
3.298278065e-05
3.280170825e-05
3.271109776e-05
3.344624384e-05
3.342479949e-05
3.327241652e-05
3.314682865e-05
3.283363367e-05
3.337330396e-05
3.314682001e-05
3.312792236e-05
3.28970415e-05
3.2786717e-05
3.336392651e-05
3.330726794e-05
3.320107409e-05
3.30878018e-05
3.29066218e-05
3.334111065e-05
3.327693964e-05
3.318239902e-05
3.314508439e-05
3.293119598e-05
3.332606354e-05
3.336871622e-05
3.33762411e-05
3.345245888e-05
3.340610195e-05
3.333597531e-05
3.324224849e-05
3.330848133e-05
3.326382163e-05
3.322660985e-05
3.337850599e-05
3.325808182e-05
3.332308569e-05
3.329040701e-05
3.323117505e-05
3.315706791e-05
3.261284558e-05
3.181711902e-05
3.025096301e-05
2.601811931e-05
3.314458229e-05
3.273514317e-05
3.188419898e-05
2.986175615e-05
2.705327562e-05
3.296008861e-05
3.241078533e-05
3.170501091e-05
3.027657921e-05
2.839142585e-05
3.311748693e-05
3.290173798e-05
3.210641758e-05
3.106698454e-05
2.978905395e-05
3.312095737e-05
3.292743758e-05
3.241453713e-05
3.150889152e-05
3.066076511e-05
3.316398425e-05
3.292997501e-05
3.272131854e-05
3.211098786e-05
3.141249742e-05
3.321113569e-05
3.30281084e-05
3.26920272e-05
3.235987222e-05
3.151277197e-05
3.311097399e-05
3.296573623e-05
3.294009371e-05
3.266720736e-05
3.225974285e-05
3.325776999e-05
3.317771417e-05
3.314463732e-05
3.301584211e-05
3.25296009e-05
3.328167571e-05
3.301712108e-05
3.29926117e-05
3.28910596e-05
3.26569035e-05
3.323400084e-05
3.31373745e-05
3.298405888e-05
3.274691255e-05
3.265085538e-05
3.324037179e-05
3.314450199e-05
3.325137445e-05
3.313005741e-05
3.297779577e-05
3.336091012e-05
3.347193419e-05
3.322394359e-05
3.300563738e-05
3.296960834e-05
3.348237627e-05
3.359355336e-05
3.357748936e-05
3.343871551e-05
3.321341484e-05
3.328979218e-05
3.318104813e-05
3.320598889e-05
3.29890285e-05
3.307801158e-05
3.351333906e-05
3.338577636e-05
3.331721428e-05
3.336906203e-05
3.319258419e-05
3.344023693e-05
3.364214602e-05
3.363181541e-05
3.357360659e-05
3.344704453e-05
3.340718819e-05
3.332375168e-05
3.314786751e-05
3.305410603e-05
3.302175057e-05
3.283866809e-05
3.246813606e-05
3.179574641e-05
3.036165991e-05
2.614787876e-05
3.295309466e-05
3.254628357e-05
3.180181516e-05
3.031638575e-05
2.739779231e-05
3.303955793e-05
3.252569572e-05
3.195628449e-05
3.076019209e-05
2.867515875e-05
3.300802988e-05
3.290084309e-05
3.216832934e-05
3.128872523e-05
2.996728373e-05
3.304058392e-05
3.283701398e-05
3.235765712e-05
3.182780966e-05
3.10955391e-05
3.300180878e-05
3.290417909e-05
3.255744748e-05
3.20855478e-05
3.146485891e-05
3.324202838e-05
3.302705282e-05
3.272348644e-05
3.245458032e-05
3.204440131e-05
3.327281318e-05
3.317036711e-05
3.295660088e-05
3.262387691e-05
3.224100694e-05
3.321056001e-05
3.316985009e-05
3.291946004e-05
3.266496454e-05
3.237077284e-05
3.335315131e-05
3.33176281e-05
3.298871471e-05
3.288358241e-05
3.279389032e-05
3.347044205e-05
3.353383106e-05
3.364601628e-05
3.351160675e-05
3.327586307e-05
3.320109901e-05
3.322519094e-05
3.3076685e-05
3.321423921e-05
3.304148059e-05
3.358195631e-05
3.360917292e-05
3.353601189e-05
3.345486361e-05
3.336337453e-05
3.339151297e-05
3.318875596e-05
3.316874034e-05
3.316290361e-05
3.314288893e-05
3.351285108e-05
3.345302604e-05
3.338518824e-05
3.327688492e-05
3.327524988e-05
3.344678092e-05
3.341265059e-05
3.329834741e-05
3.31802824e-05
3.299450345e-05
3.339707569e-05
3.332247759e-05
3.325046488e-05
3.338419026e-05
3.337235007e-05
3.340887435e-05
3.345663219e-05
3.356201276e-05
3.358525968e-05
3.337903887e-05
3.31256845e-05
3.284855446e-05
3.219652894e-05
3.069880164e-05
2.629881119e-05
3.303681852e-05
3.272278975e-05
3.19617273e-05
3.040646149e-05
2.72151125e-05
3.315420358e-05
3.297772737e-05
3.227217306e-05
3.099683283e-05
2.906339614e-05
3.310960528e-05
3.291286874e-05
3.228402377e-05
3.108442277e-05
2.988059101e-05
3.319165978e-05
3.294745551e-05
3.247711658e-05
3.192951892e-05
3.111101882e-05
3.322631572e-05
3.286706435e-05
3.280010907e-05
3.233761884e-05
3.197078085e-05
3.326163505e-05
3.304718421e-05
3.274783794e-05
3.227776186e-05
3.178084459e-05
3.326443241e-05
3.310023364e-05
3.291834936e-05
3.281153116e-05
3.240178375e-05
3.336939678e-05
3.348227716e-05
3.332688341e-05
3.320778494e-05
3.288087339e-05
3.321102538e-05
3.301179901e-05
3.291357189e-05
3.286747151e-05
3.283435882e-05
3.331729912e-05
3.332589639e-05
3.328822797e-05
3.299083828e-05
3.28748486e-05
3.332457417e-05
3.326009128e-05
3.333928184e-05
3.329353091e-05
3.31639964e-05
3.33856247e-05
3.335544514e-05
3.320903137e-05
3.316465889e-05
3.309283215e-05
3.336767898e-05
3.31847871e-05
3.312051291e-05
3.309473453e-05
3.305241527e-05
3.325814885e-05
3.335713695e-05
3.351559175e-05
3.3493171e-05
3.338203515e-05
3.352371644e-05
3.354445573e-05
3.339500406e-05
3.326300037e-05
3.311408532e-05
3.328937851e-05
3.334939572e-05
3.339881192e-05
3.341270632e-05
3.334771068e-05
3.345124529e-05
3.348228667e-05
3.331231282e-05
3.330350909e-05
3.323898616e-05
3.327707762e-05
3.278628143e-05
3.204404471e-05
3.07759993e-05
2.628056413e-05
3.318382053e-05
3.28392149e-05
3.21290114e-05
3.08321287e-05
2.773230979e-05
3.315611644e-05
3.282629771e-05
3.204445772e-05
3.113031149e-05
2.923134984e-05
3.300234676e-05
3.274248115e-05
3.219883305e-05
3.155455621e-05
3.051913538e-05
3.322973655e-05
3.277421439e-05
3.224837455e-05
3.182138273e-05
3.104131478e-05
3.311457018e-05
3.30191728e-05
3.281120595e-05
3.260885578e-05
3.189308585e-05
3.324931997e-05
3.321849648e-05
3.304787582e-05
3.252448901e-05
3.223540048e-05
3.334638727e-05
3.330215031e-05
3.313214383e-05
3.308775452e-05
3.288871025e-05
3.348415284e-05
3.363915339e-05
3.351784114e-05
3.343046048e-05
3.297235864e-05
3.336519889e-05
3.33135013e-05
3.299203122e-05
3.295218112e-05
3.288590654e-05
3.332480406e-05
3.315763966e-05
3.323844789e-05
3.307852483e-05
3.306336483e-05
3.345592994e-05
3.349012613e-05
3.345037021e-05
3.324854973e-05
3.312936778e-05
3.330268246e-05
3.321985968e-05
3.320944156e-05
3.309495244e-05
3.299887691e-05
3.329355343e-05
3.332750747e-05
3.310237723e-05
3.308728034e-05
3.2990699e-05
3.339616039e-05
3.325661452e-05
3.314951071e-05
3.315888588e-05
3.314409591e-05
3.329017554e-05
3.336323321e-05
3.329599859e-05
3.340291653e-05
3.343578388e-05
3.349973904e-05
3.344906164e-05
3.350970114e-05
3.344427396e-05
3.336750579e-05
3.343332679e-05
3.335123718e-05
3.329816587e-05
3.335008622e-05
3.346297437e-05
3.323437453e-05
3.315016388e-05
3.290706076e-05
3.137178036e-05
2.681608886e-05
3.317085768e-05
3.271926531e-05
3.231901524e-05
3.095957321e-05
2.803528034e-05
3.321997663e-05
3.284136983e-05
3.23270362e-05
3.114431363e-05
2.971721698e-05
3.318006399e-05
3.297115441e-05
3.26606725e-05
3.203093562e-05
3.093611338e-05
3.327206179e-05
3.305312693e-05
3.276110297e-05
3.232461661e-05
3.149704704e-05
3.314290501e-05
3.302212093e-05
3.278379417e-05
3.241430547e-05
3.195273753e-05
3.313172511e-05
3.312550032e-05
3.311948209e-05
3.298747449e-05
3.264112231e-05
3.330707669e-05
3.31886078e-05
3.30481328e-05
3.284189486e-05
3.265066891e-05
3.338317372e-05
3.328310232e-05
3.301843779e-05
3.294144789e-05
3.282383742e-05
3.326340048e-05
3.314189811e-05
3.321464616e-05
3.325850484e-05
3.32457558e-05
3.326380358e-05
3.318836877e-05
3.299540246e-05
3.301217057e-05
3.2769166e-05
3.34320827e-05
3.338582194e-05
3.345418616e-05
3.34621891e-05
3.324628844e-05
3.34228058e-05
3.349048666e-05
3.349876666e-05
3.337480655e-05
3.338293469e-05
3.344652196e-05
3.340027297e-05
3.330054735e-05
3.323986456e-05
3.332203627e-05
3.345509751e-05
3.359424376e-05
3.362259104e-05
3.364294027e-05
3.365862897e-05
3.329152781e-05
3.3210613e-05
3.327831435e-05
3.323484976e-05
3.332563141e-05
3.339181646e-05
3.349633011e-05
3.346589082e-05
3.343359257e-05
3.34341338e-05
3.343438183e-05
3.340620426e-05
3.334822654e-05
3.328412654e-05
3.325796413e-05
3.323721227e-05
3.300546519e-05
3.261209161e-05
3.166811639e-05
2.775830831e-05
3.31751386e-05
3.304854862e-05
3.266529504e-05
3.147247781e-05
2.912220347e-05
3.326420059e-05
3.290138578e-05
3.236761748e-05
3.146352387e-05
3.059189152e-05
3.328534286e-05
3.311699164e-05
3.271070771e-05
3.228712134e-05
3.151444902e-05
3.328115385e-05
3.307399146e-05
3.280422754e-05
3.257238548e-05
3.208797979e-05
3.338705477e-05
3.332436945e-05
3.331230162e-05
3.294015023e-05
3.259005263e-05
3.341030988e-05
3.322278702e-05
3.317344216e-05
3.283814459e-05
3.238970552e-05
3.33380894e-05
3.328113013e-05
3.313296825e-05
3.31172539e-05
3.274134074e-05
3.334511749e-05
3.325266201e-05
3.313030946e-05
3.29528587e-05
3.303338327e-05
3.342083241e-05
3.331865672e-05
3.327644298e-05
3.318599683e-05
3.311275094e-05
3.340418081e-05
3.339645471e-05
3.319386815e-05
3.313610118e-05
3.310805845e-05
3.337286155e-05
3.320975348e-05
3.329993401e-05
3.330325218e-05
3.32954381e-05
3.337105828e-05
3.345593095e-05
3.339883417e-05
3.34075455e-05
3.333943145e-05
3.344192411e-05
3.345215324e-05
3.335212469e-05
3.327920344e-05
3.315493601e-05
3.33645195e-05
3.337304919e-05
3.339026081e-05
3.343987912e-05
3.33192239e-05
3.329341364e-05
3.329443688e-05
3.338722575e-05
3.329977975e-05
3.333826234e-05
3.335129371e-05
3.332554047e-05
3.318972009e-05
3.320195604e-05
3.319640545e-05
3.343096032e-05
3.33811846e-05
3.336833228e-05
3.342390836e-05
3.331165535e-05
1.350398025e-05
1.200107132e-05
1.156416866e-05
1.146422325e-05
1.155295901e-05
1.162744526e-05
1.194797072e-05
1.20217472e-05
1.224784185e-05
1.240752812e-05
1.238893691e-05
1.25734397e-05
1.280291741e-05
1.296888227e-05
1.329459781e-05
1.357855017e-05
1.406317615e-05
1.45451847e-05
1.49924601e-05
1.588475901e-05
1.663900571e-05
1.798619317e-05
2.010925554e-05
2.304585955e-05
3.028420918e-05
1.556471772e-05
1.341383574e-05
1.238545192e-05
1.201891853e-05
1.185106057e-05
1.184124682e-05
1.205512354e-05
1.2263001e-05
1.226241966e-05
1.256859576e-05
1.265050579e-05
1.288233326e-05
1.322655404e-05
1.3437552e-05
1.374793184e-05
1.402781222e-05
1.442303032e-05
1.493576432e-05
1.539787582e-05
1.619958178e-05
1.722789277e-05
1.845997112e-05
2.017039542e-05
2.325475399e-05
2.962880744e-05
1.689311542e-05
1.491784255e-05
1.372232391e-05
1.305331678e-05
1.271620795e-05
1.261031349e-05
1.23982129e-05
1.254180441e-05
1.269176352e-05
1.286127906e-05
1.303576718e-05
1.304629817e-05
1.322515375e-05
1.360090404e-05
1.384902163e-05
1.407211732e-05
1.464607666e-05
1.52041126e-05
1.570678563e-05
1.62917133e-05
1.728988167e-05
1.849552183e-05
2.009923439e-05
2.289220773e-05
2.854269661e-05
1.771341778e-05
1.587280077e-05
1.485124419e-05
1.419757236e-05
1.37748465e-05
1.339135764e-05
1.311585725e-05
1.303611042e-05
1.297815499e-05
1.308140719e-05
1.318113534e-05
1.328734238e-05
1.34838385e-05
1.373936766e-05
1.405152486e-05
1.430521224e-05
1.467779253e-05
1.524927044e-05
1.572779362e-05
1.647803756e-05
1.73222314e-05
1.840955016e-05
1.989405473e-05
2.25280932e-05
2.746303966e-05
1.825377194e-05
1.681711858e-05
1.573911278e-05
1.508636592e-05
1.464921927e-05
1.425373527e-05
1.384878401e-05
1.368393017e-05
1.351375612e-05
1.34834634e-05
1.368255769e-05
1.358943079e-05
1.372229184e-05
1.39345161e-05
1.421611877e-05
1.452831787e-05
1.514213841e-05
1.538681431e-05
1.58145521e-05
1.641741301e-05
1.735046995e-05
1.82957955e-05
1.978708761e-05
2.216736276e-05
2.681721901e-05
1.879927536e-05
1.719969497e-05
1.63745491e-05
1.589707582e-05
1.55329479e-05
1.504571968e-05
1.472018011e-05
1.435843882e-05
1.414065487e-05
1.402496371e-05
1.405773134e-05
1.402550541e-05
1.398389972e-05
1.428247661e-05
1.461489661e-05
1.48365592e-05
1.513668661e-05
1.552095864e-05
1.591449147e-05
1.659571712e-05
1.732082656e-05
1.839940674e-05
1.974480001e-05
2.187991985e-05
2.600071707e-05
1.926632195e-05
1.790018739e-05
1.700241396e-05
1.667140919e-05
1.630918543e-05
1.597579472e-05
1.549091608e-05
1.526458108e-05
1.493422448e-05
1.469368016e-05
1.458305166e-05
1.472985443e-05
1.4656837e-05
1.4620224e-05
1.494255652e-05
1.513370998e-05
1.545205344e-05
1.581129791e-05
1.613202003e-05
1.671239203e-05
1.751027986e-05
1.834028008e-05
1.981246175e-05
2.154556489e-05
2.516027687e-05
1.930990349e-05
1.789380355e-05
1.743259488e-05
1.708540481e-05
1.672810165e-05
1.651432812e-05
1.612010724e-05
1.580370279e-05
1.564776292e-05
1.549183622e-05
1.541911448e-05
1.525786886e-05
1.531843779e-05
1.513719364e-05
1.55281001e-05
1.538268475e-05
1.56923161e-05
1.608508774e-05
1.653790673e-05
1.713204118e-05
1.778118499e-05
1.854797996e-05
1.978121298e-05
2.165416944e-05
2.519108694e-05
1.924467234e-05
1.80637041e-05
1.771596042e-05
1.769526604e-05
1.748206246e-05
1.721848608e-05
1.698600913e-05
1.66620111e-05
1.65892591e-05
1.622429893e-05
1.606469992e-05
1.59904048e-05
1.589447734e-05
1.583732673e-05