/*--------------------------------*- C++ -*----------------------------------*\
| =========                 |                                                 |
| \\      /  F ield         | OpenFOAM: The Open Source CFD Toolbox           |
|  \\    /   O peration     | Version:  v1706                                 |
|   \\  /    A nd           | Web:      www.OpenFOAM.com                      |
|    \\/     M anipulation  |                                                 |
\*---------------------------------------------------------------------------*/
FoamFile
{
    version     2.0;
    format      ascii;
    class       volScalarField;
    location    "0.003";
    object      mctToDt_Ar;
}
// * * * * * * * * * * * * * * * * * * * * * * * * * * * * * * * * * * * * * //

dimensions      [0 0 0 0 0 0 0];


internalField   nonuniform List<scalar> 
9720
(
32.28623121
31.37077212
29.44731258
26.12132777
20.25142792
32.50636994
31.57830221
29.82131803
26.69637937
21.28829291
32.56383785
31.46873267
29.5818098
26.80383595
22.31572321
32.36922011
31.4544376
30.06330184
27.52542526
23.25132044
32.68550095
31.80057562
30.42206111
28.12717801
23.84259839
32.66730604
31.72843583
30.63337967
28.58291067
24.45336268
32.85057844
32.20565578
31.11062743
29.10481761
25.06362842
32.84687782
32.31905115
31.29242478
29.40401879
25.10261999
32.99942617
32.39482043
31.52013957
29.43259511
25.22499025
32.97076461
32.63493099
31.67648107
29.8534207
25.44890187
33.06677796
32.51208492
31.44239001
29.84375992
25.65133486
33.17693783
32.82370973
31.84735265
30.09006837
25.80574651
33.13686992
32.66006181
31.83441837
30.14745286
25.72318264
33.18671516
32.6695951
31.90148273
30.19872122
25.88329856
33.1591467
32.78439001
32.14558533
30.65034623
26.3197609
33.12428615
32.86561799
32.12259198
30.66626833
26.41456461
33.20047676
32.99369521
32.40696874
31.19632933
26.79828688
33.14013603
33.00628556
32.7404854
31.70714393
28.00101882
32.4559857
31.36345337
29.39652821
26.2212167
21.01534391
32.51411578
31.36047639
29.65522884
26.24166113
21.9434947
32.30504931
31.31432101
29.73965495
27.04302967
23.21353748
32.53634978
31.43117828
29.90857167
27.4046338
23.89890491
32.70213448
32.07783855
30.56939252
28.22624884
24.69736576
32.6476788
31.90488168
30.48027524
28.24899998
25.16268592
32.48546657
31.81187845
30.72525286
28.84544484
25.8848429
32.98345164
32.19293846
31.19395349
28.99897074
26.09462431
32.92866327
32.34199213
31.41281881
29.51422116
26.48060181
32.9278168
32.38187088
31.48383735
29.59904211
26.66439986
33.05797277
32.59291016
31.59094248
29.54427428
26.5072249
32.85406868
32.61169138
31.54036349
29.86382473
26.91614659
32.97677036
32.3954379
31.50045445
29.61006901
26.92119685
33.11896092
32.74865142
31.8826995
30.1070523
27.26809002
33.02653204
32.68406559
31.84260665
30.14720694
27.43759031
33.0329736
32.72603692
32.01922791
30.37937445
27.56511968
32.95341922
32.71043294
32.24893299
31.00569199
28.29458968
33.40549894
33.13893589
32.53321368
31.25766578
29.23566334
32.45760333
31.48504867
29.57759769
26.78709453
22.40321417
32.37683605
31.40856242
29.64668541
26.94670606
23.21238487
32.4623719
31.35759404
29.92095441
27.30413483
24.13158315
32.72890483
31.86890723
30.18191815
27.93597036
25.224051
32.59838861
31.93135827
30.50985433
28.58918096
26.10181725
32.6362463
31.86627804
30.5267215
28.98884311
26.66716056
32.73337841
31.93696433
30.88979817
29.52062179
27.14570288
32.82010393
32.4328253
31.33044903
29.73234941
27.57100218
32.8237957
32.26373375
31.45573689
29.91327946
27.86049521
32.95507182
32.41169653
31.64950942
30.31523309
28.26922495
33.01067114
32.41859714
31.61125329
30.39472589
28.19902702
32.99188959
32.50001989
31.89050297
30.38546095
28.19553939
33.00910103
32.45780853
31.78071875
30.44810427
28.30093912
33.05496348
32.70132459
31.77075805
30.28578221
28.49729871
32.89262426
32.6458448
31.91920534
30.77679926
28.70234643
33.07247138
32.69742708
32.03320255
30.77203066
29.17965548
33.12168668
32.91863102
32.38434144
31.36062128
29.66148296
33.21917543
32.822123
32.49138931
31.63364679
30.38026536
32.61461548
31.72262411
30.19010853
27.66423475
23.57514527
32.62134298
31.60049315
29.96722126
27.62530319
24.17329667
32.75799769
31.54560126
30.00373074
28.03323297
25.4043413
32.57073843
31.80160122
30.33803868
28.33271414
26.27872323
32.60085746
31.9395871
30.67190865
29.0595034
27.21734054
32.82089825
31.98803535
30.83928493
29.49411481
27.77089605
32.6494629
32.08129802
31.44413979
30.11045812
28.10824004
32.81424605
32.2878895
31.47016339
30.21312856
28.57059212
32.82543731
32.42312584
31.60899729
30.52282679
29.0491742
32.86674493
32.53364408
31.84663505
30.70264829
29.32325186
32.99560817
32.67608154
31.88641108
30.80333795
29.54232181
32.9383295
32.4787877
31.74987913
30.66385961
29.36092973
33.0927044
32.70758832
31.99790365
30.99858807
29.81088074
33.1059322
32.68474647
32.13289728
31.24757982
29.78331087
33.1213074
32.73696736
32.20961677
31.37763649
29.93421447
33.21370386
32.92343844
32.3499463
31.66801249
30.17566454
33.21847672
32.99690793
32.63981601
31.77091049
30.82124658
33.26384527
33.16971835
32.91338144
32.24153896
31.22017664
32.41435059
31.82170115
30.44991023
28.25667953
23.99972239
32.49899502
31.51079643
30.23916457
27.97206508
24.81811835
32.40472994
31.36478013
30.12176011
28.24015834
25.87898729
32.71883624
31.94174412
30.70579459
29.03269511
27.03825927
32.85455549
32.07222882
30.90501663
29.71611969
28.16220064
32.75109501
32.18395347
31.2077153
29.96545133
28.54027367
32.65100109
32.13989302
31.34806617
30.38149177
28.95306235
32.70884538
32.2713684
31.52998053
30.5949711
29.40854565
32.951968
32.26132582
31.61717067
30.94387517
29.92626076
33.05235054
32.53943651
31.83008402
31.09776735
29.84673839
32.95539124
32.64912753
32.00985104
31.51549262
30.38113024
32.8380314
32.74162493
32.38186135
31.53306233
30.41042869
33.1074551
32.91415357
32.48341191
31.52603451
30.90900742
33.17306094
32.89458396
32.36815034
31.76174326
31.05918064
33.16503118
32.84831173
32.6193217
32.12099888
31.09092223
33.2351872
32.94982195
32.7538187
32.0705335
31.30762532
33.21924079
32.89617881
32.52957352
32.15803573
31.35998008
33.14524321
32.89874419
32.69478669
32.38714123
31.90294019
32.65090989
31.64760479
30.45219532
28.63782665
24.39544763
32.66154983
31.7201195
30.38330925
28.50114869
25.39367463
32.53815914
31.84655229
30.71467023
28.97221074
26.8201494
32.58290186
31.91559037
31.03141288
29.56332202
27.93454426
32.80631688
32.11464466
31.19910888
29.86164493
28.73519467
32.87431163
32.36852034
31.69186192
30.38595088
28.9212937
32.975021
32.32636232
31.72677147
30.9249517
29.8969881
33.07305216
32.45211604
31.94645708
31.20205459
30.11243638
32.92384573
32.64666116
32.07290088
31.51228001
30.41191945
32.92931334
32.62549414
32.22053571
31.61643972
30.84418948
33.18037962
33.03981838
32.49365495
31.73624544
31.00925825
33.24747787
32.76747829
32.21565485
31.48810044
31.09386674
33.053772
32.68370207
32.31549725
31.80084379
31.26329602
33.24276461
33.08658391
32.88848665
32.17007569
31.47216407
33.30063718
32.91525748
32.67489538
32.17549938
31.51142402
33.22843865
33.07072326
32.70606203
32.1829398
31.51673073
33.2000205
33.09593907
32.83950246
32.56140747
32.05401327
33.42008416
33.39218943
33.04549515
32.75374408
32.43174172
32.55178136
31.92448841
30.83050687
28.86911584
24.68313932
32.55808866
31.92000649
30.54960731
28.5941999
25.54866839
32.74813848
32.13163807
31.10160963
29.61008319
27.17893462
32.84940513
32.42511996
31.47146717
30.2045198
28.58905669
32.82447278
32.29131053
31.33833326
30.0473639
28.84642357
32.98729361
32.49458445
31.79289806
30.85598672
29.80637556
32.84853518
32.58338293
32.31893689
31.33935489
30.36117415
33.04346438
32.82479865
32.40012402
31.67733346
30.51903409
33.06225237
32.91486234
32.59919672
31.969671
30.99162399
33.01264615
32.88164086
32.44416643
31.95359506
31.23300211
33.31218998
33.28198996
32.79660201
32.08879079
31.43702284
33.20385977
32.86458992
32.75095982
32.11458283
31.45427419
33.35717903
33.07261531
32.88564924
32.4961087
32.03597673
33.15195675
32.90709811
32.70974731
32.24575086
31.98600279
33.31177362
33.07521154
32.92299299
32.61796706
31.97783375
33.43712195
33.29393141
32.87549008
32.34809502
32.0792669
33.31246613
33.15105693
32.962048
33.07342246
32.75067873
33.33124777
33.21421969
33.06747947
32.77268446
32.46907485
32.74373777
32.19570187
31.06334831
29.24829807
25.11806656
32.78403136
31.99022625
30.89246545
29.18943042
26.33886127
32.72654228
32.17001241
31.28907514
29.76140727
27.45667451
32.76255511
32.36775883
31.49604938
30.20921214
28.73061988
32.96760835
32.42796323
31.739818
30.54944147
29.57678035
33.0157457
32.59238473
32.08355846
31.24290483
30.35515214
32.92893993
32.62297401
32.31567699
31.80049015
30.75545342
33.10876267
32.60953588
32.16254606
32.00151807
31.10744689
32.94700094
32.64760171
32.48216334
31.9156859
31.1146548
33.10142879
32.80641997
32.64697796
32.48246656
31.87164994
33.23606284
33.07184369
32.8163098
32.59667378
32.09071675
33.20453592
32.90862563
32.68420806
32.34387549
31.83023503
33.25516108
33.14510611
32.779252
32.570082
32.21658452
33.26661492
33.05090581
32.80186867
32.52342912
32.10107802
33.20545324
32.9915501
32.84451753
32.7025909
32.32182024
33.41803015
33.31042643
33.14834741
32.87110135
32.72003267
33.33591115
33.26613625
33.08610721
32.83731455
32.65386141
33.45106753
33.56540159
33.45643156
33.17831371
33.00396891
32.72325044
32.24050461
31.12932607
29.40920735
25.30531845
32.87549123
32.35551786
31.02914199
29.43943137
26.3531299
32.78151703
32.37660489
31.28911972
29.69841724
27.85136978
32.95690199
32.28952135
31.57597308
30.4480805
29.25718833
33.03309852
32.6558648
32.08324689
31.17691905
29.86359274
33.00762366
32.60945923
31.9711466
31.31740565
30.37833291
33.14043952
32.76825303
32.35214707
31.57912633
30.9772883
33.12200186
32.8375791
32.59205249
32.10911056
31.51015392
33.10928543
32.65060248
32.59791299
32.23325466
31.63778964
33.04743969
32.88236675
32.64382298
32.21963704
31.8734001
33.29948392
32.95848424
32.71624455
32.35164605
31.9048635
33.23895589
33.10872505
32.90992478
32.61040811
32.27211802
33.38543483
33.0582452
33.04171379
32.81355132
32.38644198
33.32012346
33.05574517
33.13737097
32.84642953
32.42533786
33.4807645
33.37241862
33.13926612
32.90081139
32.71256593
33.33970318
33.10653421
33.08359426
32.74526524
32.78683992
33.44847956
33.30389521
33.31199193
33.20741492
33.06045875
33.40783744
33.26052757
33.20609943
33.18772645
33.15714968
32.90189673
32.65046572
31.78245491
29.90365375
25.5840936
32.88393628
32.5291494
31.51115016
29.72624346
26.53705375
32.96052172
32.45782038
31.65744487
30.11791178
28.02930078
32.97266428
32.47840924
31.74403629
30.6326198
29.040839
32.93433457
32.77568777
32.00994269
31.13259161
30.1448823
32.99196045
32.63388218
32.31715373
31.83064377
31.11372496
33.15003076
32.87887975
32.48883798
32.11552534
31.38001203
33.09121239
32.9005446
32.64549584
32.19717853
31.62314791
33.2998152
33.02856218
32.95159301
32.50613514
32.29713704
33.2978999
33.09271009
33.12575386
32.7202117
32.21101137
33.27210891
33.15933463
32.89140367
32.53266949
32.28529011
33.26206228
33.1059583
32.84023053
32.58806211
32.36547791
33.24826405
32.95864899
32.89232476
32.71164827
32.58815929
33.34314131
33.38733923
33.33858075
33.28204935
32.96431482
33.38734894
33.29548904
33.03820993
33.07207976
32.82547693
33.28472322
33.25810935
33.36033226
33.13122744
32.78009108
33.40740125
33.20289588
33.04571968
32.97039889
32.96911365
33.30184657
33.38753878
33.35480631
33.24805823
33.12056222
32.96311837
32.57371545
31.68235312
30.00137107
25.85280762
33.02145176
32.55561181
31.57566055
29.7333195
26.52889808
32.99023514
32.50794833
31.74721984
30.2293461
28.10208202
32.97673233
32.49679189
31.81468139
30.66660525
29.28813434
32.89064356
32.58536328
31.9265349
31.06931225
30.0617692
33.06293655
32.86097851
32.18930191
31.72302222
30.84651151
33.18292314
32.91725205
32.60256978
32.11751703
31.59442696
33.08727356
32.81117248
32.61016541
32.21489219
31.8485944
33.17702509
32.78918719
32.50941013
32.30926796
32.14154297
33.20160937
33.09289427
32.92531585
32.70669531
32.51895061
33.28518926
33.1188666
32.87865509
32.72739566
32.654169
33.2411777
33.20578308
33.21785769
33.08975698
32.97682099
33.25411699
33.20947142
33.15040034
33.00209368
32.77379708
33.34260894
33.23484849
33.13387125
32.94944792
32.76465043
33.31844863
33.38306529
33.34211412
33.12008417
32.86496807
33.40643585
33.29689352
33.21525263
33.02814825
32.78291248
33.3945414
33.26424639
33.30979529
33.03747719
32.96666241
33.4459064
33.39815677
33.26613653
33.06832315
32.91483606
33.10708382
32.48312501
31.83127704
30.07444608
25.86203486
33.02848464
32.49814531
31.47738224
29.5586726
26.73173103
33.07553487
32.64736985
31.84092872
30.3315416
28.30603973
33.07745474
32.648826
32.06367469
31.01094778
29.73060829
32.94449916
32.65850036
32.22824602
31.47390662
30.39087901
33.11141982
32.73578123
32.4561352
31.88563791
31.01183507
32.94404469
32.64749181
32.30837653
32.14330769
31.43281964
33.20534159
33.03268581
32.93671868
32.60026823
31.9101267
33.1294386
33.11226173
32.88734229
32.58537565
32.09751575
33.32813412
33.24979035
33.06755666
32.69746972
32.59051739
33.29467731
33.29556725
32.98278065
32.80170825
32.71109776
33.44624384
33.42479949
33.27241652
33.14682865
32.83363367
33.37330396
33.14682001
33.12792236
32.8970415
32.786717
33.36392651
33.30726794
33.20107409
33.0878018
32.9066218
33.34111065
33.27693964
33.18239902
33.14508439
32.93119598
33.32606354
33.36871622
33.3762411
33.45245888
33.40610195
33.33597531
33.24224849
33.30848133
33.26382163
33.22660985
33.37850599
33.25808182
33.32308569
33.29040701
33.23117505
33.15706791
32.61284558
31.81711902
30.25096301
26.01811931
33.14458229
32.73514317
31.88419898
29.86175615
27.05327562
32.96008861
32.41078533
31.70501091
30.27657921
28.39142585
33.11748693
32.90173798
32.10641758
31.06698454
29.78905395
33.12095737
32.92743758
32.41453713
31.50889152
30.66076511
33.16398425
32.92997501
32.72131854
32.11098786
31.41249742
33.21113569
33.0281084
32.6920272
32.35987222
31.51277197
33.11097399
32.96573623
32.94009371
32.66720736
32.25974285
33.25776999
33.17771417
33.14463732
33.01584211
32.5296009
33.28167571
33.01712108
32.9926117
32.8910596
32.6569035
33.23400084
33.1373745
32.98405888
32.74691255
32.65085538
33.24037179
33.14450199
33.25137445
33.13005741
32.97779577
33.36091012
33.47193419
33.22394359
33.00563738
32.96960834
33.48237627
33.59355336
33.57748936
33.43871551
33.21341484
33.28979218
33.18104813
33.20598889
32.9890285
33.07801158
33.51333906
33.38577636
33.31721428
33.36906203
33.19258419
33.44023693
33.64214602
33.63181541
33.57360659
33.44704453
33.40718819
33.32375168
33.14786751
33.05410603
33.02175057
32.83866809
32.46813606
31.79574641
30.36165991
26.14787876
32.95309466
32.54628357
31.80181516
30.31638575
27.39779231
33.03955793
32.52569572
31.95628449
30.76019209
28.67515875
33.00802988
32.90084309
32.16832934
31.28872523
29.96728373
33.04058392
32.83701398
32.35765712
31.82780966
31.0955391
33.00180878
32.90417909
32.55744748
32.0855478
31.46485891
33.24202838
33.02705282
32.72348644
32.45458032
32.04440131
33.27281318
33.17036711
32.95660088
32.62387691
32.24100694
33.21056001
33.16985009
32.91946004
32.66496454
32.37077284
33.35315131
33.3176281
32.98871471
32.88358241
32.79389032
33.47044205
33.53383106
33.64601628
33.51160675
33.27586307
33.20109901
33.22519094
33.076685
33.21423921
33.04148059
33.58195631
33.60917292
33.53601189
33.45486361
33.36337453
33.39151297
33.18875596
33.16874034
33.16290361
33.14288893
33.51285108
33.45302604
33.38518824
33.27688492
33.27524988
33.44678092
33.41265059
33.29834741
33.1802824
32.99450345
33.39707569
33.32247759
33.25046488
33.38419026
33.37235007
33.40887435
33.45663219
33.56201276
33.58525968
33.37903887
33.1256845
32.84855446
32.19652894
30.69880164
26.29881119
33.03681852
32.72278975
31.9617273
30.40646149
27.2151125
33.15420358
32.97772737
32.27217306
30.99683283
29.06339614
33.10960528
32.91286874
32.28402377
31.08442277
29.88059101
33.19165978
32.94745551
32.47711658
31.92951892
31.11101882
33.22631572
32.86706435
32.80010907
32.33761884
31.97078085
33.26163505
33.04718421
32.74783794
32.27776186
31.78084459
33.26443241
33.10023364
32.91834936
32.81153116
32.40178375
33.36939678
33.48227716
33.32688341
33.20778494
32.88087339
33.21102538
33.01179901
32.91357189
32.86747151
32.83435882
33.31729912
33.32589639
33.28822797
32.99083828
32.8748486
33.32457417
33.26009128
33.33928184
33.29353091
33.1639964
33.3856247
33.35544514
33.20903137
33.16465889
33.09283215
33.36767898
33.1847871
33.12051291
33.09473453
33.05241527
33.25814885
33.35713695
33.51559175
33.493171
33.38203515
33.52371644
33.54445573
33.39500406
33.26300037
33.11408532
33.28937851
33.34939572
33.39881192
33.41270632
33.34771068
33.45124529
33.48228667
33.31231282
33.30350909
33.23898616
33.27707762
32.78628143
32.04404471
30.7759993
26.28056413
33.18382053
32.8392149
32.1290114
30.8321287
27.73230979
33.15611644
32.82629771
32.04445772
31.13031149
29.23134984
33.00234676
32.74248115
32.19883305
31.55455621
30.51913538
33.22973655
32.77421439
32.24837455
31.82138273
31.04131478
33.11457018
33.0191728
32.81120595
32.60885578
31.89308585
33.24931997
33.21849648
33.04787582
32.52448901
32.23540048
33.34638727
33.30215031
33.13214383
33.08775452
32.88871025
33.48415284
33.63915339
33.51784114
33.43046048
32.97235864
33.36519889
33.3135013
32.99203122
32.95218112
32.88590654
33.32480406
33.15763966
33.23844789
33.07852483
33.06336483
33.45592994
33.49012613
33.45037021
33.24854973
33.12936778
33.30268246
33.21985968
33.20944156
33.09495244
32.99887691
33.29355343
33.32750747
33.10237723
33.08728034
32.990699
33.39616039
33.25661452
33.14951071
33.15888588
33.14409591
33.29017554
33.36323321
33.29599859
33.40291653
33.43578388
33.49973904
33.44906164
33.50970114
33.44427396
33.36750579
33.43332679
33.35123718
33.29816587
33.35008622
33.46297437
33.23437453
33.15016388
32.90706076
31.37178036
26.81608886
33.17085768
32.71926531
32.31901524
30.95957321
28.03528034
33.21997663
32.84136983
32.3270362
31.14431363
29.71721698
33.18006399
32.97115441
32.6606725
32.03093562
30.93611338
33.27206179
33.05312693
32.76110297
32.32461661
31.49704704
33.14290501
33.02212093
32.78379417
32.41430547
31.95273753
33.13172511
33.12550032
33.11948209
32.98747449
32.64112231
33.30707669
33.1886078
33.0481328
32.84189486
32.65066891
33.38317372
33.28310232
33.01843779
32.94144789
32.82383742
33.26340048
33.14189811
33.21464616
33.25850484
33.2457558
33.26380358
33.18836877
32.99540246
33.01217057
32.769166
33.4320827
33.38582194
33.45418616
33.4621891
33.24628844
33.4228058
33.49048666
33.49876666
33.37480655
33.38293469
33.44652196
33.40027297
33.30054735
33.23986456
33.32203627
33.45509751
33.59424376
33.62259104
33.64294027
33.65862897
33.29152781
33.210613
33.27831435
33.23484976
33.32563141
33.39181646
33.49633011
33.46589082
33.43359257
33.4341338
33.43438183
33.40620426
33.34822654
33.28412654
33.25796413
33.23721227
33.00546519
32.61209161
31.66811639
27.75830831
33.1751386
33.04854862
32.66529504
31.47247781
29.12220347
33.26420059
32.90138578
32.36761748
31.46352387
30.59189152
33.28534286
33.11699164
32.71070771
32.28712134
31.51444902
33.28115385
33.07399146
32.80422754
32.57238548
32.08797979
33.38705477
33.32436945
33.31230162
32.94015023
32.59005263
33.41030988
33.22278702
33.17344216
32.83814459
32.38970552
33.3380894
33.28113013
33.13296825
33.1172539
32.74134074
33.34511749
33.25266201
33.13030946
32.9528587
33.03338327
33.42083241
33.31865672
33.27644298
33.18599683
33.11275094
33.40418081
33.39645471
33.19386815
33.13610118
33.10805845
33.37286155
33.20975348
33.29993401
33.30325218
33.2954381
33.37105828
33.45593095
33.39883417
33.4075455
33.33943145
33.44192411
33.45215324
33.35212469
33.27920344
33.15493601
33.3645195
33.37304919
33.39026081
33.43987912
33.3192239
33.29341364
33.29443688
33.38722575
33.29977975
33.33826234
33.35129371
33.32554047
33.18972009
33.20195604
33.19640545
33.43096032
33.3811846
33.36833228
33.42390836
33.31165535
13.50398025
12.00107132
11.56416866
11.46422325
11.55295901
11.62744526
11.94797072
12.0217472
12.24784185
12.40752812
12.38893691
12.5734397
12.80291741
12.96888227
13.29459781
13.57855017
14.06317615
14.5451847
14.9924601
15.88475901
16.63900571
17.98619317
20.10925554
23.04585955
30.28420918
15.56471772
13.41383574
12.38545192
12.01891853
11.85106057
11.84124682
12.05512354
12.263001
12.26241966
12.56859576
12.65050579
12.88233326
13.22655404
13.437552
13.74793184
14.02781222
14.42303032
14.93576432
15.39787582
16.19958178
17.22789277
18.45997112
20.17039542
23.25475399
29.62880744
16.89311542
14.91784255
13.72232391
13.05331678
12.71620795
12.61031349
12.3982129
12.54180441
12.69176352
12.86127906
13.03576718
13.04629817
13.22515375
13.60090404
13.84902163
14.07211732
14.64607666
15.2041126
15.70678563
16.2917133
17.28988167
18.49552183
20.09923439
22.89220773
28.54269661
17.71341778
15.87280077
14.85124419
14.19757236
13.7748465
13.39135764
13.11585725
13.03611042
12.97815499
13.08140719
13.18113534
13.28734238
13.4838385
13.73936766
14.05152486
14.30521224
14.67779253
15.24927044
15.72779362
16.47803756
17.3222314
18.40955016
19.89405473
22.5280932
27.46303966
18.25377194
16.81711858
15.73911278
15.08636592
14.64921927
14.25373527
13.84878401
13.68393017
13.51375612
13.4834634
13.68255769
13.58943079
13.72229184
13.9345161
14.21611877
14.52831787
15.14213841
15.38681431
15.8145521
16.41741301
17.35046995
18.2957955
19.78708761
22.16736276
26.81721901
18.79927536
17.19969497
16.3745491
15.89707582
15.5329479
15.04571968
14.72018011
14.35843882
14.14065487
14.02496371
14.05773134
14.02550541
13.98389972
14.28247661
14.61489661
14.8365592
15.13668661
15.52095864
15.91449147
16.59571712
17.32082656
18.39940674
19.74480001
21.87991985
26.00071707
19.26632195
17.90018739
17.00241396
16.67140919
16.30918543
15.97579472
15.49091608
15.26458108
14.93422448
14.69368016
14.58305166
14.72985443
14.656837
14.620224
14.94255652
15.13370998
15.45205344
15.81129791
16.13202003
16.71239203
17.51027986
18.34028008
19.81246175
21.54556489
25.16027687
19.30990349
17.89380355
17.43259488
17.08540481
16.72810165
16.51432812
16.12010724
15.80370279
15.64776292
15.49183622
15.41911448
15.25786886
15.31843779
15.13719364
15.5281001
15.38268475
15.6923161
16.08508774
16.53790673
17.13204118
17.78118499
18.54797996
19.78121298
21.65416944
25.19108694
19.24467234
18.0637041
17.71596042
17.69526604
17.48206246
17.21848608
16.98600913
16.6620111
16.5892591
16.22429893
16.06469992
15.9904048
15.89447734
15.83732673
15.94666047
16.0089199
16.21591657
16.54987952
16.85720758
17.34279363
17.88389206
18.65849176
19.95388022
21.52491115
25.20438327
19.64592892
18.45491117
18.06721368
17.7820124
17.82668708
17.80301645
17.60128596
17.48368379
17.1328695
17.10315726
16.7653031
16.61708299
16.50598589
16.5415755
16.57995663
16.84698734
17.00311009
17.17105513
17.51562182
17.68998176
18.49626814
19.24752919
20.33377642
21.81953471
25.38471102
19.89612054
18.58612187
18.29821302
18.11989459
18.18806019
18.1151888
18.06399598
18.12220156
17.90464357
17.87870433
17.84129389
17.54065855
17.2936311
17.24976319
17.44784213
17.62843659
17.80737687
17.99246875
18.12854992
18.65092341
19.075882
19.97214347
20.90709073
22.30934814
26.0277097
19.89750966
18.74999491
18.42659683
18.44084678
18.62161959
18.92337716
18.81561536
18.77203627
18.82781262
18.46186265
18.56807368
18.23886427
18.22281789
18.27411634
18.37262821
18.38040632
18.57840848
18.70077785
19.17352153
19.49072345
19.77303937
20.37622
21.62265202
22.8866517
26.71647798
19.98035626
18.73614271
18.45246776
18.7460752
19.08099893
19.23860046
19.16802149
19.0932178
19.32518569
19.32291527
19.47194545
19.55257659
19.30978847
19.19856081
19.49207406
19.48941625
19.73070354
19.66633023
19.87919234
20.17043698
20.71101668
21.35070699
22.2116317
23.60183872
27.49683488
20.0487188
18.95637091
18.59964267
18.87172514
19.05374061
19.29231226
19.85028695
19.92885124
20.1972269
20.28837339
20.36512103
20.66243525
20.65461021
20.68696079
20.66554676
20.91345885
20.68781242
20.71364774
21.06214225
21.10924955
21.61104984
22.11136567
23.18726251
24.48884873
28.24609935
20.26229742
19.21475264
19.09244231
19.25632882
19.67004977
19.79597868
20.48843422
20.8126848
21.07725656
21.52728206
21.66453021
21.96737938
21.54471323
21.81554278
21.91880195
21.70617721
21.80280545
21.89506229
22.32636652
22.21354231
22.87909812
23.16712051
24.10160138
25.35990419
29.47913616
20.39639256
19.48253203
19.42744883
19.80021538
20.093361
20.66975871
21.29316696
21.68618
21.99409289
22.40866591
22.67196904
22.71041898
22.93581147
22.95752647
23.03681853
23.07123655
23.08856071
23.28227609
23.268936
23.31708344
23.56031376
24.21816303
25.01485673
26.35277048
29.48599141
20.75402752
19.88802269
20.03183718
20.62369621
21.18555358
21.84103109
22.49401872
22.90941272
23.40820811
23.83222248
23.94097213
23.90230214
24.10863393
24.05116782
24.27205943
24.16802109
24.26632057
24.27148526
23.9614095
24.35019297
24.48334503
24.74583647
25.50075327
26.44791174
30.32290389
22.2398011
21.61363317
22.00871695
22.38305875
22.95617978
23.26787531
23.87340069
23.99225673
24.20482009
24.21823309
24.61052958
24.29596016
24.24446556
24.21530244
23.96550548
24.41568174
23.98804832
23.97880003
23.70760104
23.82762822
24.20127157
24.12082875
24.52385374
25.19574528
27.44372328
15.5668708
13.45553407
12.5152917
12.03043965
11.95908684
11.93720226
12.05715495
12.2815646
12.39404728
12.57806896
12.68608963
12.8287549
13.03040665
13.36953831
13.68811152
13.93637878
14.40744459
14.9464544
15.55110012
16.20884138
17.07182239
18.33427119
20.41340101
23.21571388
29.38197101
17.99240853
15.14068324
13.53887117
12.64703801
12.31013218
12.22796585
12.28363823
12.50823488
12.7743746
12.8681568
13.16991597
13.3483402
13.68180906
13.98807628
14.15711899
14.57535892
15.00805225
15.40829403
16.02391735
16.65198721
17.54257158
18.99372461
20.8597312
23.62888169
29.63830772
19.62996788
16.98311741
14.93533974
13.70283023
13.08956522
12.81577835
12.6736659
12.69669977
12.92865472
13.12886951
13.46139496
13.60608108
13.89109388
14.23019741
14.44466299
14.86795837
15.16638238
15.67663082
16.32563257
17.00560141
17.92985251
19.23785657
21.00276949
23.71312004
28.95147301
20.69712366
18.14314025
16.15324998
14.94638943
14.10955361
13.58788979
13.39305444
13.27915621
13.31681641
13.35713847
13.50854381
13.68248622
13.96644801
14.27935335
14.5087214
14.84498352
15.2590389
15.86190569
16.42291029
17.0542335
17.87863676
18.9226469
20.68387681
23.28703621
27.59258783
21.55601184
18.85627413
16.94875125
15.82613905
14.99455591
14.41122132
13.91744215
13.70779413
13.6858303
13.69413257
13.87948405
13.905409
14.19294219
14.39720556
14.71374794
14.93872528
15.48612201
15.87376586
16.39353229
17.22872343
17.82657678
19.18844904
20.4933042
22.73189976
26.44779084
21.95697827
19.55055338
17.82230083
16.59404871
15.65194001
15.03336238
14.74947467
14.43499254
14.19084123
14.06447489
14.18217701
14.26054247
14.50961706
14.63160365
14.8734751
15.14914065
15.57472942
16.01452671
16.59632755
17.28750938
17.99679111
18.88980644
20.21365625
22.53054994
26.42377291
22.40879714
19.9223243
18.2975513
17.11358397
16.3852174
15.72407762
15.36505653
14.95835729
14.79264156
14.69136135
14.65202776
14.79426976
14.79013979
14.95182788
15.18042265
15.57803035
15.8755087
16.18195823
16.62417248
17.37097608
17.87187525
18.83640806
20.128948
22.08817605
25.97932902
22.75378393
20.36254671
18.85124174
17.65598729
16.90260555
16.44308039
15.84656531
15.6300084
15.52426966
15.3204598
15.20731705
15.19957189
15.3201834
15.48644504
15.62831091
15.8166182
16.16591437
16.44771412
16.94810115
17.44861487
18.12294804
19.03580857
20.32519024
22.19959765
25.6604879
23.05416359
20.79090963
19.29587105
18.17770258
17.40296057
16.87306802
16.42684052
16.19608213
15.99455473
15.86303852
15.78372434
15.77543504
15.705016
15.98152182
16.07048568
16.30233214
16.51377743
16.81629586
17.18479788
17.65442147
18.39854949
19.25929689
20.44701343
22.17266819
25.72620031
23.44072612
21.05941156
19.68477245
18.41180292
17.82871987
17.29896669
17.03749811
16.78029569
16.71438954
16.65525598
16.51272368
16.51519152
16.55467114
16.58634787
16.51689394
16.84185802
17.09326709
17.37443328
17.91146639
18.24608577
18.8390743
19.6249402
20.68203911
22.463008
25.61274557
23.28507175
21.09494604
19.68176828
18.71014318
18.04441883
17.75982522
17.62861651
17.4960878
17.36817684
17.27088659
17.24275531
17.38961413
17.30004142
17.32125938
17.41082245
17.56481987
17.81814541
18.12819094
18.31212745
18.99760113
19.38812963
20.21946971
21.16090071
23.00844032
26.31613313
23.77258487
21.44400451
19.99243982
18.86514666
18.39179099
18.16179198
17.930066
17.93601349
17.70656765
17.93635468
17.98410443
18.0048896
17.98638398
18.09476037
18.32780586
18.38976003
18.52808618
18.80482743
19.35185258
19.59474758
20.0796644
20.68894134
21.54010157
23.308196
26.61791757
23.77196398
21.56471489
20.14802163
19.27302978
18.73555381
18.49331124
18.25341549
18.35522995
18.47916757
18.57554405
18.78689925
18.85698506
18.75660487
18.84735104
19.18366445
19.24160664
19.5062564
19.68589735
19.92621136
20.51424489
20.92085069
21.5996951
22.4777345
23.95368451
27.20810331
24.07792496
21.73490504
20.4780342
19.63014865
19.11214948
18.84929035
18.7988409
18.81146955
19.08151497
19.33321747
19.39707877
19.45864328
19.73495855
19.9319491
20.16361845
20.22916254
20.37462437
20.56461268
20.9005905
21.27120246
21.85680567
22.53752308
23.26790849
24.8955792
28.14266591
24.12704347
21.86693115
20.72360209
19.78138854
19.49346669
19.40704877
19.46847945
19.6356279
19.97515816
20.00470141
20.41467054
20.54705694
20.67432896
21.13610192
21.22073509
21.46849053
21.38979461
21.54617743
21.74030276
22.15750408
22.6552827
23.15970607
24.03421006
25.44871056
28.94504458
24.26106517
22.44241709
21.03737637
20.39666428
19.99753848
19.89241066
20.16538671