/*--------------------------------*- C++ -*----------------------------------*\
| =========                 |                                                 |
| \\      /  F ield         | OpenFOAM: The Open Source CFD Toolbox           |
|  \\    /   O peration     | Version:  v1706                                 |
|   \\  /    A nd           | Web:      www.OpenFOAM.com                      |
|    \\/     M anipulation  |                                                 |
\*---------------------------------------------------------------------------*/
FoamFile
{
    version     2.0;
    format      ascii;
    class       volScalarField;
    location    "0.003";
    object      mctTimeStepRatio_Ar;
}
// * * * * * * * * * * * * * * * * * * * * * * * * * * * * * * * * * * * * * //

dimensions      [0 0 0 0 0 0 0];


internalField   nonuniform List<scalar> 
9720
(
32.2193119
31.16997951
29.49406288
26.39641896
20.40023079
32.27670152
31.31972787
29.62698496
26.27569733
21.34194316
32.44783763
31.33745661
29.82478524
26.95621896
22.59033515
32.57924506
31.39154636
30.00919832
27.40275852
23.30817326
32.62710822
31.67107809
30.26279636
27.76322737
23.85291499
32.71160366
31.95377541
30.54466505
28.53989883
24.42380967
32.76442338
32.18904584
31.2971261
29.34190698
24.90072038
32.7494809
32.07859676
31.34230889
29.52153914
25.10074839
32.87575107
32.3344032
31.30596137
29.47939125
25.57655758
32.81535357
32.38198867
31.65543198
29.6641953
25.58648534
32.98886523
32.40594697
31.72438656
29.79392736
25.5929908
33.16030397
32.84864185
31.84555219
30.16796182
25.82927393
32.98849351
32.65818225
31.58125682
30.08454356
25.84784385
32.91378588
32.52392274
31.69813821
30.12571943
25.99114576
33.20502808
32.85562482
32.35270381
30.84803238
26.1687283
33.19910585
32.79463709
32.29241098
30.62238077
26.09560035
33.22040375
32.99355235
32.37316735
31.04099025
26.98045815
33.31234873
33.06958522
32.66821776
31.83800663
28.4169474
32.33778091
31.40142652
29.32567033
26.13587333
21.13875111
32.3075431
31.17018588
29.41017201
26.21135588
22.27500449
32.20790085
31.41866178
29.64732806
26.95138081
23.19324053
32.54361136
31.4834824
29.63481081
27.58514074
24.02903455
32.32647545
31.62381344
30.27857918
28.23036075
24.74525851
32.60387238
31.79809845
30.49481434
28.68869204
25.46601913
32.67176435
31.96764039
30.95726368
28.95010059
25.76791236
32.86229664
32.15493737
31.04801784
29.31456202
26.10016072
32.83156562
32.23485027
31.41351475
29.54720533
26.25219494
32.88637932
32.31887191
31.08782585
29.52861882
26.51256809
32.84157591
32.4776128
31.41520541
29.4946659
26.80155796
32.85109574
32.35448169
31.62522015
29.74340394
27.00919014
32.94917779
32.44553619
31.41341841
29.77452884
26.84593671
33.11471068
32.73805698
31.9779793
30.04767753
27.10850144
33.03495675
32.49977364
31.61926802
30.09884522
27.09409415
33.10032932
32.44323687
31.87901705
30.11656484
27.43967281
33.24007348
32.84135407
32.19406014
30.85546077
27.98236368
33.18283387
33.05612763
32.59791535
31.57760256
29.13057309
32.54415713
31.47975744
29.52028744
26.86152914
22.15125051
32.72993446
31.35828368
29.59997594
26.88521893
23.20472193
32.37053678
31.32151572
29.75095822
27.39274312
24.48546269
32.35275727
31.56820262
29.91609286
27.70305126
25.21294995
32.51926004
31.65545227
30.37231801
28.60551597
26.05617871
32.6732858
31.78457602
30.74829595
29.15387616
26.43826959
32.87344586
32.15480473
30.97625807
29.37052497
26.99727016
32.83055245
32.28911931
31.14958582
29.6225453
27.420397
32.89712802
32.26016636
31.21806983
29.68428412
27.66013628
33.03441679
32.58055146
31.73117986
30.07631535
28.07920266
33.11417656
32.47998073
31.50135764
30.14978743
28.22996991
33.07567378
32.66838407
31.54917088
30.42333491
28.15219749
33.04482583
32.60557478
31.73504028
30.33825533
28.32263248
33.16341625
32.7440121
31.80441548
30.6734467
28.7833298
33.0996003
32.7014389
32.18107756
30.96539925
29.14129833
33.08750655
32.70893632
32.03536753
31.13995493
29.34812312
33.12799121
32.94566792
32.17369867
31.20158499
29.5983389
33.33940961
33.06701438
32.35998102
31.64575975
30.6003564
32.56642183
31.62795659
30.02201392
27.25342721
22.91827325
32.5172786
31.51853906
29.91457794
27.55835952
24.07951761
32.61842819
31.75480251
30.19181833
28.00566481
25.37227679
32.4974283
31.48925229
30.12338499
28.47372219
26.35982596
32.81059969
31.85764071
30.71694327
29.20903565
26.90963104
32.87325641
32.11389118
31.01702292
29.18281842
27.62846788
32.71716129
31.99586215
31.13602713
30.06715868
28.471863
32.80909303
32.28575376
31.37645455
30.12749919
28.84502679
32.87566434
32.32366265
31.55004233
30.17624262
28.78613132
32.88115947
32.46784343
31.87738495
30.60869998
28.98383523
32.93776312
32.48550054
31.70749829
30.7020152
29.35365706
33.06969547
32.66881424
31.98789653
31.0055063
29.40623396
32.98165666
32.52047514
32.06592647
30.94071636
29.58533162
33.12158341
32.85900062
32.28455181
31.40705363
29.90678222
33.23090815
32.79826137
32.09742248
31.15644941
30.0578891
33.19263087
33.09664952
32.63629675
31.83210005
30.42981443
33.10872697
32.81970575
32.43296722
31.61226818
30.71469047
33.22879482
33.13176769
32.84704668
32.42824064
31.4035309
32.50474244
31.59235225
30.15107921
28.07945322
23.71346375
32.61792099
31.68026608
30.11944933
27.88753993
24.68563349
32.66737185
31.90685517
30.70010909
28.476997
26.12622189
32.7954165
31.91594535
30.54278942
29.28581535
27.29031751
32.77201044
32.07541657
30.87667835
29.53941687
27.71153823
32.80021229
32.16633369
31.32672897
29.87325299
28.3717196
32.80516472
32.36649969
31.66784996
30.55560998
29.04349045
32.9158025
32.36703598
31.75066423
30.67965026
29.51183143
32.96949693
32.69361303
32.02982223
31.07372897
29.898134
33.01573024
32.57965167
32.21670725
31.02575122
30.1245622
33.02553314
32.57152028
32.09783799
31.29664233
30.28843381
33.1314886
32.74371043
32.22985155
31.37346735
30.4823828
32.93788283
32.81724418
32.42860436
31.62645751
30.82238035
33.10507171
32.9514049
32.58060562
31.78182266
30.84496983
33.12891252
32.83266384
32.51346751
31.81589107
30.86198253
33.15070675
32.84078092
32.36094014
31.73640868
30.90145805
33.25785104
32.99946802
32.65015876
32.20292754
31.49569893
33.29802836
33.13144834
32.80782634
32.49509894
32.179643
32.68629337
31.81212609
30.5641192
28.43773029
24.26094281
32.65968034
31.87161535
30.52342386
28.15772238
25.07814329
32.8148476
32.09337074
30.4520877
28.7668158
26.60728098
32.68196393
31.93199415
31.06409116
29.47133838
27.58530294
32.77151968
32.3354977
31.2970104
30.03542353
28.61331791
32.77542358
32.27598049
31.48497886
30.5546135
29.11774039
32.87757
32.3913676
31.75143525
30.92339645
29.77054
32.97784905
32.69068134
32.16574478
31.17926723
30.13587404
33.08487299
32.74231607
32.42333711
31.689637
30.77782594
33.13209866
32.72743046
32.22607567
31.53152054
30.66286467
33.06553667
32.97572983
32.69597061
31.7730072
31.09784509
33.04705477
32.61644108
32.224802
31.66231405
31.00527433
33.06030073
32.70258444
32.2315703
31.72702198
30.86946385
33.08372127
32.81479447
32.56001356
32.09087394
31.4367175
33.25161081
33.08395933
32.67146282
32.24362848
31.70227237
33.35006037
33.24919523
32.81839619
32.46224848
31.69340407
33.19933095
32.95855619
32.82004115
32.4422047
32.04067283
33.33098883
33.29219906
33.17579084
32.79841416
32.28634825
32.79310636
32.20467801
31.30688487
29.0417649
24.61727632
32.76386914
32.12873098
30.71410647
28.80600508
25.73701359
32.55686194
31.87197404
30.99350989
29.2484214
26.85350917
32.8374808
32.28801179
31.41539835
29.85724196
28.20273024
32.96595587
32.29224253
31.29078869
30.52587637
29.10257056
32.94269227
32.43285398
31.71494621
30.80547051
29.6028659
32.98194215
32.39316525
31.85670315
31.42420713
30.33626372
32.99076591
32.70959589
32.09960968
31.47281171
30.98839872
33.05188162
32.60674415
32.36361032
31.64141606
31.13224188
33.02692139
32.63322694
32.14918897
31.80515783
31.21026811
33.18057645
33.06382033
32.73272653
32.1297724
31.5647027
33.05219825
32.90061044
32.54118043
32.18958753
31.64367251
33.15989654
33.06487245
32.74939224
32.26001147
31.72478891
33.24465867
32.95978865
32.6623847
32.20156357
31.91930817
33.35255631
33.14394549
32.95914332
32.45654733
31.8887266
33.17667645
32.99631769
32.77128517
32.69514941
32.20433519
33.3012055
33.28403185
33.14097598
32.95298261
32.45303701
33.34356834
33.29924026
32.94234367
32.81724577
32.59097363
32.62669503
31.94372089
31.21760689
29.24936552
24.68480871
32.91867258
32.3693571
31.31254011
29.23142521
26.02704408
32.88005977
32.15413819
31.18763885
29.57235318
27.53367372
32.85640286
32.31142519
31.54575334
30.38475236
28.52296727
32.99050903
32.51256034
31.8099637
30.67615616
29.31166373
33.04998633
32.60212246
32.04694981
31.18925959
30.14384398
33.05012694
32.58054062
32.041774
31.43354899
30.58217246
33.09909165
32.75583587
32.3957302
31.80139447
31.2321704
33.13664743
32.72930836
32.4399855
32.09292995
31.61597485
33.17905896
32.90462625
32.70278248
32.25594413
31.78616816
33.22804859
33.13552649
32.83115799
32.3924047
32.11621749
33.16560399
32.97259356
32.51253482
32.12232626
32.18423737
33.27148345
33.16260729
32.90078194
32.43170365
32.15546415
33.25195936
33.23294092
33.06282408
32.76585263
32.33103024
33.25277798
33.13664169
32.9986249
32.84938865
32.38439945
33.26866832
33.01403999
32.96245755
32.75862191
32.42636227
33.40529918
33.29852687
33.09973135
32.9035462
32.75992328
33.32849936
33.25080511
33.28441608
32.88770318
32.84988773
32.90993961
32.48309712
31.33832491
29.21882046
25.272756
32.74591793
32.31902529
31.17612857
29.22182766
26.16427326
32.97309631
32.3619334
31.29852387
30.11124865
27.66547421
32.82409241
32.19424052
31.62584517
30.45444008
28.73265757
32.86191033
32.5865775
31.9506113
31.13797085
29.78350826
33.17741964
32.69617155
32.11291261
31.38862389
30.47829036
33.1426578
32.79723427
32.23528519
31.71023509
30.97056446
33.02069433
32.70641967
32.41609598
31.96137331
31.19433472
33.19701654
32.87132181
32.52365707
32.27266165
31.8264994
33.15096843
32.99775503
32.77016025
32.37337085
31.89645367
33.15612324
33.06046866
32.77849375
32.50122491
32.37073614
33.41271137
33.13291922
33.06014798
32.63476745
32.37702572
33.20011818
33.18363459
33.05420358
32.66477246
32.20878263
33.2458883
33.03532146
32.87311939
32.70600013
32.46929714
33.37013555
33.30266484
33.05233468
32.9273789
32.56642175
33.34840875
33.25781254
33.1222725
32.85903545
32.59052448
33.28839154
33.20817972
33.26987835
32.96260043
32.83967426
33.33546936
33.35100573
33.22615673
33.15476788
33.09858108
32.85804475
32.41578314
31.49277983
29.78576476
25.60844354
32.97798803
32.52286657
31.607011
29.64852739
26.31475837
32.9014145
32.3400103
31.24072004
29.81851965
27.83365043
33.00623996
32.32390315
31.49254632
30.61593148
28.97325841
32.97115141
32.62985686
31.92999252
31.15114767
30.10060281
33.14872012
32.77590524
32.27221576
31.67906516
30.82213883
33.07538356
32.93357395
32.37391146
32.1121828
31.25343902
33.03393738
33.04383435
32.46952439
32.03158119
31.62233008
33.08844725
32.9309896
32.74360049
32.31532378
31.86525827
33.28235355
32.98712093
32.91090027
32.6270196
32.4396859
33.15736895
33.0540953
32.98242493
32.8402482
32.59747716
33.23819826
33.12340632
32.90058657
32.78206442
32.6450899
33.33295447
33.15938004
32.86316206
32.72124963
32.33125595
33.30397565
33.21779072
32.99597405
32.82891642
32.81549753
33.34924289
33.37600385
33.37331331
33.22719154
32.97636987
33.29000515
33.22544744
33.22983866
33.13159507
32.96150276
33.26279859
33.20680672
33.23456285
32.99726003
32.88870777
33.36445373
33.50134665
33.45311178
33.39890503
33.33156884
33.03814258
32.54720408
31.76063731
29.81635916
25.70219061
32.91706115
32.22833552
31.32330072
29.56464316
26.54880862
33.08077618
32.39633242
31.71542445
30.30999181
28.24935805
33.02259727
32.47503316
32.06006799
30.93493827
29.42234011
33.0091451
32.87041362
32.34330578
31.27525366
29.9728005
33.08601276
32.71848133
32.3355174
31.68340574
30.75596689
33.14591777
32.98464023
32.50735124
32.05468157
31.46208424
33.03106121
32.97012337
32.74062655
32.40448809
32.08640593
33.17118991
33.02101739
32.89171437
32.64275023
32.24853718
33.326509
33.04195354
32.72410057
32.48574962
32.07914218
33.22318897
33.09907547
32.89906878
32.94777462
32.65745135
33.16641531
33.05712551
33.14250673
33.16918445
32.82527897
33.28103505
33.2047151
33.11607211
33.02798111
32.92590183
33.36096949
33.32012456
33.21691575
33.02435382
32.79540025
33.37695467
33.21648241
33.16551621
33.07874824
33.08821835
33.25991706
33.27319204
33.13800941
33.07849418
32.93584861
33.4908365
33.42056119
33.40026346
33.27931084
32.99258724
33.34293798
33.26623251
33.12774176
33.09511826
33.12437575
32.96596047
32.55442518
31.77939395
30.11195397
25.80957122
33.05846693
32.36042746
31.56634628
29.77442183
26.99389629
32.9747927
32.61501876
31.81580819
30.33345049
28.27277114
33.07069309
32.60152728
32.16008906
31.22854314
29.80041602
32.98605878
32.61379177
32.29935176
31.54729429
30.29730003
33.0742532
32.88604117
32.53730414
32.04965385
31.28324961
33.11531129
32.80168987
32.44325676
31.99547393
31.53385239
33.17997714
32.99304678
32.60574131
32.36718255
31.98096464
33.3270335
33.3200949
33.11066236
32.89708648
32.53566112
33.25146348
33.14143103
32.99358631
32.69693593
32.45436307
33.26289092
33.24651813
32.9445585
32.61743325
32.56238072
33.39756503
33.31542467
33.04288245
33.06239074
33.04523132
33.42104762
33.33241296
33.17654415
33.01181567
32.7744594
33.40091347
33.23396656
33.20622829
33.18134022
32.92712265
33.34862435
33.36805492
33.32199725
33.12108245
33.07350742
33.31192047
33.32103776
33.15347679
33.20551503
32.94677319
33.42608204
33.36737994
33.25177345
33.14950378
33.30517168
33.39766782
33.42626311
33.3856331
33.39419609
33.40158175
33.23461639
32.83265436
31.79433666
29.97720037
25.58831479
32.99070024
32.61221441
31.87516211
29.98813608
26.85188893
32.99953732
32.40208827
31.39554822
30.20436243
28.19138299
32.98958542
32.54689409
31.59470753
30.93915793
29.41540008
33.01935982
32.76605964
32.32073524
31.53448824
30.53954063
33.26734347
33.02295446
32.57882417
31.89947249
31.25961673
33.08576086
32.9526095
32.80279078
32.20773066
31.90456795
33.20396955
33.15283693
33.01180381
32.66213756
32.28492703
33.26340802
33.05019207
32.70099126
32.57751339
32.43967013
33.33057873
33.07726724
32.88213566
32.66539179
32.46341839
33.33913387
33.26008539
33.11912043
33.19797439
33.04587957
33.46715417
33.48832442
33.36404333
33.0984658
33.05154423
33.25218853
33.31673521
33.34524612
33.25794169
32.90257312
33.44529411
33.42886214
33.21784532
33.16119349
33.17536164
33.29896178
33.16834653
33.1163296
32.97653729
33.04142839
33.38616521
33.34239361
33.33724547
33.27519466
33.04221785
33.43737606
33.3481105
33.33344573
33.35495793
33.27095136
33.42961185
33.41823491
33.40746582
33.22909508
33.232858
33.08335226
32.71870294
31.8301285
30.28081784
26.01578945
33.02590561
32.48262744
31.70627597
30.00438519
27.17781689
32.97089091
32.63882788
31.74005602
30.34738825
28.76201695
32.92678955
32.68462821
32.10952502
31.24062197
29.88011991
33.0375046
33.0108192
32.24824911
31.52475129
30.93511142
33.12980321
32.99824172
32.51001327
32.00300116
31.53164752
33.19302204
33.12340982
32.54575407
32.32548445
31.85919951
33.34179179
33.11625415
32.91248157
32.66910376
32.30681755
33.27554653
33.07260412
33.05480972
32.70896204
32.37214497
33.37303061
33.44518311
33.3810457
33.19929871
32.84115789
33.34127985
33.19014655
33.14128759
32.96131153
32.73928945
33.24673651
33.00552333
32.9070755
32.74723032
32.75890365
33.31165733
33.35968954
33.23562573
33.05683731
33.01835438
33.41591945
33.24179154
33.20411735
33.17910239
33.02237618
33.273352
33.45701821
33.47850152
33.16995649
33.19047798
33.30400124
33.19763513
33.25449666
33.09950347
32.9845605
33.44905013
33.47224448
33.41726279
33.51656376
33.4038599
33.36884429
33.35705601
33.40045736
33.3867468
33.3037
33.20968311
32.82738989
31.95341535
30.31217986
26.22985622
33.05290353
32.8672179
32.00539231
30.26516741
27.34339445
33.26195044
32.75057272
31.93359132
30.72693849
28.85402767
33.13008088
32.83634992
32.17512407
31.38923633
30.31011916
33.11684109
32.69009156
32.25414362
31.59839298
30.91400839
33.1515678
33.01837166
32.84912437
32.12125348
31.66868496
33.23591897
33.2412311
32.88714324
32.3877292
32.00112296
33.21147029
33.03868151
32.97717773
32.79292994
32.68640506
33.29427153
33.16495858
32.97180669
32.8646761
32.54087033
33.36436123
33.19920993
33.09751343
33.05479871
32.91666919
33.30774776
33.44325512
33.36454645
33.36435232
33.13207449
33.36090423
33.4214707
33.40662842
33.29936452
33.09864062
33.32603437
33.17076274
33.06088478
33.05039302
32.86201116
33.2552201
33.38439482
33.38332993
33.43563234
33.37632951
33.47839098
33.47806192
33.42570328
33.26548507
33.19081399
33.32929943
33.34911308
33.28936807
33.29041214
33.30361313
33.3547091
33.4266773
33.33885227
33.24667023
33.16276003
33.46094594
33.41333405
33.42321978
33.33163067
33.31081686
33.14832811
32.65794474
32.1330115
30.62846425
26.39513041
33.1529362
32.65169453
32.13397809
30.67771738
27.55136983
33.16091005
32.88363444
32.06175029
30.70431789
28.99162676
33.18881145
32.80316302
32.24940531
31.63108304
30.23993149
33.10138102
32.99707352
32.90947079
32.0560241
31.26593235
33.32123226
33.14397904
32.68053637
32.32221203
31.68916675
33.23065795
33.09155041
32.95109862
32.56544581
32.1270315
33.13651889
33.15852784
33.05071336
32.82631392
32.63256452
33.41304438
33.24527378
33.06158808
32.88684039
32.57489772
33.39508473
33.28498046
33.09398413
32.85459821
32.80246945
33.25079449
33.05379088
33.06169482
32.99571943
32.76561995
33.43680553
33.27384961
33.27457859
33.19602451
33.03803222
33.29734569
33.40807288
33.26413343
33.11939395
33.23261742
33.41497621
33.40614552
33.21623367
33.1935537
33.21673807
33.44027848
33.30368771
33.29799854
33.27645307
33.23187766
33.41333683
33.50812341
33.57335923
33.61079516
33.60108581
33.47081027
33.38396109
33.35359011
33.26672588
33.37002853
33.31886012
33.29628017
33.39490646
33.49027277
33.45306618
33.21540762
32.87560419
32.48783692
30.97748525
26.87587615
33.14896014
32.66712578
32.25326097
30.93953768
28.1808907
33.13000172
32.72670036
32.37656089
31.33405564
29.36859861
33.18114429
32.95886828
32.48034648
31.74594135
30.55939658
33.13990107
32.87742609
32.61589451
32.16150957
31.39208774
33.2750576
33.11992088
32.88239429
32.74647963
32.14570866
33.31589645
33.05147632
32.8129101
32.6189737
32.21483617
33.39811485
33.38795188
33.22596582
33.03518401
32.68720377
33.21848594
33.2351714
32.92386948
32.8131105
32.58442362
33.33167944
33.22048253
33.01446629
32.88888942
32.83848846
33.45219303
33.4458401
33.4043266
33.34816314
33.20878058
33.28369516
33.2453278
33.20831942
33.14827357
33.17529146
33.37595335
33.35889837
33.39974202
33.33434796
33.09926225
33.2896406
33.23924129
33.2491232
33.23109387
33.43686408
33.29116861
33.35999056
33.31254474
33.38915784
33.23266774
33.58340334
33.5914978
33.587292
33.64515847
33.70409632
33.37678433
33.34184941
33.39298984
33.32380533
33.24019143
33.4363124
33.34266711
33.1862334
33.21870914
33.25271135
33.38486816
33.25803631
32.80724999
31.69522892
28.11758792
33.18377731
33.00022712
32.60203708
31.65403966
29.50768549
33.15626247
33.03780056
32.6346125
31.93769217
30.64516645
33.30892773
33.12277834
32.77492402
32.15076848
31.3466092
33.22765135
33.10611469
32.94760859
32.70227539
31.97055126
33.37632586
33.35634565
33.11333642
32.76075608
32.35053112
33.25385043
33.22472079
33.11718227
32.96287168
32.61522067
33.35431977
33.36788905
33.30682384
33.14123489
32.89291298
33.27444121
33.31791087
33.33669035
33.24228614
33.30440547
33.45003975
33.51743153
33.55160301
33.44240675
33.1430716
33.29749245
33.30622234
33.42936836
33.4962527
33.49251943
33.41317075
33.33102282
33.37131364
33.29759603
33.15232332
33.40061469
33.46469711
33.39543537
33.37893692
33.33946125
33.45242337
33.41706337
33.32115311
33.27428838
33.1427085
33.44840231
33.32091715
33.2036696
33.23028895
33.24525339
33.41374597
33.42939595
33.42104635
33.32847258
33.09473384
33.41489719
33.3848481
33.28238875
33.29874711
33.29101821
33.39923527
33.40231881
33.44408335
33.32865849
33.2902801
13.58714773
12.00970364
11.7594025
11.66141658
11.81156294
11.7337969
11.76506474
11.98695957
12.06555764
12.19211402
12.47100544
12.52122957
12.72039608
13.01220319
13.24561507
13.54723329
13.86587715
14.54732267
15.11850638
15.86152754
16.84509234
18.13234845
19.8927488
22.81784835
29.7225792
15.61666949
13.42402522
12.59901264
12.09656985
11.9804047
12.0010234
12.08017801
12.28811745
12.33417667
12.48222527
12.70481958
13.048214
13.05271433
13.44620252
13.60031182
13.83789532
14.37929299
14.72984443
15.40323363
16.16707809
17.08623932
18.44076484
20.21595095
23.03479315
29.21162978
16.72324052
14.76434592
13.81463523
13.18228719
12.7066884
12.55487218
12.53287851
12.46210244
12.55420767
12.73017803
12.89670294
13.1238539
13.26411609
13.61429132
13.89812282
14.06139403
14.63135736
14.97672854
15.66650099
16.29869107
17.34927737
18.69060911
20.27582614
22.66660034
28.17040923
17.64615475
15.82342904
14.77627782
14.28105445
13.65845489
13.31911497
13.17990781
13.10277023
12.99096719
13.13759096
13.10688414
13.24982203
13.47720011
13.66301283
14.03192809
14.33461128
14.79518191
15.25093543
15.83588851
16.50286045
17.39241318
18.54968764
20.07430145
22.35381594
27.39332266
18.04280365
16.66554682
15.75439527
15.12227371
14.63889215
14.26879032
14.01295017
13.81459881
13.57160887
13.51522534
13.51401973
13.59684005
13.72660582
13.85924515
14.21636659
14.54160125
14.9143458
15.39368957
16.04368912
16.55874895
17.30738812
18.49039022
19.81147693
22.12067862
26.50834405
18.79218347
17.31162898
16.36299321
15.79485142
15.47185051
15.09646184
14.72628598
14.33663634
14.11353591
14.00006182
13.9251814
14.04486786
14.12392196
14.35623948
14.65493478
14.84307897
15.16101348
15.67290858
15.9528766
16.59958957
17.56451675
18.50775155
19.49251693
21.67678099
26.12008501
19.11574545
17.75763037
17.06701197
16.5838115
16.24610669
16.06012622
15.51171077
15.12916107
14.96443924
14.72338816
14.63385111
14.58782972
14.66765168
14.78787123
14.97506332
15.10395587
15.52539329
15.79067059
16.04412241
16.72596312
17.61502602
18.34057258
19.49646004
21.46698389
25.87522643
19.35033856
17.89849043
17.52984072
17.25199069
17.00058026
16.55685697
16.2410136
15.90439588
15.82918417
15.57124748
15.48581634
15.2233566
15.13557499
15.27249344
15.35487811
15.45061041
15.80326938
16.2063882
16.44117102
16.999076
17.592972
18.33916467
19.75069774
21.40615758
25.67572769
19.47864716
18.30189016
17.78510184
17.64561018
17.52819767
17.12240086
17.02431761
16.68122444
16.56064998
16.16448113
15.90200385
15.94558581
15.81357196
15.90144434
16.05395663
16.16468192
16.21595722
16.51835994
16.58133425
17.24779794
17.73759958
18.66107299
20.16337082
21.75536134
25.77494465
19.5536267
18.43826772
18.16182914
17.86426018
17.83814384
17.71739456
17.53718968
17.42656881
17.14882078
17.12170558
16.82624372
16.79157712
16.45455328
16.44642237
16.5317538
16.72181811
16.81011111
17.13658042
17.49933256
17.73987843
18.28345852
19.04336447
20.0023439
21.73709304
25.66677854
19.83790514
18.63876746
18.31503146
18.3248118
18.13809298
18.2353659
18.25465136
18.06266239
18.00825685
17.79150523
17.74140806
17.75088435
17.54814907
17.15761391
17.44918096
17.46621172
17.77029348
17.89357805
17.97892451
18.41561174
18.89172604
19.56627862
20.68906067
22.17829612
26.30384498
20.25909915
18.74134152
18.25746881
18.47515293
18.50505662
18.53909488
18.52694416
18.68529453
18.67329711
18.66499473
18.59844906
18.61899876
18.5367463
18.21725621
18.24285252
18.2199738
18.52118955
18.52950984
18.87980988
19.31560032
19.85674171
20.19228285
21.36117161
22.91770683
26.75988088
20.21733136
18.93699088
18.44305054
18.59253733
18.88244771
18.96942007
18.88681
19.22510941
19.51393141
19.60991677
19.55532728
19.52107395
19.54344434
19.3918706
19.3603352
19.48326276
19.52282775
19.5611161
19.68726682
20.18944773
20.74416627
21.13669712
22.03671121
23.82346476
27.42047236
19.98626743
19.01603009
18.81174381
18.70587825
19.09339633
19.47362394
19.81066365
19.9658093
19.96647238
20.15221454
20.36328195
20.47361206
20.32075517
20.2849136
20.57468394
20.42068641
20.59110491
20.75244514
20.87078103
21.62658916
21.75487068
22.08995178
22.80993729
24.25628871
28.31811921
20.28388195
19.12746108
18.79060028
19.17267116
19.52940648
20.1459459
20.34534223
20.92633648
21.21425066
21.35120382
21.52396214
21.60290011
21.98954517
21.99110645
21.95732668
22.04593799
22.28442014
22.08195541
21.89629212
22.33763396
22.85098218
22.97081044
24.01489811
25.27852707
29.13151352
20.27280653
19.31063919
19.35585979
19.75823635
20.37034073
20.86990299
21.2768698
21.86027637
22.10740212
22.39975507
22.8478494
23.08726089
23.11325561
22.96230801
23.16750891
22.9385729
23.04247928
23.09736247
23.57433293
23.37815718
23.78187303
24.05954473
24.89904645
26.27776891
29.74075425
20.8956918
19.90281148
20.04722882
20.73835997
21.37731191
21.98972276
22.55755736
22.9435346
23.24598275
23.64619905
24.20767342
24.50765711
24.00732129
24.21666444
24.25157088
24.12258508
23.93815985
24.07951762
24.33819394
24.40671333
24.44533351
24.48632593
25.2426924
26.49208725
29.73097104
22.56569496
21.66284323
22.10007315
22.74716605
23.28913303
23.43934321
23.7806481
23.78067418
24.16033191
23.93907668
24.23656745
24.08237587
24.29033812
24.25549454
24.08510795
23.9926745
24.0640396
24.19117802
23.79748956
23.82342505
23.74484727
23.89469298
24.48713626
25.01184789
27.59398438
15.50764524
13.47518744
12.50925459
12.1106628
12.05911055
12.06295661
12.06746607
12.12074058
12.33208768
12.5977919
12.81863148
12.98554534
13.18134648
13.44790619
13.7833639
13.99777797
14.34326923
15.01967383
15.30075081
16.15361184
17.1850229
18.55566206
20.10278211
22.7293024
29.37419582
17.88430893
15.20013711
13.62744939
12.65574177
12.321851
12.23731941
12.33545742
12.53648423
12.73637095
12.90790587
13.17408926
13.38088012
13.62420435
13.84548439
14.1235126
14.53742226
14.95156321
15.32236568
15.82728714
16.70406652
17.56438213
18.75112047
20.65388123
23.72216371
29.72699278
19.50610029
16.75897886
14.95440984
13.83000699
13.14372821
12.86282503
12.71544932
12.75382177
12.82842296
13.17834785
13.32086361
13.63012012
13.79104381
13.96285898
14.37789898
14.70665598
15.2128104
15.5576096
16.13274416
17.18793932
18.0051172
18.9371188
20.86553692
23.46413225
28.76846181
20.536158
17.85128423
16.17711934
14.92059944
14.01268982
13.5311634
13.26333141
13.24034341
13.1838937
13.31496513
13.54034494
13.72860979
13.89321804
14.21567489
14.53671008
14.98797476
15.2273798
15.79090736
16.37093531
17.07138502
17.99019065
19.08010066
20.62627842
23.25512295
27.86743508
21.28791562
18.74226607
17.03039
15.7854921
14.89983083
14.33919903
14.04897081
13.7912681
13.62032253
13.74445442
13.75437654
13.90131905
14.1748951
14.45249924
14.79030298
15.03287959
15.56410503
16.03961291
16.46521712
17.04855708
17.72686565
18.99151067
20.61840938
22.89990908
26.76009901
21.94862973
19.47443934
17.82875613
16.46266922
15.6378843
15.01064451
14.57264458
14.4395327
14.13559735
14.09066313
14.181271
14.28877224
14.53083698
14.55549959
15.06440488
15.30441269
15.72836947
16.219441
16.64327792
17.10605825
17.78558419
18.90833526
20.48276704
22.50270936
26.50951799
22.39847422
20.25673811
18.41698987
17.1169272
16.3632313
15.76270395
15.28296562
15.0727738
14.91115464
14.68215711
14.71335279
14.75949984
14.8567375
14.97952803
15.24603291
15.60880266
15.87195281
16.34260193
16.82497941
17.28418282
18.14684216
18.97221857
20.11278211
22.13890039
26.03271988
22.85119344
20.45999677
19.01920225
17.73309488
17.00390062
16.31692853
15.91063103
15.53473373
15.39751837
15.31015162
15.38599327
15.22961944
15.37515571
15.49513221
15.66193742
15.82702143
16.13478523
16.68494376
17.01547717
17.52926864
18.23371059
18.88409229
20.2610328
22.32768279
25.72401626
22.8857472
20.76928742
19.20631664
18.09265944
17.39858042
16.87480907
16.54109139
16.27614084
15.95859295
15.78678426
15.92827122
15.81107991
15.79847293
15.84666151
16.13408659
16.36605274
16.57905117
16.98538444
17.2899158
17.79151781
18.32899671
19.25522031
20.38446735
22.09635648
25.79023287
23.03746417
20.88569017
19.33701216
18.38162382
17.76993531
17.3907072
17.03315801
16.82957824
16.62470874
16.42890003
16.43255721
16.52955584
16.40808003
16.50154607
16.77936627
16.84869371
17.15517019
17.44682894
17.56847166
18.05043697
18.66771496
19.57658935
20.66173087
22.40835906
25.90571739
23.43712621
21.13798811
19.7859662
18.81897735
18.20457431
17.71737689
17.57481984
17.357773
17.2862724
17.20922968
17.2780109
17.23084805
17.35314682
17.33252475
17.37496959
17.51928668
17.75823599
17.90546971
18.11112602
18.68077709
19.4170228
20.02732727
21.0505856
22.76394411
25.98077135
23.93890414
21.35611669
19.8739775
18.90338166
18.46583919
18.08884017
17.94760331
17.86437647
17.89248785
17.98810681
18.03778715
18.04743975
18.19756054
18.09704778
18.16232159
18.28109686
18.54927215
18.58651525
18.87743046
19.28916224
19.99081086
20.68088517
21.72089213
23.42018757
26.7791862
23.76844726
21.55334786
20.08948035
19.23172664
18.89376598
18.40047568
18.17567358
18.43382352
18.60321489
18.68744571
18.8611122
18.8561118
19.01314933
19.05911761
19.0894219
19.12335226
19.30492031
19.60424804
19.90574791
20.13151316
20.78389875
21.59531858
22.48272593
23.86324644
26.88736326
23.74044499
21.75054228
20.13689889
19.27410932
18.86758297
18.66773184
18.66801649
18.88037397
19.09026472
19.37531875
19.52699731
19.44624653
19.67108479
19.88730837
19.9478923
20.26932572
20.29714351
20.70294656
21.01317552
21.12024859
21.68388628
22.36619651
23.2806143
24.72830042
28.10063142
23.96099897
21.85109451
20.57438424
19.85975416
19.33049153
19.51975485
19.46076278
19.84999841
19.99085681
20.12983838
20.42709696
20.68231832
20.80816658
20.96507017
21.07320806
21.19777642
21.49629765
21.80359811
21.94034907
22.38257709
22.7946304
23.37237635
24.24357708
25.36547156
28.69656133
24.24635348
22.37924022
20.90773334
20.16822205
19.98265141