/*--------------------------------*- C++ -*----------------------------------*\
| =========                 |                                                 |
| \\      /  F ield         | OpenFOAM: The Open Source CFD Toolbox           |
|  \\    /   O peration     | Version:  v1706                                 |
|   \\  /    A nd           | Web:      www.OpenFOAM.com                      |
|    \\/     M anipulation  |                                                 |
\*---------------------------------------------------------------------------*/
FoamFile
{
    version     2.0;
    format      ascii;
    class       volScalarField;
    location    "0.003";
    object      meanCollisionTime_Ar;
}
// * * * * * * * * * * * * * * * * * * * * * * * * * * * * * * * * * * * * * //

dimensions      [0 0 1 0 0 0 0];


internalField   nonuniform List<scalar> 
9720
(
3.22193119e-05
3.116997951e-05
2.949406288e-05
2.639641896e-05
2.040023079e-05
3.227670152e-05
3.131972787e-05
2.962698496e-05
2.627569733e-05
2.134194316e-05
3.244783763e-05
3.133745661e-05
2.982478524e-05
2.695621896e-05
2.259033515e-05
3.257924506e-05
3.139154636e-05
3.000919832e-05
2.740275852e-05
2.330817326e-05
3.262710822e-05
3.167107809e-05
3.026279636e-05
2.776322737e-05
2.385291499e-05
3.271160366e-05
3.195377541e-05
3.054466505e-05
2.853989883e-05
2.442380967e-05
3.276442338e-05
3.218904584e-05
3.12971261e-05
2.934190698e-05
2.490072038e-05
3.27494809e-05
3.207859676e-05
3.134230889e-05
2.952153914e-05
2.510074839e-05
3.287575107e-05
3.23344032e-05
3.130596137e-05
2.947939125e-05
2.557655758e-05
3.281535357e-05
3.238198867e-05
3.165543198e-05
2.96641953e-05
2.558648534e-05
3.298886523e-05
3.240594697e-05
3.172438656e-05
2.979392736e-05
2.55929908e-05
3.316030397e-05
3.284864185e-05
3.184555219e-05
3.016796182e-05
2.582927393e-05
3.298849351e-05
3.265818225e-05
3.158125682e-05
3.008454356e-05
2.584784385e-05
3.291378588e-05
3.252392274e-05
3.169813821e-05
3.012571943e-05
2.599114576e-05
3.320502808e-05
3.285562482e-05
3.235270381e-05
3.084803238e-05
2.61687283e-05
3.319910585e-05
3.279463709e-05
3.229241098e-05
3.062238077e-05
2.609560035e-05
3.322040375e-05
3.299355235e-05
3.237316735e-05
3.104099025e-05
2.698045815e-05
3.331234873e-05
3.306958522e-05
3.266821776e-05
3.183800663e-05
2.84169474e-05
3.233778091e-05
3.140142652e-05
2.932567033e-05
2.613587333e-05
2.113875111e-05
3.23075431e-05
3.117018588e-05
2.941017201e-05
2.621135588e-05
2.227500449e-05
3.220790085e-05
3.141866178e-05
2.964732806e-05
2.695138081e-05
2.319324053e-05
3.254361136e-05
3.14834824e-05
2.963481081e-05
2.758514074e-05
2.402903455e-05
3.232647545e-05
3.162381344e-05
3.027857918e-05
2.823036075e-05
2.474525851e-05
3.260387238e-05
3.179809845e-05
3.049481434e-05
2.868869204e-05
2.546601913e-05
3.267176435e-05
3.196764039e-05
3.095726368e-05
2.895010059e-05
2.576791236e-05
3.286229664e-05
3.215493737e-05
3.104801784e-05
2.931456202e-05
2.610016072e-05
3.283156562e-05
3.223485027e-05
3.141351475e-05
2.954720533e-05
2.625219494e-05
3.288637932e-05
3.231887191e-05
3.108782585e-05
2.952861882e-05
2.651256809e-05
3.284157591e-05
3.24776128e-05
3.141520541e-05
2.94946659e-05
2.680155796e-05
3.285109574e-05
3.235448169e-05
3.162522015e-05
2.974340394e-05
2.700919014e-05
3.294917779e-05
3.244553619e-05
3.141341841e-05
2.977452884e-05
2.684593671e-05
3.311471068e-05
3.273805698e-05
3.19779793e-05
3.004767753e-05
2.710850144e-05
3.303495675e-05
3.249977364e-05
3.161926802e-05
3.009884522e-05
2.709409415e-05
3.310032932e-05
3.244323687e-05
3.187901705e-05
3.011656484e-05
2.743967281e-05
3.324007348e-05
3.284135407e-05
3.219406014e-05
3.085546077e-05
2.798236368e-05
3.318283387e-05
3.305612763e-05
3.259791535e-05
3.157760256e-05
2.913057309e-05
3.254415713e-05
3.147975744e-05
2.952028744e-05
2.686152914e-05
2.215125051e-05
3.272993446e-05
3.135828368e-05
2.959997594e-05
2.688521893e-05
2.320472193e-05
3.237053678e-05
3.132151572e-05
2.975095822e-05
2.739274312e-05
2.448546269e-05
3.235275727e-05
3.156820262e-05
2.991609286e-05
2.770305126e-05
2.521294995e-05
3.251926004e-05
3.165545227e-05
3.037231801e-05
2.860551597e-05
2.605617871e-05
3.26732858e-05
3.178457602e-05
3.074829595e-05
2.915387616e-05
2.643826959e-05
3.287344586e-05
3.215480473e-05
3.097625807e-05
2.937052497e-05
2.699727016e-05
3.283055245e-05
3.228911931e-05
3.114958582e-05
2.96225453e-05
2.7420397e-05
3.289712802e-05
3.226016636e-05
3.121806983e-05
2.968428412e-05
2.766013628e-05
3.303441679e-05
3.258055146e-05
3.173117986e-05
3.007631535e-05
2.807920266e-05
3.311417656e-05
3.247998073e-05
3.150135764e-05
3.014978743e-05
2.822996991e-05
3.307567378e-05
3.266838407e-05
3.154917088e-05
3.042333491e-05
2.815219749e-05
3.304482583e-05
3.260557478e-05
3.173504028e-05
3.033825533e-05
2.832263248e-05
3.316341625e-05
3.27440121e-05
3.180441548e-05
3.06734467e-05
2.87833298e-05
3.30996003e-05
3.27014389e-05
3.218107756e-05
3.096539925e-05
2.914129833e-05
3.308750655e-05
3.270893632e-05
3.203536753e-05
3.113995493e-05
2.934812312e-05
3.312799121e-05
3.294566792e-05
3.217369867e-05
3.120158499e-05
2.95983389e-05
3.333940961e-05
3.306701438e-05
3.235998102e-05
3.164575975e-05
3.06003564e-05
3.256642183e-05
3.162795659e-05
3.002201392e-05
2.725342721e-05
2.291827325e-05
3.25172786e-05
3.151853906e-05
2.991457794e-05
2.755835952e-05
2.407951761e-05
3.261842819e-05
3.175480251e-05
3.019181833e-05
2.800566481e-05
2.537227679e-05
3.24974283e-05
3.148925229e-05
3.012338499e-05
2.847372219e-05
2.635982596e-05
3.281059969e-05
3.185764071e-05
3.071694327e-05
2.920903565e-05
2.690963104e-05
3.287325641e-05
3.211389118e-05
3.101702292e-05
2.918281842e-05
2.762846788e-05
3.271716129e-05
3.199586215e-05
3.113602713e-05
3.006715868e-05
2.8471863e-05
3.280909303e-05
3.228575376e-05
3.137645455e-05
3.012749919e-05
2.884502679e-05
3.287566434e-05
3.232366265e-05
3.155004233e-05
3.017624262e-05
2.878613132e-05
3.288115947e-05
3.246784343e-05
3.187738495e-05
3.060869998e-05
2.898383523e-05
3.293776312e-05
3.248550054e-05
3.170749829e-05
3.07020152e-05
2.935365706e-05
3.306969547e-05
3.266881424e-05
3.198789653e-05
3.10055063e-05
2.940623396e-05
3.298165666e-05
3.252047514e-05
3.206592647e-05
3.094071636e-05
2.958533162e-05
3.312158341e-05
3.285900062e-05
3.228455181e-05
3.140705363e-05
2.990678222e-05
3.323090815e-05
3.279826137e-05
3.209742248e-05
3.115644941e-05
3.00578891e-05
3.319263087e-05
3.309664952e-05
3.263629675e-05
3.183210005e-05
3.042981443e-05
3.310872697e-05
3.281970575e-05
3.243296722e-05
3.161226818e-05
3.071469047e-05
3.322879482e-05
3.313176769e-05
3.284704668e-05
3.242824064e-05
3.14035309e-05
3.250474244e-05
3.159235225e-05
3.015107921e-05
2.807945322e-05
2.371346375e-05
3.261792099e-05
3.168026608e-05
3.011944933e-05
2.788753993e-05
2.468563349e-05
3.266737185e-05
3.190685517e-05
3.070010909e-05
2.8476997e-05
2.612622189e-05
3.27954165e-05
3.191594535e-05
3.054278942e-05
2.928581535e-05
2.729031751e-05
3.277201044e-05
3.207541657e-05
3.087667835e-05
2.953941687e-05
2.771153823e-05
3.280021229e-05
3.216633369e-05
3.132672897e-05
2.987325299e-05
2.83717196e-05
3.280516472e-05
3.236649969e-05
3.166784996e-05
3.055560998e-05
2.904349045e-05
3.29158025e-05
3.236703598e-05
3.175066423e-05
3.067965026e-05
2.951183143e-05
3.296949693e-05
3.269361303e-05
3.202982223e-05
3.107372897e-05
2.9898134e-05
3.301573024e-05
3.257965167e-05
3.221670725e-05
3.102575122e-05
3.01245622e-05
3.302553314e-05
3.257152028e-05
3.209783799e-05
3.129664233e-05
3.028843381e-05
3.31314886e-05
3.274371043e-05
3.222985155e-05
3.137346735e-05
3.04823828e-05
3.293788283e-05
3.281724418e-05
3.242860436e-05
3.162645751e-05
3.082238035e-05
3.310507171e-05
3.29514049e-05
3.258060562e-05
3.178182266e-05
3.084496983e-05
3.312891252e-05
3.283266384e-05
3.251346751e-05
3.181589107e-05
3.086198253e-05
3.315070675e-05
3.284078092e-05
3.236094014e-05
3.173640868e-05
3.090145805e-05
3.325785104e-05
3.299946802e-05
3.265015876e-05
3.220292754e-05
3.149569893e-05
3.329802836e-05
3.313144834e-05
3.280782634e-05
3.249509894e-05
3.2179643e-05
3.268629337e-05
3.181212609e-05
3.05641192e-05
2.843773029e-05
2.426094281e-05
3.265968034e-05
3.187161535e-05
3.052342386e-05
2.815772238e-05
2.507814329e-05
3.28148476e-05
3.209337074e-05
3.04520877e-05
2.87668158e-05
2.660728098e-05
3.268196393e-05
3.193199415e-05
3.106409116e-05
2.947133838e-05
2.758530294e-05
3.277151968e-05
3.23354977e-05
3.12970104e-05
3.003542353e-05
2.861331791e-05
3.277542358e-05
3.227598049e-05
3.148497886e-05
3.05546135e-05
2.911774039e-05
3.287757e-05
3.23913676e-05
3.175143525e-05
3.092339645e-05
2.977054e-05
3.297784905e-05
3.269068134e-05
3.216574478e-05
3.117926723e-05
3.013587404e-05
3.308487299e-05
3.274231607e-05
3.242333711e-05
3.1689637e-05
3.077782594e-05
3.313209866e-05
3.272743046e-05
3.222607567e-05
3.153152054e-05
3.066286467e-05
3.306553667e-05
3.297572983e-05
3.269597061e-05
3.17730072e-05
3.109784509e-05
3.304705477e-05
3.261644108e-05
3.2224802e-05
3.166231405e-05
3.100527433e-05
3.306030073e-05
3.270258444e-05
3.22315703e-05
3.172702198e-05
3.086946385e-05
3.308372127e-05
3.281479447e-05
3.256001356e-05
3.209087394e-05
3.14367175e-05
3.325161081e-05
3.308395933e-05
3.267146282e-05
3.224362848e-05
3.170227237e-05
3.335006037e-05
3.324919523e-05
3.281839619e-05
3.246224848e-05
3.169340407e-05
3.319933095e-05
3.295855619e-05
3.282004115e-05
3.24422047e-05
3.204067283e-05
3.333098883e-05
3.329219906e-05
3.317579084e-05
3.279841416e-05
3.228634825e-05
3.279310636e-05
3.220467801e-05
3.130688487e-05
2.90417649e-05
2.461727632e-05
3.276386914e-05
3.212873098e-05
3.071410647e-05
2.880600508e-05
2.573701359e-05
3.255686194e-05
3.187197404e-05
3.099350989e-05
2.92484214e-05
2.685350917e-05
3.28374808e-05
3.228801179e-05
3.141539835e-05
2.985724196e-05
2.820273024e-05
3.296595587e-05
3.229224253e-05
3.129078869e-05
3.052587637e-05
2.910257056e-05
3.294269227e-05
3.243285398e-05
3.171494621e-05
3.080547051e-05
2.96028659e-05
3.298194215e-05
3.239316525e-05
3.185670315e-05
3.142420713e-05
3.033626372e-05
3.299076591e-05
3.270959589e-05
3.209960968e-05
3.147281171e-05
3.098839872e-05
3.305188162e-05
3.260674415e-05
3.236361032e-05
3.164141606e-05
3.113224188e-05
3.302692139e-05
3.263322694e-05
3.214918897e-05
3.180515783e-05
3.121026811e-05
3.318057645e-05
3.306382033e-05
3.273272653e-05
3.21297724e-05
3.15647027e-05
3.305219825e-05
3.290061044e-05
3.254118043e-05
3.218958753e-05
3.164367251e-05
3.315989654e-05
3.306487245e-05
3.274939224e-05
3.226001147e-05
3.172478891e-05
3.324465867e-05
3.295978865e-05
3.26623847e-05
3.220156357e-05
3.191930817e-05
3.335255631e-05
3.314394549e-05
3.295914332e-05
3.245654733e-05
3.18887266e-05
3.317667645e-05
3.299631769e-05
3.277128517e-05
3.269514941e-05
3.220433519e-05
3.33012055e-05
3.328403185e-05
3.314097598e-05
3.295298261e-05
3.245303701e-05
3.334356834e-05
3.329924026e-05
3.294234367e-05
3.281724577e-05
3.259097363e-05
3.262669503e-05
3.194372089e-05
3.121760689e-05
2.924936552e-05
2.468480871e-05
3.291867258e-05
3.23693571e-05
3.131254011e-05
2.923142521e-05
2.602704408e-05
3.288005977e-05
3.215413819e-05
3.118763885e-05
2.957235318e-05
2.753367372e-05
3.285640286e-05
3.231142519e-05
3.154575334e-05
3.038475236e-05
2.852296727e-05
3.299050903e-05
3.251256034e-05
3.18099637e-05
3.067615616e-05
2.931166373e-05
3.304998633e-05
3.260212246e-05
3.204694981e-05
3.118925959e-05
3.014384398e-05
3.305012694e-05
3.258054062e-05
3.2041774e-05
3.143354899e-05
3.058217246e-05
3.309909165e-05
3.275583587e-05
3.23957302e-05
3.180139447e-05
3.12321704e-05
3.313664743e-05
3.272930836e-05
3.24399855e-05
3.209292995e-05
3.161597485e-05
3.317905896e-05
3.290462625e-05
3.270278248e-05
3.225594413e-05
3.178616816e-05
3.322804859e-05
3.313552649e-05
3.283115799e-05
3.23924047e-05
3.211621749e-05
3.316560399e-05
3.297259356e-05
3.251253482e-05
3.212232626e-05
3.218423737e-05
3.327148345e-05
3.316260729e-05
3.290078194e-05
3.243170365e-05
3.215546415e-05
3.325195936e-05
3.323294092e-05
3.306282408e-05
3.276585263e-05
3.233103024e-05
3.325277798e-05
3.313664169e-05
3.29986249e-05
3.284938865e-05
3.238439945e-05
3.326866832e-05
3.301403999e-05
3.296245755e-05
3.275862191e-05
3.242636227e-05
3.340529918e-05
3.329852687e-05
3.309973135e-05
3.29035462e-05
3.275992328e-05
3.332849936e-05
3.325080511e-05
3.328441608e-05
3.288770318e-05
3.284988773e-05
3.290993961e-05
3.248309712e-05
3.133832491e-05
2.921882046e-05
2.5272756e-05
3.274591793e-05
3.231902529e-05
3.117612857e-05
2.922182766e-05
2.616427326e-05
3.297309631e-05
3.23619334e-05
3.129852387e-05
3.011124865e-05
2.766547421e-05
3.282409241e-05
3.219424052e-05
3.162584517e-05
3.045444008e-05
2.873265757e-05
3.286191033e-05
3.25865775e-05
3.19506113e-05
3.113797085e-05
2.978350826e-05
3.317741964e-05
3.269617155e-05
3.211291261e-05
3.138862389e-05
3.047829036e-05
3.31426578e-05
3.279723427e-05
3.223528519e-05
3.171023509e-05
3.097056446e-05
3.302069433e-05
3.270641967e-05
3.241609598e-05
3.196137331e-05
3.119433472e-05
3.319701654e-05
3.287132181e-05
3.252365707e-05
3.227266165e-05
3.18264994e-05
3.315096843e-05
3.299775503e-05
3.277016025e-05
3.237337085e-05
3.189645367e-05
3.315612324e-05
3.306046866e-05
3.277849375e-05
3.250122491e-05
3.237073614e-05
3.341271137e-05
3.313291922e-05
3.306014798e-05
3.263476745e-05
3.237702572e-05
3.320011818e-05
3.318363459e-05
3.305420358e-05
3.266477246e-05
3.220878263e-05
3.32458883e-05
3.303532146e-05
3.287311939e-05
3.270600013e-05
3.246929714e-05
3.337013555e-05
3.330266484e-05
3.305233468e-05
3.29273789e-05
3.256642175e-05
3.334840875e-05
3.325781254e-05
3.31222725e-05
3.285903545e-05
3.259052448e-05
3.328839154e-05
3.320817972e-05
3.326987835e-05
3.296260043e-05
3.283967426e-05
3.333546936e-05
3.335100573e-05
3.322615673e-05
3.315476788e-05
3.309858108e-05
3.285804475e-05
3.241578314e-05
3.149277983e-05
2.978576476e-05
2.560844354e-05
3.297798803e-05
3.252286657e-05
3.1607011e-05
2.964852739e-05
2.631475837e-05
3.29014145e-05
3.23400103e-05
3.124072004e-05
2.981851965e-05
2.783365043e-05
3.300623996e-05
3.232390315e-05
3.149254632e-05
3.061593148e-05
2.897325841e-05
3.297115141e-05
3.262985686e-05
3.192999252e-05
3.115114767e-05
3.010060281e-05
3.314872012e-05
3.277590524e-05
3.227221576e-05
3.167906516e-05
3.082213883e-05
3.307538356e-05
3.293357395e-05
3.237391146e-05
3.21121828e-05
3.125343902e-05
3.303393738e-05
3.304383435e-05
3.246952439e-05
3.203158119e-05
3.162233008e-05
3.308844725e-05
3.29309896e-05
3.274360049e-05
3.231532378e-05
3.186525827e-05
3.328235355e-05
3.298712093e-05
3.291090027e-05
3.26270196e-05
3.24396859e-05
3.315736895e-05
3.30540953e-05
3.298242493e-05
3.28402482e-05
3.259747716e-05
3.323819826e-05
3.312340632e-05
3.290058657e-05
3.278206442e-05
3.26450899e-05
3.333295447e-05
3.315938004e-05
3.286316206e-05
3.272124963e-05
3.233125595e-05
3.330397565e-05
3.321779072e-05
3.299597405e-05
3.282891642e-05
3.281549753e-05
3.334924289e-05
3.337600385e-05
3.337331331e-05
3.322719154e-05
3.297636987e-05
3.329000515e-05
3.322544744e-05
3.322983866e-05
3.313159507e-05
3.296150276e-05
3.326279859e-05
3.320680672e-05
3.323456285e-05
3.299726003e-05
3.288870777e-05
3.336445373e-05
3.350134665e-05
3.345311178e-05
3.339890503e-05
3.333156884e-05
3.303814258e-05
3.254720408e-05
3.176063731e-05
2.981635916e-05
2.570219061e-05
3.291706115e-05
3.222833552e-05
3.132330072e-05
2.956464316e-05
2.654880862e-05
3.308077618e-05
3.239633242e-05
3.171542445e-05
3.030999181e-05
2.824935805e-05
3.302259727e-05
3.247503316e-05
3.206006799e-05
3.093493827e-05
2.942234011e-05
3.30091451e-05
3.287041362e-05
3.234330578e-05
3.127525366e-05
2.99728005e-05
3.308601276e-05
3.271848133e-05
3.23355174e-05
3.168340574e-05
3.075596689e-05
3.314591777e-05
3.298464023e-05
3.250735124e-05
3.205468157e-05
3.146208424e-05
3.303106121e-05
3.297012337e-05
3.274062655e-05
3.240448809e-05
3.208640593e-05
3.317118991e-05
3.302101739e-05
3.289171437e-05
3.264275023e-05
3.224853718e-05
3.3326509e-05
3.304195354e-05
3.272410057e-05
3.248574962e-05
3.207914218e-05
3.322318897e-05
3.309907547e-05
3.289906878e-05
3.294777462e-05
3.265745135e-05
3.316641531e-05
3.305712551e-05
3.314250673e-05
3.316918445e-05
3.282527897e-05
3.328103505e-05
3.32047151e-05
3.311607211e-05
3.302798111e-05
3.292590183e-05
3.336096949e-05
3.332012456e-05
3.321691575e-05
3.302435382e-05
3.279540025e-05
3.337695467e-05
3.321648241e-05
3.316551621e-05
3.307874824e-05
3.308821835e-05
3.325991706e-05
3.327319204e-05
3.313800941e-05
3.307849418e-05
3.293584861e-05
3.34908365e-05
3.342056119e-05
3.340026346e-05
3.327931084e-05
3.299258724e-05
3.334293798e-05
3.326623251e-05
3.312774176e-05
3.309511826e-05
3.312437575e-05
3.296596047e-05
3.255442518e-05
3.177939395e-05
3.011195397e-05
2.580957122e-05
3.305846693e-05
3.236042746e-05
3.156634628e-05
2.977442183e-05
2.699389629e-05
3.29747927e-05
3.261501876e-05
3.181580819e-05
3.033345049e-05
2.827277114e-05
3.307069309e-05
3.260152728e-05
3.216008906e-05
3.122854314e-05
2.980041602e-05
3.298605878e-05
3.261379177e-05
3.229935176e-05
3.154729429e-05
3.029730003e-05
3.30742532e-05
3.288604117e-05
3.253730414e-05
3.204965385e-05
3.128324961e-05
3.311531129e-05
3.280168987e-05
3.244325676e-05
3.199547393e-05
3.153385239e-05
3.317997714e-05
3.299304678e-05
3.260574131e-05
3.236718255e-05
3.198096464e-05
3.33270335e-05
3.33200949e-05
3.311066236e-05
3.289708648e-05
3.253566112e-05
3.325146348e-05
3.314143103e-05
3.299358631e-05
3.269693593e-05
3.245436307e-05
3.326289092e-05
3.324651813e-05
3.29445585e-05
3.261743325e-05
3.256238072e-05
3.339756503e-05
3.331542467e-05
3.304288245e-05
3.306239074e-05
3.304523132e-05
3.342104762e-05
3.333241296e-05
3.317654415e-05
3.301181567e-05
3.27744594e-05
3.340091347e-05
3.323396656e-05
3.320622829e-05
3.318134022e-05
3.292712265e-05
3.334862435e-05
3.336805492e-05
3.332199725e-05
3.312108245e-05
3.307350742e-05
3.331192047e-05
3.332103776e-05
3.315347679e-05
3.320551503e-05
3.294677319e-05
3.342608204e-05
3.336737994e-05
3.325177345e-05
3.314950378e-05
3.330517168e-05
3.339766782e-05
3.342626311e-05
3.33856331e-05
3.339419609e-05
3.340158175e-05
3.323461639e-05
3.283265436e-05
3.179433666e-05
2.997720037e-05
2.558831479e-05
3.299070024e-05
3.261221441e-05
3.187516211e-05
2.998813608e-05
2.685188893e-05
3.299953732e-05
3.240208827e-05
3.139554822e-05
3.020436243e-05
2.819138299e-05
3.298958542e-05
3.254689409e-05
3.159470753e-05
3.093915793e-05
2.941540008e-05
3.301935982e-05
3.276605964e-05
3.232073524e-05
3.153448824e-05
3.053954063e-05
3.326734347e-05
3.302295446e-05
3.257882417e-05
3.189947249e-05
3.125961673e-05
3.308576086e-05
3.29526095e-05
3.280279078e-05
3.220773066e-05
3.190456795e-05
3.320396955e-05
3.315283693e-05
3.301180381e-05
3.266213756e-05
3.228492703e-05
3.326340802e-05
3.305019207e-05
3.270099126e-05
3.257751339e-05
3.243967013e-05
3.333057873e-05
3.307726724e-05
3.288213566e-05
3.266539179e-05
3.246341839e-05
3.333913387e-05
3.326008539e-05
3.311912043e-05
3.319797439e-05
3.304587957e-05
3.346715417e-05
3.348832442e-05
3.336404333e-05
3.30984658e-05
3.305154423e-05
3.325218853e-05
3.331673521e-05
3.334524612e-05
3.325794169e-05
3.290257312e-05
3.344529411e-05
3.342886214e-05
3.321784532e-05
3.316119349e-05
3.317536164e-05
3.329896178e-05
3.316834653e-05
3.31163296e-05
3.297653729e-05
3.304142839e-05
3.338616521e-05
3.334239361e-05
3.333724547e-05
3.327519466e-05
3.304221785e-05
3.343737606e-05
3.33481105e-05
3.333344573e-05
3.335495793e-05
3.327095136e-05
3.342961185e-05
3.341823491e-05
3.340746582e-05
3.322909508e-05
3.3232858e-05
3.308335226e-05
3.271870294e-05
3.18301285e-05
3.028081784e-05
2.601578945e-05
3.302590561e-05
3.248262744e-05
3.170627597e-05
3.000438519e-05
2.717781689e-05
3.297089091e-05
3.263882788e-05
3.174005602e-05
3.034738825e-05
2.876201695e-05
3.292678955e-05
3.268462821e-05
3.210952502e-05
3.124062197e-05
2.988011991e-05
3.30375046e-05
3.30108192e-05
3.224824911e-05
3.152475129e-05
3.093511142e-05
3.312980321e-05
3.299824172e-05
3.251001327e-05
3.200300116e-05
3.153164752e-05
3.319302204e-05
3.312340982e-05
3.254575407e-05
3.232548445e-05
3.185919951e-05
3.334179179e-05
3.311625415e-05
3.291248157e-05
3.266910376e-05
3.230681755e-05
3.327554653e-05
3.307260412e-05
3.305480972e-05
3.270896204e-05
3.237214497e-05
3.337303061e-05
3.344518311e-05
3.33810457e-05
3.319929871e-05
3.284115789e-05
3.334127985e-05
3.319014655e-05
3.314128759e-05
3.296131153e-05
3.273928945e-05
3.324673651e-05
3.300552333e-05
3.29070755e-05
3.274723032e-05
3.275890365e-05
3.331165733e-05
3.335968954e-05
3.323562573e-05
3.305683731e-05
3.301835438e-05
3.341591945e-05
3.324179154e-05
3.320411735e-05
3.317910239e-05
3.302237618e-05
3.3273352e-05
3.345701821e-05
3.347850152e-05
3.316995649e-05
3.319047798e-05
3.330400124e-05
3.319763513e-05
3.325449666e-05
3.309950347e-05
3.29845605e-05
3.344905013e-05
3.347224448e-05
3.341726279e-05
3.351656376e-05
3.34038599e-05
3.336884429e-05
3.335705601e-05
3.340045736e-05
3.33867468e-05
3.33037e-05
3.320968311e-05
3.282738989e-05
3.195341535e-05
3.031217986e-05
2.622985622e-05
3.305290353e-05
3.28672179e-05
3.200539231e-05
3.026516741e-05
2.734339445e-05
3.326195044e-05
3.275057272e-05
3.193359132e-05
3.072693849e-05
2.885402767e-05
3.313008088e-05
3.283634992e-05
3.217512407e-05
3.138923633e-05
3.031011916e-05
3.311684109e-05
3.269009156e-05
3.225414362e-05
3.159839298e-05
3.091400839e-05
3.31515678e-05
3.301837166e-05
3.284912437e-05
3.212125348e-05
3.166868496e-05
3.323591897e-05
3.32412311e-05
3.288714324e-05
3.23877292e-05
3.200112296e-05
3.321147029e-05
3.303868151e-05
3.297717773e-05
3.279292994e-05
3.268640506e-05
3.329427153e-05
3.316495858e-05
3.297180669e-05
3.28646761e-05
3.254087033e-05
3.336436123e-05
3.319920993e-05
3.309751343e-05
3.305479871e-05
3.291666919e-05
3.330774776e-05
3.344325512e-05
3.336454645e-05
3.336435232e-05
3.313207449e-05
3.336090423e-05
3.34214707e-05
3.340662842e-05
3.329936452e-05
3.309864062e-05
3.332603437e-05
3.317076274e-05
3.306088478e-05
3.305039302e-05
3.286201116e-05
3.32552201e-05
3.338439482e-05
3.338332993e-05
3.343563234e-05
3.337632951e-05
3.347839098e-05
3.347806192e-05
3.342570328e-05
3.326548507e-05
3.319081399e-05
3.332929943e-05
3.334911308e-05
3.328936807e-05
3.329041214e-05
3.330361313e-05
3.33547091e-05
3.34266773e-05
3.333885227e-05
3.324667023e-05
3.316276003e-05
3.346094594e-05
3.341333405e-05
3.342321978e-05
3.333163067e-05
3.331081686e-05
3.314832811e-05
3.265794474e-05
3.21330115e-05
3.062846425e-05
2.639513041e-05
3.31529362e-05
3.265169453e-05
3.213397809e-05
3.067771738e-05
2.755136983e-05
3.316091005e-05
3.288363444e-05
3.206175029e-05
3.070431789e-05
2.899162676e-05
3.318881145e-05
3.280316302e-05
3.224940531e-05
3.163108304e-05
3.023993149e-05
3.310138102e-05
3.299707352e-05
3.290947079e-05
3.20560241e-05
3.126593235e-05
3.332123226e-05
3.314397904e-05
3.268053637e-05
3.232221203e-05
3.168916675e-05
3.323065795e-05
3.309155041e-05
3.295109862e-05
3.256544581e-05
3.21270315e-05
3.313651889e-05
3.315852784e-05
3.305071336e-05
3.282631392e-05
3.263256452e-05
3.341304438e-05
3.324527378e-05
3.306158808e-05
3.288684039e-05
3.257489772e-05
3.339508473e-05
3.328498046e-05
3.309398413e-05
3.285459821e-05
3.280246945e-05
3.325079449e-05
3.305379088e-05
3.306169482e-05
3.299571943e-05
3.276561995e-05
3.343680553e-05
3.327384961e-05
3.327457859e-05
3.319602451e-05
3.303803222e-05
3.329734569e-05
3.340807288e-05
3.326413343e-05
3.311939395e-05
3.323261742e-05
3.341497621e-05
3.340614552e-05
3.321623367e-05
3.31935537e-05
3.321673807e-05
3.344027848e-05
3.330368771e-05
3.329799854e-05
3.327645307e-05
3.323187766e-05
3.341333683e-05
3.350812341e-05
3.357335923e-05
3.361079516e-05
3.360108581e-05
3.347081027e-05
3.338396109e-05
3.335359011e-05
3.326672588e-05
3.337002853e-05
3.331886012e-05
3.329628017e-05
3.339490646e-05
3.349027277e-05
3.345306618e-05
3.321540762e-05
3.287560419e-05
3.248783692e-05
3.097748525e-05
2.687587615e-05
3.314896014e-05
3.266712578e-05
3.225326097e-05
3.093953768e-05
2.81808907e-05
3.313000172e-05
3.272670036e-05
3.237656089e-05
3.133405564e-05
2.936859861e-05
3.318114429e-05
3.295886828e-05
3.248034648e-05
3.174594135e-05
3.055939658e-05
3.313990107e-05
3.287742609e-05
3.261589451e-05
3.216150957e-05
3.139208774e-05
3.32750576e-05
3.311992088e-05
3.288239429e-05
3.274647963e-05
3.214570866e-05
3.331589645e-05
3.305147632e-05
3.28129101e-05
3.26189737e-05
3.221483617e-05
3.339811485e-05
3.338795188e-05
3.322596582e-05
3.303518401e-05
3.268720377e-05
3.321848594e-05
3.32351714e-05
3.292386948e-05
3.28131105e-05
3.258442362e-05
3.333167944e-05
3.322048253e-05
3.301446629e-05
3.288888942e-05
3.283848846e-05
3.345219303e-05
3.34458401e-05
3.34043266e-05
3.334816314e-05
3.320878058e-05
3.328369516e-05
3.32453278e-05
3.320831942e-05
3.314827357e-05
3.317529146e-05
3.337595335e-05
3.335889837e-05
3.339974202e-05
3.333434796e-05
3.309926225e-05
3.32896406e-05
3.323924129e-05
3.32491232e-05
3.323109387e-05
3.343686408e-05
3.329116861e-05
3.335999056e-05
3.331254474e-05
3.338915784e-05
3.323266774e-05
3.358340334e-05
3.35914978e-05
3.3587292e-05
3.364515847e-05
3.370409632e-05
3.337678433e-05
3.334184941e-05
3.339298984e-05
3.332380533e-05
3.324019143e-05
3.34363124e-05
3.334266711e-05
3.31862334e-05
3.321870914e-05
3.325271135e-05
3.338486816e-05
3.325803631e-05
3.280724999e-05
3.169522892e-05
2.811758792e-05
3.318377731e-05
3.300022712e-05
3.260203708e-05
3.165403966e-05
2.950768549e-05
3.315626247e-05
3.303780056e-05
3.26346125e-05
3.193769217e-05
3.064516645e-05
3.330892773e-05
3.312277834e-05
3.277492402e-05
3.215076848e-05
3.13466092e-05
3.322765135e-05
3.310611469e-05
3.294760859e-05
3.270227539e-05
3.197055126e-05
3.337632586e-05
3.335634565e-05
3.311333642e-05
3.276075608e-05
3.235053112e-05
3.325385043e-05
3.322472079e-05
3.311718227e-05
3.296287168e-05
3.261522067e-05
3.335431977e-05
3.336788905e-05
3.330682384e-05
3.314123489e-05
3.289291298e-05
3.327444121e-05
3.331791087e-05
3.333669035e-05
3.324228614e-05
3.330440547e-05
3.345003975e-05
3.351743153e-05
3.355160301e-05
3.344240675e-05
3.31430716e-05
3.329749245e-05
3.330622234e-05
3.342936836e-05
3.34962527e-05
3.349251943e-05
3.341317075e-05
3.333102282e-05
3.337131364e-05
3.329759603e-05
3.315232332e-05
3.340061469e-05
3.346469711e-05
3.339543537e-05
3.337893692e-05
3.333946125e-05
3.345242337e-05
3.341706337e-05
3.332115311e-05
3.327428838e-05
3.31427085e-05
3.344840231e-05
3.332091715e-05
3.32036696e-05
3.323028895e-05
3.324525339e-05
3.341374597e-05
3.342939595e-05
3.342104635e-05
3.332847258e-05
3.309473384e-05
3.341489719e-05
3.33848481e-05
3.328238875e-05
3.329874711e-05
3.329101821e-05
3.339923527e-05
3.340231881e-05
3.344408335e-05
3.332865849e-05
3.32902801e-05
1.358714773e-05
1.200970364e-05
1.17594025e-05
1.166141658e-05
1.181156294e-05
1.17337969e-05
1.176506474e-05
1.198695957e-05
1.206555764e-05
1.219211402e-05
1.247100544e-05
1.252122957e-05
1.272039608e-05
1.301220319e-05
1.324561507e-05
1.354723329e-05
1.386587715e-05
1.454732267e-05
1.511850638e-05
1.586152754e-05
1.684509234e-05
1.813234845e-05
1.98927488e-05
2.281784835e-05
2.97225792e-05
1.561666949e-05
1.342402522e-05
1.259901264e-05
1.209656985e-05
1.19804047e-05
1.20010234e-05
1.208017801e-05
1.228811745e-05
1.233417667e-05
1.248222527e-05
1.270481958e-05
1.3048214e-05
1.305271433e-05
1.344620252e-05
1.360031182e-05
1.383789532e-05
1.437929299e-05
1.472984443e-05
1.540323363e-05
1.616707809e-05
1.708623932e-05
1.844076484e-05
2.021595095e-05
2.303479315e-05
2.921162978e-05
1.672324052e-05
1.476434592e-05
1.381463523e-05
1.318228719e-05
1.27066884e-05
1.255487218e-05
1.253287851e-05
1.246210244e-05
1.255420767e-05
1.273017803e-05
1.289670294e-05
1.31238539e-05
1.326411609e-05
1.361429132e-05
1.389812282e-05
1.406139403e-05
1.463135736e-05
1.497672854e-05
1.566650099e-05
1.629869107e-05
1.734927737e-05
1.869060911e-05
2.027582614e-05
2.266660034e-05
2.817040923e-05
1.764615475e-05
1.582342904e-05
1.477627782e-05
1.428105445e-05
1.365845489e-05
1.331911497e-05
1.317990781e-05
1.310277023e-05
1.299096719e-05
1.313759096e-05
1.310688414e-05
1.324982203e-05
1.347720011e-05
1.366301283e-05
1.403192809e-05
1.433461128e-05
1.479518191e-05
1.525093543e-05
1.583588851e-05
1.650286045e-05
1.739241318e-05
1.854968764e-05
2.007430145e-05
2.235381594e-05
2.739332266e-05
1.804280365e-05
1.666554682e-05
1.575439527e-05
1.512227371e-05
1.463889215e-05
1.426879032e-05
1.401295017e-05
1.381459881e-05
1.357160887e-05
1.351522534e-05
1.351401973e-05
1.359684005e-05
1.372660582e-05
1.385924515e-05
1.421636659e-05
1.454160125e-05
1.49143458e-05
1.539368957e-05
1.604368912e-05
1.655874895e-05
1.730738812e-05
1.849039022e-05
1.981147693e-05
2.212067862e-05
2.650834405e-05
1.879218347e-05
1.731162898e-05
1.636299321e-05
1.579485142e-05
1.547185051e-05
1.509646184e-05
1.472628598e-05
1.433663634e-05
1.411353591e-05
1.400006182e-05
1.39251814e-05
1.404486786e-05
1.412392196e-05
1.435623948e-05
1.465493478e-05
1.484307897e-05
1.516101348e-05
1.567290858e-05
1.59528766e-05
1.659958957e-05
1.756451675e-05
1.850775155e-05
1.949251693e-05
2.167678099e-05
2.612008501e-05
1.911574545e-05
1.775763037e-05
1.706701197e-05
1.65838115e-05
1.624610669e-05
1.606012622e-05
1.551171077e-05
1.512916107e-05
1.496443924e-05
1.472338816e-05
1.463385111e-05
1.458782972e-05
1.466765168e-05
1.478787123e-05
1.497506332e-05
1.510395587e-05
1.552539329e-05
1.579067059e-05
1.604412241e-05
1.672596312e-05
1.761502602e-05
1.834057258e-05
1.949646004e-05
2.146698389e-05
2.587522643e-05
1.935033856e-05
1.789849043e-05
1.752984072e-05
1.725199069e-05
1.700058026e-05
1.655685697e-05
1.62410136e-05
1.590439588e-05
1.582918417e-05
1.557124748e-05
1.548581634e-05
1.52233566e-05
1.513557499e-05
1.527249344e-05
1.535487811e-05
1.545061041e-05
1.580326938e-05
1.62063882e-05
1.644117102e-05
1.6999076e-05
1.7592972e-05
1.833916467e-05
1.975069774e-05
2.140615758e-05
2.567572769e-05
1.947864716e-05
1.830189016e-05
1.778510184e-05
1.764561018e-05
1.752819767e-05
1.712240086e-05
1.702431761e-05
1.668122444e-05
1.656064998e-05
1.616448113e-05
1.590200385e-05
1.594558581e-05