/*--------------------------------*- C++ -*----------------------------------*\
| =========                 |                                                 |
| \\      /  F ield         | OpenFOAM: The Open Source CFD Toolbox           |
|  \\    /   O peration     | Version:  v1706                                 |
|   \\  /    A nd           | Web:      www.OpenFOAM.com                      |
|    \\/     M anipulation  |                                                 |
\*---------------------------------------------------------------------------*/
FoamFile
{
    version     2.0;
    format      ascii;
    class       volScalarField;
    location    "0.003";
    object      mfp_Ar;
}
// * * * * * * * * * * * * * * * * * * * * * * * * * * * * * * * * * * * * * //

dimensions      [0 1 0 0 0 0 0];


internalField   nonuniform List<scalar> 
9720
(
0.01392111766
0.01432707757
0.01525794982
0.01697216659
0.01846389987
0.0138578919
0.01441260693
0.01546679838
0.01696436004
0.01847197329
0.01381511008
0.01433388107
0.01522388374
0.01655129211
0.01808263761
0.0138495792
0.01437656605
0.01504861579
0.01632941363
0.01792964633
0.01373188475
0.01415208792
0.01485120376
0.01591302203
0.01769050874
0.01362499589
0.01406948646
0.01463151421
0.01567964413
0.01743066715
0.01364941597
0.01398194387
0.01456545279
0.01565829223
0.01754671745
0.01360811497
0.01394797839
0.0143705443
0.01529415089
0.01721549543
0.01354298566
0.01372496277
0.0141071565
0.01504108442
0.01690478114
0.01354980796
0.01378890831
0.01427423883
0.01516893961
0.0170906361
0.01351817054
0.0137635353
0.01420843903
0.01503500642
0.01711926513
0.01346199239
0.01376175712
0.01426027014
0.01511431891
0.01711037778
0.01343789421
0.01365563995
0.01398484772
0.01483496857
0.01690079128
0.0134463257
0.0136438506
0.01389625229
0.01478234008
0.01687081588
0.01343996196
0.01367082852
0.01401549268
0.01476938
0.01679165125
0.01343267407
0.01357449959
0.01389681044
0.01454766777
0.01669095179
0.01347106707
0.01360636765
0.0138370296
0.01442347975
0.0165405546
0.0134044513
0.01350941358
0.01360608328
0.01415284137
0.01611678542
0.0137892218
0.01438395635
0.01534543657
0.01677973897
0.01816045803
0.01383782271
0.01438093975
0.01519814145
0.01679076313
0.01805512889
0.01389551205
0.01440263358
0.0152653036
0.0166460666
0.0178812186
0.01375687803
0.01424050914
0.01500607713
0.01625879621
0.01765174636
0.01375296357
0.01418727698
0.01497170945
0.01600418888
0.01735284099
0.01373029222
0.01397690796
0.01467823935
0.01581144722
0.01705256245
0.01373641941
0.01406281826
0.01461859094
0.01555981947
0.01685078729
0.01358450242
0.01391821721
0.0144161294
0.01555179984
0.01679015332
0.01361309373
0.01387500043
0.01439878998
0.01543005521
0.01679649197
0.01359192962
0.0138106486
0.01433880294
0.01532731739
0.01680542558
0.01355423865
0.01383114756
0.01426001668
0.01519812414
0.01650492106
0.01352261836
0.01373036999
0.01432467332
0.01530713003
0.0167265225
0.01347051126
0.01376229733
0.01437259172
0.01527204594
0.01658806782
0.01357402146
0.01376591522
0.01422136109
0.01526316559
0.01649845623
0.01348131876
0.0136404237
0.0141214749
0.01488180825
0.01625124222
0.01350876649
0.01358284873
0.01395638441
0.01486633628
0.01624499758
0.01347577404
0.01352268314
0.01386010533
0.01464917174
0.01590735598
0.01340222094
0.0134888917
0.01371803392
0.01435314731
0.01533654722
0.01376560019
0.0141518955
0.01514891113
0.01647340987
0.01797202641
0.01385964429
0.01442016986
0.0152662344
0.01655019885
0.01782720189
0.01375956481
0.01420675803
0.01505127555
0.01637413271
0.01753092684
0.0137594765
0.01422678213
0.01491894875
0.01607321441
0.01708811708
0.01374628713
0.0140817439
0.01478643777
0.01576825041
0.01690548877
0.01369469806
0.01407935385
0.01479637536
0.01560385762
0.01660635332
0.01370243916
0.01410540635
0.01460499931
0.01528559986
0.01635597872
0.01362136983
0.01396677273
0.01452248974
0.01515831721
0.01614696649
0.01362530499
0.01385364186
0.01425197761
0.01506982949
0.01607544708
0.01359544254
0.0138729438
0.0143630465
0.01502655298
0.01590834631
0.01355810158
0.01377143654
0.01418167079
0.01483198604
0.01592851287
0.01362593392
0.01384252954
0.01412668555
0.01486439897
0.01580481992
0.01354334027
0.01384225323
0.01411707487
0.01469763849
0.01563040891
0.01347682781
0.0136934175
0.01407931899
0.01477102183
0.01561572434
0.01356129911
0.01369645366
0.01410051049
0.01476896959
0.01564382454
0.01345430888
0.01365706521
0.01390622939
0.01447319568
0.01545099864
0.01346477138
0.01362215508
0.01387634566
0.01439957363
0.01518261454
0.01340303511
0.01350643665
0.01378722841
0.01415983844
0.01478947683
0.01373829997
0.01425572023
0.01503253305
0.01627508244
0.01779642036
0.01385353075
0.01435082503
0.01527362971
0.01639785559
0.01762763397
0.01367601541
0.01425225684
0.01509147392
0.01604327028
0.0170834256
0.01379642171
0.01423593002
0.0149209957
0.01577997693
0.01652557703
0.01367319794
0.01408009171
0.01467436792
0.0154313688
0.01629166368
0.01367717837
0.01405309742
0.0145971825
0.01528572039
0.01607090409
0.0136809219
0.01396984889
0.01429160056
0.01496533435
0.01585035719
0.0136309166
0.01381419885
0.01416943555
0.01484430166
0.01557327819
0.01353974057
0.01381767314
0.01420979326
0.01474046041
0.01536321559
0.01353508116
0.01375787973
0.01408000261
0.01467941572
0.01523959187
0.01356221115
0.01383547998
0.014169309
0.01466630981
0.01526885283
0.01347087877
0.0135917693
0.01388704543
0.01450324457
0.01509718526
0.01346221751
0.01365186055
0.01404294378
0.01443888171
0.01502761794
0.01348939974
0.01368679104
0.01399972662
0.01442085054
0.01506593571
0.01342308413
0.01360305314
0.01385337847
0.01415083701
0.01470907228
0.01344150489
0.01358402695
0.01384360926
0.01417576991
0.01476006213
0.01346397783
0.01363130833
0.01380729412
0.01420196519
0.01464799901
0.01348863594
0.01356973773
0.01368404667
0.01396168281
0.01446512548
0.01383261317
0.01420504928
0.01491749443
0.01599297615
0.01776134329
0.01378297533
0.01426605585
0.014796762
0.01586900087
0.01717334827
0.01376002979
0.01421633
0.01483074121
0.01568058775
0.01675625708
0.01368835547
0.014075598
0.01469187543
0.01546756533
0.01612915241
0.01373966929
0.01409749554
0.01465235934
0.0153224496
0.01606182153
0.01364658978
0.01404215917
0.01443724469
0.01504469939
0.01565606743
0.01366626041
0.01384714643
0.01423637633
0.01469320869
0.01529849083
0.01369230351
0.01393800392
0.01423202349
0.01462881876
0.01510204803
0.01353922518
0.01373183612
0.01409954005
0.0144906131
0.01500610431
0.0135759945
0.01380373196
0.0140683079
0.01433930404
0.01497402855
0.01354204804
0.01372267313
0.01406451069
0.01432576927
0.0148440445
0.01353396217
0.01364329627
0.01388885149
0.01430782136
0.01480081874
0.01351181481
0.01371614973
0.01398360635
0.01438013555
0.01472539015
0.01348270654
0.01363883678
0.01378368131
0.01419959922
0.0145497618
0.0134331065
0.01362115433
0.01379402198
0.01409744006
0.01462221114
0.0134600189
0.01364556107
0.01382338982
0.01407066794
0.01446105712
0.01343120723
0.01348181571
0.01362776617
0.01386575013
0.01417411207
0.01334862105
0.01339760149
0.01348121902
0.01375481883
0.01409720605
0.01373773201
0.014167049
0.01475109292
0.01577208399
0.01757003311
0.01369848742
0.01414767333
0.01479286169
0.01579271423
0.01703139768
0.01374943348
0.01404779741
0.01458963436
0.01548563852
0.01642624088
0.01362921102
0.01396736593
0.01450273138
0.01530957693
0.01594198644
0.01369098399
0.01396369119
0.01442618133
0.01503545042
0.0155727673
0.01363821518
0.01390314896
0.01433189237
0.01472803137
0.01522758282
0.01358216827
0.01377860293
0.01409957503
0.01464715215
0.01513975764
0.01361611352
0.01384026278
0.01402452638
0.01434240513
0.0148312202
0.01356137322
0.01372638075
0.01398692141
0.014196689
0.01467618178
0.01351707326
0.01366035916
0.01394334328
0.01424452676
0.01458160063
0.01354232707
0.01358639982
0.01383286511
0.0142119798
0.0146039425
0.01345473498
0.01358267774
0.01368919282
0.01410978962
0.01442062375
0.01344879381
0.01348319422
0.01369986358
0.01396169117
0.01423021706
0.01345416333
0.01365478045
0.01376421631
0.01405749958
0.01428184174
0.01344404775
0.01348982074
0.01360245612
0.01388692153
0.0141281746
0.0133869472
0.01347979283
0.01368572898
0.01375504569
0.01403744927
0.0134217194
0.01344707315
0.01359397104
0.01371774835
0.01393996955
0.01342607111
0.01347550709
0.01358831433
0.01374014306
0.01379607275
0.01377436841
0.01409125286
0.0146452284
0.01563075667
0.01742845492
0.01373311411
0.01398444867
0.01459906769
0.01549947193
0.01684934408
0.01373805567
0.01406737699
0.01449762941
0.01527658996
0.01631781211
0.01369233764
0.01388613651
0.01444588594
0.01509224786
0.015842974
0.01354265898
0.01383781491
0.0141437414
0.01468271768
0.0151683358
0.01359864886
0.01381061754
0.01410207421
0.0146343099
0.01518452702
0.01358217167
0.01382989467
0.0140668352
0.01435559645
0.01480251359
0.01352889835
0.01369798682
0.01393474587
0.01423653018
0.01465327742
0.01354510344
0.01369688776
0.0138159009
0.01409011973
0.01460564593
0.01350913841
0.01358850085
0.01378644328
0.01401488021
0.01420327154
0.01345855637
0.01354508991
0.01380707609
0.01396919744
0.01425144004
0.01342666678
0.01351753784
0.01366703022
0.01397644288
0.0141628777
0.01343731179
0.01363940679
0.01374047719
0.01386750798
0.01403464058
0.01337432397
0.01349146196
0.01356050846
0.0137915958
0.01395353573
0.01333038827
0.01346365217
0.01356123441
0.01375084844
0.01400734385
0.01336279443
0.01345385316
0.0135153219
0.01365172922
0.01373981402
0.01335644298
0.01344432441
0.01360533594
0.01369630651
0.01387010397
0.01340200593
0.01341080814
0.01350534482
0.01356750116
0.01366551014
0.01367266637
0.01398929066
0.01455005731
0.01544748045
0.01722381837
0.01371337967
0.01406607961
0.01463908092
0.01557726172
0.01699033178
0.01366129181
0.01402632516
0.01452755724
0.01518955737
0.01611793947
0.01362707758
0.01386714872
0.01433092892
0.0148831413
0.01551945214
0.01354295978
0.0137547301
0.01398182449
0.0145674919
0.01501077477
0.01355626969
0.01378364512
0.01410992536
0.01447853999
0.01493013003
0.01351803218
0.01365093108
0.01386060489
0.01419317163
0.01460484926
0.01350895434
0.01362500421
0.0137709988
0.01400548689
0.01431557048
0.01344888716
0.01361332288
0.0137151516
0.01392969219
0.01420659124
0.01349835397
0.01365929661
0.0137874158
0.01394956514
0.01426435907
0.0134093949
0.01351976718
0.01371559651
0.013977181
0.01419110981
0.01338072961
0.01351265197
0.01359499525
0.01376197648
0.01397199752
0.01337642693
0.01354256123
0.01362861285
0.01368325218
0.01386296066
0.01338480306
0.01347782917
0.01349673362
0.01363538341
0.01372601072
0.01335613015
0.01343544155
0.01356480905
0.01360158792
0.0138988834
0.01341169613
0.01343717727
0.01352201241
0.01364756034
0.01372524925
0.01336330962
0.01340963612
0.01346433461
0.0134520038
0.01355257402
0.01339503773
0.01346057043
0.0135224308
0.01359524836
0.01363071408
0.01363248223
0.01388458431
0.01441011908
0.01527972705
0.01712452379
0.01366066761
0.01386931488
0.01453855132
0.01546552141
0.01682559435
0.0136625921
0.01392667795
0.01438842883
0.0151795608
0.0160186063
0.01349536092
0.01376469508
0.01409716966
0.01480153606
0.01538645328
0.01359720817
0.01379564433
0.01407631253
0.01451934101
0.01497852092
0.01349179711
0.01362890353
0.01392329181
0.01420556444
0.01464030682
0.01351474815
0.01367951546
0.01383946524
0.01411450107
0.01446002579
0.01341164099
0.01363428851
0.01383232303
0.01398106048
0.01431314729
0.0134972439
0.01362510107
0.01367020414
0.01384605757
0.01405575888
0.01344072691
0.01350434346
0.01351910063
0.0137237794
0.01397919205
0.01341961926
0.01351640347
0.01353148134
0.0136595213
0.01379729179
0.01341609479
0.01346360743
0.01358670483
0.01368800376
0.01384704632
0.01338851948
0.01344540161
0.01354515734
0.0136672274
0.01374711435
0.01337364197
0.01345863608
0.01349390552
0.0136141339
0.01368988019
0.01335436636
0.01342602701
0.01350059952
0.01359698716
0.01369824302
0.0133043434
0.01334876023
0.01345271825
0.01353099954
0.01361703806
0.01335088816
0.01343397229
0.01348839435
0.01357595821
0.01362285312
0.01339009614
0.01334974386
0.0133559864
0.01346745825
0.01353582001
0.01354099305
0.01374135411
0.01419800069
0.01502832715
0.01703660538
0.01364518192
0.01388007654
0.01436148317
0.01535986512
0.01679064112
0.01354856465
0.0137934386
0.0142560378
0.01490251693
0.01587558945
0.01352877068
0.01371945963
0.01408075947
0.0146010029
0.01528742496
0.01360597835
0.01378188627
0.01405929666
0.01439913436
0.0149007078
0.01350267464
0.01367953537
0.01400875511
0.01426052276
0.01463706402
0.01350069218
0.01364415767
0.01380085057
0.01414138978
0.01439690928
0.01349465064
0.0136567677
0.01374289193
0.01391682752
0.01416485464
0.01346345189
0.01364979318
0.01371370792
0.01385587231
0.01409909139
0.01348418544
0.01355641148
0.01364111772
0.01382745885
0.01393605962
0.01339217755
0.01348826444
0.01353739003
0.01365143236
0.01383305809
0.01337133693
0.0134199936
0.01346017993
0.01357441441
0.01359994512
0.01337462836
0.01332891378
0.01336944358
0.01350478789
0.01370368502
0.01341567321
0.01353826945
0.0135654205
0.01364270057
0.01372968277
0.01338402276
0.01344021459
0.01342811501
0.01350540269
0.0136324655
0.0133567678
0.0134495595
0.01350606821
0.01352985188
0.0135315896
0.01335908959
0.01335752828
0.01330287823
0.01344162064
0.01353868034
0.01333631178
0.01339758869
0.0134458196
0.01350478276
0.01354024033
0.01354028077
0.01373646536
0.01419309733
0.01507986413
0.01699147691
0.01353678378
0.01377663604
0.01415449168
0.01510821759
0.01666095348
0.01352866043
0.01384079863
0.01419981097
0.01500303888
0.01589002507
0.01357102668
0.01384346523
0.01417558038
0.0147002635
0.0153934814
0.01362487602
0.01363935982
0.01392906989
0.01437263638
0.01481014825
0.01353595671
0.0136465276
0.01390245817
0.01412493497
0.01444020236
0.01348581887
0.013603765
0.01379935279
0.01392494014
0.0141883808
0.0134451954
0.01348922056
0.01359285945
0.01368317739
0.013927988
0.01333125629
0.01342775242
0.01350858342
0.01363176447
0.01379257377
0.01336398153
0.01344669164
0.01356764896
0.0137127605
0.01379822272
0.01338880151
0.01342230286
0.01345040503
0.01355509852
0.01366080559
0.01339334932
0.01345296328
0.0135518168
0.0136425584
0.01368129061
0.0133911811
0.01348071927
0.01354003134
0.01354376142
0.01358665789
0.0133454462
0.01338175065
0.01346107871
0.01351408421
0.01358829074
0.01336236325
0.01339416319
0.01344183078
0.01341769482
0.01352578299
0.01338141669
0.01337099437
0.01336329977
0.01341664014
0.01344891744
0.01333136216
0.01334128295
0.01337900057
0.01341889313
0.01349138883
0.01333358385
0.01334543268
0.01331877723
0.01336329783
0.01341211974
0.01346582825
0.01373444212
0.01411360487
0.01494659947
0.01700920622
0.0134672932
0.01370257244
0.01418577111
0.01515278143
0.01650430982
0.01353039203
0.01382227434
0.01427738407
0.01496319242
0.01589314626
0.01351616764
0.01377557083
0.01415328311
0.01468547137
0.01539019208
0.01353073489
0.01367331253
0.01392229944
0.0142798082
0.01475620783
0.01349766969
0.01363511248
0.01377194858
0.01403594651
0.01434427353
0.01341669273
0.01352522649
0.01364187958
0.01378904138
0.01415514201
0.01348260295
0.01362415641
0.01368220552
0.01373116384
0.0140255416
0.01346203635
0.01356091243
0.01362968618
0.01366104996
0.01383627077
0.01339431281
0.01346823797
0.0135355763
0.01366190469
0.01370895849
0.01336879095
0.0134100464
0.01347540407
0.01359997834
0.01364861246
0.01345946614
0.01346871625
0.01353142579
0.01356212482
0.01362336373
0.01334759422
0.01332341624
0.01335343201
0.01342227485
0.01351651987
0.01339780337
0.01338812109
0.01335381905
0.01343891948
0.01352816987
0.01333926851
0.01332836181
0.01335613152
0.01343923619
0.01352247665
0.01338890282
0.01342109542
0.01346082583
0.01346307084
0.0135581279
0.01333995603
0.0133579346
0.01337043471
0.01339226863
0.01346497957
0.01333577793
0.0133243202
0.01336945156
0.01341838164
0.01343902374
0.01350895321
0.01371030309
0.01407252659
0.0148358692
0.0167912074
0.01349919749
0.01373048854
0.01415624086
0.01509190852
0.01647805392
0.01352739154
0.01364614762
0.01395783902
0.01465126602
0.01546139181
0.01355170956
0.01372966106
0.01394648223
0.01447249222
0.01512634872
0.01355738937
0.01367667788
0.01388304195
0.01422489973
0.01459661814
0.01350606339
0.01359647655
0.01384419293
0.01409499609
0.01443635131
0.01347663633
0.01350279118
0.01363100592
0.01377603831
0.01406871257
0.01344925263
0.01353539934
0.01355202594
0.01375714356
0.01392357522
0.01346580325
0.01353710698
0.01366232623
0.01369126999
0.01381532577
0.01339758961
0.01339235885
0.01344388817
0.01350205597
0.0137094299
0.0133487599
0.0133620533
0.01338664583
0.01348205329
0.01356835001
0.01335089147
0.01331865908
0.01340693346
0.01347578498
0.01353954694
0.01339625062
0.01342614428
0.01337668624
0.01342608662
0.01347839413
0.01343833299
0.01349544092
0.0135493543
0.01357679256
0.01354119315
0.01331046177
0.01330322833
0.0133583017
0.01334926026
0.01344357549
0.01338056068
0.01342349233
0.01339414147
0.01349074871
0.01352165361
0.01332463607
0.01340468292
0.013449838
0.01349148215
0.01354066819
0.01331430012
0.01327857869
0.01323260241
0.01327531019
0.01326162139
0.01346361717
0.01366315931
0.01405658395
0.01482001919
0.01693516537
0.01351447945
0.01366394799
0.01414232455
0.01498595296
0.01626427795
0.01351374201
0.01378936002
0.01413994697
0.01472218759
0.01564667728
0.01349152621
0.01360811336
0.01400182155
0.01445374866
0.01507050893
0.01351035982
0.01362708407
0.01385460788
0.01415686497
0.01448959158
0.01346272961
0.01354784295
0.01373384315
0.0139814344
0.01420708161
0.01338744183
0.01345229092
0.01363203608
0.01379221811
0.01408482022
0.01346126057
0.01347513053
0.01359012583
0.01370087311
0.01386667955
0.01339068609
0.013424561
0.01349973586
0.01352809909
0.01362889066
0.01335667843
0.01343966084
0.0134831805
0.01350947113
0.0135749269
0.01345368909
0.01350957602
0.01357823834
0.01360729459
0.01365696425
0.01334036141
0.01335607754
0.01337010033
0.01349916095
0.01353605747
0.01339404299
0.01347248203
0.0134692591
0.01350600418
0.01353522175
0.01332393866
0.01329595969
0.0133477384
0.01334247724
0.0134060113
0.01335040156
0.01337554115
0.01341255587
0.01342021288
0.01346504376
0.0133272583
0.01335271135
0.01334462652
0.01327437496
0.01327783252
0.01333434176
0.01335733889
0.01334484034
0.01338185813
0.01347647342
0.01335461126
0.01341106705
0.01343686131
0.01344744483
0.01344904268
0.01353924832
0.01373117297
0.01400821653
0.01476197337
0.01687429096
0.01352921383
0.01369657992
0.01403863735
0.01485349023
0.0163124369
0.01351441474
0.01363447744
0.01393261879
0.01461379933
0.01559983237
0.01348270515
0.01354172329
0.01380132213
0.01432472171
0.01480893568
0.01345394993
0.01357571748
0.0138340516
0.0140610156
0.01447737921
0.01344916464
0.01356427289
0.01362119084
0.01388067899
0.01422342696
0.01341076264
0.01343103377
0.01350567199
0.01359332957
0.01369042991
0.01338271789
0.01342730278
0.0135085471
0.0135725466
0.01376063265
0.01338617856
0.01349682454
0.01360210256
0.01360686799
0.01377886469
0.01332295449
0.01331419701
0.01335940788
0.01345393323
0.013560849
0.01333602732
0.01334850406
0.01335742121
0.01339252111
0.0134384664
0.01334249256
0.01336925747
0.01341566222
0.01351414496
0.01356840392
0.013303826
0.01333664706
0.01331476454
0.01337564542
0.01341220701
0.01335632526
0.0133215611
0.01330443037
0.01332664014
0.0133997297
0.01331421372
0.01335224805
0.0134428877
0.01349938177
0.0134849026
0.01336279252
0.01338334223
0.01336042537
0.01331202308
0.01329681676
0.01329300384
0.01328421578
0.01334725382
0.0133728085
0.01340871713
0.01336020855
0.01338568178
0.0133083518
0.01332640273
0.01333751166
0.01343875181
0.013558464
0.013894933
0.01449392213
0.01667918281
0.01344456288
0.01364722356
0.0140104075
0.01453224309
0.01613568115
0.01340966893
0.01360360781
0.01390970952
0.01440698265
0.01527598871
0.01341112481
0.01351845596
0.01378640188
0.01416419605
0.01472767893
0.01342442747
0.01354759266
0.01361566619
0.0138909231
0.01421338941
0.01342627171
0.01353631616
0.01361110465
0.0137435568
0.01399306625
0.01345394383
0.01345687963
0.0135083349
0.01360466514
0.01378098947
0.01337446502
0.01338499781
0.01353465681
0.01366509956
0.01377452579
0.01339492619
0.0134935088
0.01361618636
0.01359783185
0.01361887253
0.01337539521
0.0133692568
0.01341206831
0.0134375573
0.01353185745
0.01332286479
0.01334971099
0.01336449643
0.01340507648
0.01352528216
0.01337110815
0.01342885786
0.01344083697
0.01343505938
0.0134780849
0.01337198296
0.01331521963
0.01334622924
0.01338818561
0.01340752896
0.01334061089
0.01330334215
0.01329767547
0.01331244765
0.01335122643
0.01335277848
0.01333395351
0.01333519387
0.01336205469
0.01339719787
0.01332489258
0.01336949945
0.01335317744
0.01337610211
0.01343861542
0.01336555598
0.01334136723
0.01339127356
0.01340174029
0.01336276672
0.01333137572
0.01333224028
0.01332807187
0.01333803945
0.01341315119
0.01345035549
0.01365427898
0.01385847085
0.01456773081
0.0166934466
0.01346247782
0.01364376915
0.01392593303
0.01473692842
0.01615599011
0.01343637448
0.0136006996
0.01385367416
0.01445093433
0.01511164305
0.01347437629
0.01361165944
0.01384394492
0.0141311594
0.01461511342
0.01340771475
0.01349774076
0.01366141741
0.01376658617
0.014125794
0.01337074561
0.01340574291
0.01342939497
0.01358772165
0.01384867376
0.01339861038
0.01344429045
0.01354695228
0.01365693842
0.01387573124
0.01339050098
0.01343560537
0.01348505402
0.01352229815
0.0136786639
0.01337505265
0.01340130503
0.01342476624
0.0134342923
0.01351673799
0.01333707428
0.01339176026
0.01348069981
0.01350298851
0.01357621167
0.01332100031
0.01332773348
0.01327627303
0.01332188112
0.01336056063
0.01337552531
0.01338784292
0.01340742809
0.01342741595
0.01345155343
0.01334862325
0.01339220734
0.01341030258
0.01343069177
0.01348815761
0.01335174096
0.0133353467
0.01334416974
0.01338928592
0.0134026865
0.0133982017
0.01344471149
0.0134954678
0.0134914606
0.0135279865
0.01337380747
0.01332923307
0.01336461649
0.01335044573
0.01337749427
0.01334956732
0.01338627517
0.01341563587
0.01341736317
0.01341403482
0.01335444346
0.0133300807
0.01332131334
0.0133140189
0.01332495648
0.01339257755
0.01343267267
0.01357991406
0.01412705073
0.01613949661
0.01336272303
0.0135166905
0.01374184961
0.01429068456
0.01541303822
0.01336600107
0.01341293308
0.01364056945
0.0141227973
0.0146927348
0.01342524627
0.01353791673
0.01375488888
0.01400205007
0.01431802663
0.0133543328
0.01350441297
0.01361211577
0.01375885634
0.0139426562
0.01346693284
0.01354903723
0.01355805003
0.01372611457
0.01387991291
0.01335620719
0.01336579072
0.01344167085
0.01350854461
0.01362780756
0.01335120641
0.01338752247
0.01337700826
0.01347280885
0.01357774902
0.01337980262
0.01337103985
0.01340277855
0.01347459466
0.01352383135
0.01337455056
0.01339122174
0.01342841835
0.01347172217
0.01348656931
0.0133326611
0.01334064256
0.01338873068
0.01337214024
0.01340425324
0.01330331524
0.01329324138
0.01334891902
0.01340274025
0.01344676451
0.01331834218
0.0133539173
0.01336975061
0.01338210203
0.01333882179
0.0133408116
0.013348074
0.01334442662
0.01332716242
0.01334463176
0.01332540318
0.01332643222
0.01336746381
0.01339033577
0.01338901754
0.01331285021
0.01330114861
0.01333991844
0.01335884586
0.01339007084
0.01329638137
0.01331049346
0.01327391115
0.01330530343
0.01331981658
0.01335611053
0.01335889604
0.01338095393
0.01338791983
0.01334784871
0.01479156451
0.0130267797
0.01223467366
0.01167943645
0.01137213623
0.01108565346
0.01106392099
0.0108410543
0.01083421263
0.01083329871
0.01062340877
0.01068091595
0.01075639508
0.01078924636
0.01098517799
0.01116849209
0.01149314015
0.01186803568
0.01210791081
0.01281439264
0.01337891224
0.0144647037
0.01623124295
0.01857603152
0.02404302302
0.01636593205
0.01451083676
0.01336058332
0.01279661501
0.01237776722
0.01208346985
0.01199392616
0.01190166725
0.0116344664
0.0117141948
0.01156551815
0.01158007176
0.01178796113
0.01184323417
0.01199359594
0.01211587231
0.01231289889
0.01269340461
0.01297667724
0.0135654158
0.0144261626
0.01543820246
0.01673550139
0.01915740681
0.02394871268
0.01709805564
0.01582480242
0.01479269126
0.014039605
0.01352639531
0.01318571881
0.01272469719
0.01263687589
0.01256202128
0.0124732962
0.0124038773
0.0122048189
0.01223625044
0.01239517703
0.01253878488
0.01260220174
0.01300055068
0.0133374033
0.01369909923
0.01409790401
0.01491015205
0.01587697793
0.01710484617
0.01931622862
0.0235874111
0.01734469981
0.01644753797
0.01582659672
0.0152373814
0.01475627474
0.01417466846
0.01368643411
0.01336317348
0.01317093678
0.01302238309
0.01288627936
0.01277726778
0.0128034579
0.01291650204
0.01303998577
0.01314169238
0.01330508912
0.01371278306
0.01402676053
0.01462957354
0.01524677821
0.01615269193
0.01731717412
0.01944947975
0.02320797198
0.0175801936
0.01715230149
0.01658094449
0.01610065802
0.01567383102
0.01517629766
0.01459658373
0.01426247361
0.01386353559
0.01365848667
0.01367599821
0.01338081825
0.0133333707
0.01333579669
0.01343728085
0.01360232678
0.01402985393
0.01419538331
0.01444324018
0.0148273079
0.01557383346
0.01629314821
0.01748682875
0.01943817505
0.02302710173
0.01766877587
0.0172272593
0.01698484411
0.01682862289
0.01656823234
0.01606559535
0.01560820739
0.01507367815
0.01467412374
0.01433241089
0.01417822334
0.01398899496
0.01376626273
0.01391697514
0.01413003854
0.0141485534
0.01424015545
0.01446370674
0.01478294682
0.01526981738
0.01579142355
0.01667118188
0.01775505782
0.01956878441
0.0226165404
0.017924893
0.01765320201
0.01745926251
0.01747377859
0.017296223
0.01699773736
0.01648200577
0.01608524149
0.01562129058
0.01517984555
0.0148876755
0.0148523892
0.01457553222
0.01438660944
0.01458434819
0.01459927631
0.01475049536
0.01495319294
0.01516559149
0.0155491162
0.01612078927
0.01681867974
0.01800768729
0.01950155789
0.02232568381
0.01775289532
0.01760125048
0.01772250604
0.017715215
0.01764084091
0.01755454722
0.0171021518
0.0166802287
0.0164169977
0.0160873263
0.01588031402
0.01553177466
0.01540652646
0.01506381739
0.01532672279
0.01497273818
0.01515035056
0.01543764601
0.01571552945
0.01619861867
0.01667659301
0.01719929925
0.01822269795
0.01982779363
0.022427063
0.01758841091
0.01754058476
0.01786432761
0.01824924191
0.01834698023
0.01822136944
0.01799961626
0.01762825015
0.01742154741
0.01689717531
0.01657552753
0.01635303412
0.01609832834
0.01592708567
0.0158620765
0.0157973508
0.01583568006
0.01606073899
0.01618945828
0.01653628259
0.01691634565
0.0174939627
0.01857859593
0.01993149963
0.0227350366
0.01782924789
0.01780036368
0.01809616291
0.01824805199
0.01855130859
0.01877848695
0.01860410386
0.01850538313
0.01804264135
0.01796815781
0.01740741063
0.01713222195
0.01686900164
0.01672265719
0.01661426226
0.01673267552
0.01671458308
0.01679215625
0.016961545
0.01696636119
0.01762847685
0.01820465894
0.0191340106
0.0203724095
0.0230558061
0.01791456907
0.01791317696
0.01825550986
0.0185548409
0.01888088965
0.01897133593
0.01905976279
0.01916559133
0.01886049968
0.01870385359
0.01860645601
0.01811337023
0.01767430463
0.01751250896
0.01761086182
0.01758065471
0.01768838709
0.01776381838
0.01772086286
0.01811746255
0.01833900126
0.01903362939
0.01978897516
0.02101277415
0.02380925181
0.01798078339
0.01792547021
0.01828807021
0.01879811153
0.0192576294
0.01976560581
0.01979171665
0.01976766959
0.01980285356
0.0193765927
0.01937165109
0.0188602104
0.01873419277
0.01869133289
0.01862853938
0.01845188158
0.0184859824
0.0184925198
0.01893008131
0.01907773127
0.01913589763
0.0196013668
0.02065043224
0.02162601838
0.02454988221
0.01780975218
0.01786695749
0.01827894234
0.01886818204
0.01953245126
0.01992291729
0.02002111861
0.02005571487
0.02021623413
0.02024748112
0.02028734187
0.02026235651
0.01989648025
0.019645172
0.01981534298
0.01964353684
0.01980269342
0.01960947145
0.01966989731
0.01983658066
0.0202377724
0.02068142425
0.02138015119
0.02245938228
0.02549215955
0.01781789867
0.01788692336
0.01825463594
0.01888541737
0.01945885902
0.01995913764
0.02059846252
0.02074367328
0.02108795156
0.02115775669
0.02117784645
0.02141473877
0.02125393383
0.02126313813
0.02111189313
0.02123034303
0.02084146351
0.02074788248
0.02090475182
0.02083162222
0.02130559279
0.02160145411
0.0225502045
0.02360381545
0.02638235655
0.01790073475
0.0181168553
0.01861798249
0.01920956702
0.01990312182
0.02034570327
0.02112656011
0.02158785608
0.02193383117
0.02240321369
0.02251405012
0.02278464009
0.02231434096
0.02251391261
0.02257503475
0.02219298347
0.02218164628
0.02209774517
0.02238050452
0.02218753139
0.02268479642
0.02281552365
0.02362470281
0.02460767483
0.02781300089
0.01792531098
0.0181428393
0.01871218182
0.01951786643
0.0202449359
0.02103217717
0.02183076138
0.022400756
0.02280229924
0.02324039567
0.02357100221
0.0236583321
0.02389292316
0.02380895846
0.02383218769
0.02375686785
0.02358079811
0.02372215021
0.02357259965
0.02348072326
0.02371330357
0.02413510276
0.02479454113
0.02593871697
0.02813899561
0.01792409629
0.01826409068
0.01901137392
0.01999502077
0.02094590942
0.02196662731
0.02279100663
0.02338101803
0.02407581686
0.02458302317
0.02481406366
0.02482223732
0.025019206
0.0249861538
0.02524782871
0.02509758293
0.02512572652
0.0249754729
0.02468897047
0.02497452601
0.02504075742
0.02522684936
0.02580908944
0.0264349446
0.02927572359
0.01799637969
0.01868065705
0.01964712634
0.02062141015
0.0215530949
0.02229058669
0.02306756071
0.02351763835
0.02396241338
0.02406836112
0.0246154217
0.02455770736
0.02462971363
0.02472551276
0.02455932536
0.02498725628
0.02463785078
0.02469958538
0.02443984651
0.02461037036
0.02484007307
0.0247561079
0.02511934428
0.02548650885
0.02662691728
0.01631837332
0.01455063264
0.0134999863
0.01280646059
0.01246595903
0.01213897776
0.01197601238
0.01197251209
0.01179714835
0.01175195812
0.0116469476
0.01159758446
0.01158785266
0.01173412504
0.01195510373
0.01195752761
0.01228225912
0.01268424306
0.01315508916
0.01360424857
0.01420448506
0.01526053872
0.01698593374
0.01914747759
0.02358355705
0.01737049888
0.01551657294
0.01412339052
0.01328236932
0.01293433725
0.01281743314