/*--------------------------------*- C++ -*----------------------------------*\
| =========                 |                                                 |
| \\      /  F ield         | OpenFOAM: The Open Source CFD Toolbox           |
|  \\    /   O peration     | Version:  v1706                                 |
|   \\  /    A nd           | Web:      www.OpenFOAM.com                      |
|    \\/     M anipulation  |                                                 |
\*---------------------------------------------------------------------------*/
FoamFile
{
    version     2.0;
    format      ascii;
    class       volScalarField;
    location    "0.003";
    object      mfpCellRatio_Ar;
}
// * * * * * * * * * * * * * * * * * * * * * * * * * * * * * * * * * * * * * //

dimensions      [0 0 0 0 0 0 0];


internalField   nonuniform List<scalar> 
9720
(
1.391898299
1.442897591
1.541230189
1.700553519
1.856872602
1.394666467
1.44047263
1.520178529
1.682944484
1.825775745
1.379414954
1.434924976
1.511590883
1.649509661
1.800086724
1.374735314
1.43565273
1.500444892
1.637213895
1.786893742
1.373447208
1.410491847
1.481128564
1.598278342
1.756956224
1.366444803
1.407548208
1.467724023
1.572125304
1.750137823
1.373312569
1.412520056
1.460534589
1.551718074
1.740895786
1.368986678
1.394479615
1.437342184
1.52863946
1.725897896
1.359047537
1.390200001
1.436025807
1.527496554
1.711174089
1.360230333
1.384632469
1.421398254
1.528785112
1.714778851
1.352446294
1.378929373
1.423983135
1.520960745
1.72139233
1.353928283
1.375645808
1.422740496
1.51123851
1.714812687
1.351846449
1.368700814
1.421371717
1.502151132
1.7000316
1.351032847
1.366784485
1.40782462
1.492632297
1.697807655
1.345629409
1.369473674
1.405176019
1.476644813
1.698202134
1.3479494
1.368742494
1.38350207
1.459525087
1.676548334
1.3425638
1.355375536
1.375588166
1.455201876
1.663413071
1.343732822
1.348295721
1.372787601
1.427772533
1.606663788
1.385051267
1.437325033
1.5401555
1.690730999
1.824445792
1.386716962
1.449514731
1.538869348
1.687632226
1.810442697
1.39110147
1.436218438
1.526318114
1.653344103
1.781710513
1.381997703
1.423845015
1.508452401
1.612536125
1.746761079
1.37834179
1.432322463
1.494546583
1.598982039
1.728456692
1.375390852
1.409302031
1.47378592
1.565310592
1.711534827
1.362353104
1.396705201
1.451570529
1.557554145
1.6924974
1.362800731
1.395951106
1.455875203
1.548084207
1.696084127
1.35746797
1.390323699
1.44443356
1.527367446
1.675821105
1.360529483
1.384199473
1.438800465
1.529030569
1.668283535
1.355854498
1.377871599
1.429388123
1.519884005
1.645416076
1.352504007
1.376582593
1.420100963
1.51299844
1.646076045
1.357826909
1.376473251
1.417558138
1.506498613
1.638208984
1.349633287
1.365187773
1.414710144
1.507523295
1.637131946
1.345000186
1.368956883
1.404613966
1.485176294
1.618266786
1.344345753
1.363965754
1.397677392
1.477151296
1.607249775
1.344602699
1.358445235
1.395036964
1.464414063
1.591873927
1.342586424
1.354178808
1.385650471
1.43832901
1.557132492
1.374774776
1.43403393
1.537033902
1.660218003
1.81115813
1.373275472
1.436132746
1.528981945
1.664994192
1.784467369
1.388949639
1.433997308
1.527473438
1.647692881
1.761263339
1.388855221
1.437343014
1.503652925
1.609183553
1.703079514
1.378773944
1.410219091
1.489429976
1.5750834
1.682744026
1.366278905
1.406596345
1.462356369
1.542887391
1.660377215
1.365918069
1.400893676
1.459847981
1.526249505
1.625950402
1.364879626
1.39746506
1.449584847
1.517960955
1.625235802
1.359076037
1.380327291
1.430946246
1.508830004
1.604135095
1.355488606
1.38741015
1.436421666
1.516180898
1.60490014
1.352455044
1.38271293
1.428880164
1.495924483
1.581379103
1.352048289
1.376341885
1.430739394
1.485187979
1.586874909
1.351420306
1.382703404
1.413814862
1.482122197
1.577635089
1.34652822
1.371432817
1.418868183
1.486013842
1.575442415
1.348368446
1.370254003
1.411739534
1.471306019
1.571042729
1.357046298
1.378521604
1.399815448
1.455217045
1.537965311
1.343247967
1.354643596
1.383047995
1.429184846
1.505296152
1.344531139
1.356303125
1.383298581
1.410102494
1.468580022
1.378710001
1.419708155
1.504710742
1.628676992
1.790272427
1.375793081
1.423585899
1.514443755
1.625068144
1.759348748
1.379333416
1.42893136
1.507212429
1.606627843
1.713437949
1.378738234
1.429478567
1.48091808
1.558641509
1.644723178
1.371516107
1.419004443
1.482890635
1.551140808
1.632162903
1.368217852
1.398292851
1.442458381
1.530371352
1.611082011
1.364019565
1.39626726
1.438818128
1.514204207
1.575183483
1.364830335
1.390600575
1.445330345
1.516861115
1.57067081
1.35506655
1.383662126
1.419582211
1.472403093
1.539611084
1.363214827
1.377754296
1.40269511
1.4653493
1.531050545
1.349032594
1.363458713
1.396502888
1.459537242
1.534563291
1.351949401
1.375893021
1.408291545
1.461625323
1.525972869
1.354891176
1.374233211
1.392207568
1.445854712
1.511084485
1.3520897
1.367976778
1.40018101
1.442792529
1.509661552
1.346213806
1.359774702
1.379980347
1.414381999
1.477033662
1.344906272
1.357807388
1.393170514
1.42487044
1.484994736
1.341042173
1.350297309
1.376076282
1.409300084
1.460683004
1.339557872
1.3540754
1.376683388
1.401048624
1.442243429
1.372528521
1.421252998
1.489985578
1.600604201
1.771642605
1.376228622
1.426981569
1.504150852
1.618221341
1.740338117
1.378438284
1.419606154
1.488085099
1.593847478
1.687105721
1.36290894
1.399960287
1.471165864
1.540178176
1.634412715
1.367063809
1.398981024
1.453939006
1.522841558
1.60774824
1.356113641
1.393991958
1.430125795
1.488918493
1.554252015
1.365053993
1.396189198
1.430404798
1.47257784
1.533576286
1.35721946
1.377063222
1.411561145
1.463345387
1.513755593
1.35318858
1.3728056
1.404491538
1.456954176
1.504677806
1.355157685
1.375413848
1.396109679
1.439528837
1.488427131
1.352850788
1.369559097
1.394076474
1.432146459
1.482869969
1.34853253
1.366680287
1.394392036
1.435387418
1.476261221
1.355849212
1.364965238
1.395989836
1.43449552
1.471819113
1.350558571
1.358662163
1.385044266
1.424457197
1.456604774
1.342214248
1.356156482
1.370779849
1.408310007
1.456743378
1.339480697
1.336084703
1.356042628
1.391121298
1.428740905
1.343147401
1.354765527
1.367815257
1.398666079
1.421346599
1.340899392
1.351361786
1.365403796
1.378552722
1.410285228
1.371232506
1.408244202
1.471117639
1.575691486
1.753174029
1.370134732
1.407462582
1.47007398
1.575253886
1.700907263
1.363480257
1.408382277
1.482639828
1.563277522
1.653411106
1.376478947
1.398958295
1.44398876
1.518517077
1.595358994
1.367757806
1.393450498
1.438999517
1.494071821
1.560214995
1.362377738
1.383248399
1.421884913
1.471073271
1.527682951
1.363013475
1.392392177
1.419584548
1.455176098
1.513547185
1.357227429
1.38043131
1.407402105
1.446280414
1.480373106
1.358266796
1.378070107
1.39655078
1.43374373
1.479477215
1.353454437
1.368751866
1.387614848
1.423978228
1.451268565
1.352625072
1.36556621
1.383733598
1.42066714
1.457825887
1.344535331
1.355331047
1.36675034
1.395698988
1.429464784
1.345250416
1.354495021
1.373277533
1.392023664
1.429655753
1.344190616
1.360310954
1.377316404
1.396377765
1.419669249
1.34735639
1.355969181
1.3710103
1.396591346
1.423401156
1.345731637
1.35281276
1.371908177
1.386503388
1.41338091
1.334473947
1.343683299
1.350868255
1.370042334
1.392385422
1.340358744
1.345825777
1.358516907
1.367895782
1.381484188
1.374734136
1.403448409
1.451589457
1.563721844
1.749783668
1.367029445
1.396289781
1.462845898
1.571169195
1.711099119
1.365998929
1.397075772
1.451585048
1.547321542
1.641384414
1.366763528
1.397733911
1.442528684
1.50616584
1.575711912
1.355018585
1.377817699
1.41888026
1.469547301
1.53911428
1.356224
1.380050171
1.405496117
1.451113221
1.500696738
1.355128314
1.376416046
1.404078756
1.433965703
1.483061598
1.356902532
1.373196242
1.399527585
1.433638
1.458869428
1.348794021
1.363973872
1.385755931
1.405065033
1.428396325
1.346282371
1.354858208
1.370574337
1.390061198
1.42958743
1.353277632
1.359835758
1.376713447
1.407490813
1.419998349
1.344024789
1.354512423
1.368317386
1.39379182
1.412132874
1.346676434
1.356246573
1.364960877
1.38361385
1.413086542
1.346141618
1.349994348
1.355869505
1.377387113
1.397912035
1.343199009
1.354833109
1.361087155
1.373568941
1.393238073
1.343077693
1.344550985
1.358551023
1.369950627
1.396399783
1.340323768
1.342441268
1.358808441
1.368647108
1.378650104
1.339886571
1.339183729
1.347751663
1.353929873
1.369572858
1.362983925
1.392510309
1.429039139
1.527715881
1.735903824
1.363717971
1.397411487
1.451358761
1.540732313
1.667346933
1.361771385
1.401366712
1.446715264
1.520574366
1.616433482
1.367203677
1.392470018
1.423656423
1.486342702
1.567634148
1.359176622
1.381887387
1.410193455
1.458331524
1.523650197
1.350863082
1.375698933
1.40645712
1.451072483
1.496822752
1.3572054
1.372687859
1.394720295
1.422382187
1.455645057
1.345911004
1.370999754
1.396201302
1.419948943
1.444252684
1.344962357
1.36380827
1.374813918
1.396567421
1.431659227
1.348937563
1.363706474
1.377828293
1.399561224
1.416092852
1.345113485
1.350010189
1.369423427
1.390187624
1.401657958
1.341594428
1.342468978
1.353911295
1.376587612
1.386295447
1.337837214
1.344600959
1.360572395
1.373446958
1.383591919
1.345234316
1.348577388
1.3614802
1.375369193
1.38981022
1.339346902
1.343098969
1.352233878
1.362829599
1.382291498
1.335914157
1.338584931
1.345493527
1.355754776
1.375253027
1.338357027
1.343439187
1.35044531
1.36260403
1.368274775
1.335958272
1.339744185
1.341638869
1.355635826
1.36243801
1.361112895
1.382510999
1.431134929
1.537814941
1.718598274
1.362222775
1.377119109
1.436962039
1.54010709
1.681790823
1.366651212
1.3986546
1.463366718
1.518574872
1.614522235
1.348986574
1.375675987
1.419123264
1.481716888
1.559816161
1.359924472
1.384193463
1.416569082
1.450346449
1.512440973
1.348038417
1.369737004
1.400602588
1.425720052
1.469040338
1.347975421
1.364832785
1.389944106
1.414660833
1.448569775
1.34965372
1.359998655
1.378729869
1.39693361
1.419615805
1.341312332
1.35227927
1.368146337
1.389861285
1.416358773
1.342490424
1.356961498
1.362434676
1.381511981
1.389159739
1.344436351
1.356812714
1.370577071
1.375676723
1.386957211
1.338916804
1.352188866
1.36061265
1.371136943
1.379712302
1.33775934
1.348208231
1.357703985
1.369470261
1.373289809
1.337323663
1.341919682
1.347508705
1.360596722
1.369378691
1.337977418
1.34110303
1.346556499
1.362470256
1.378406222
1.337271997
1.337370313
1.340639692
1.347449894
1.354416914
1.335310334
1.34053448
1.342595511
1.353920615
1.359813475
1.335460408
1.335555061
1.342241011
1.351959122
1.355619984
1.358929742
1.37608611
1.426109609
1.510265168
1.705106019
1.355949022
1.387832275
1.43241157
1.533686959
1.685409644
1.358159446
1.38023895
1.428483655
1.498347205
1.587277164
1.355679449
1.376679449
1.415506511
1.455980544
1.544011318
1.364523651
1.37798058
1.412978139
1.449013922
1.494618732
1.346907273
1.365636871
1.39006721
1.409486374
1.457353731
1.354145935
1.363945057
1.387942057
1.407774183
1.443024862
1.345985312
1.347828953
1.364809763
1.387886701
1.405908791
1.341693639
1.351495852
1.364252552
1.374203636
1.397730752
1.347014901
1.354553475
1.363368368
1.376223604
1.394757125
1.344707246
1.348589987
1.361739416
1.37430641
1.38262419
1.340277397
1.344370007
1.352923959
1.356173582
1.377973578
1.339030667
1.341230331
1.343137676
1.349113826
1.361197069
1.337197962
1.345224782
1.352780494
1.353839202
1.360691564
1.342170892
1.34800456
1.356664247
1.360439732
1.361774641
1.334349173
1.337246764
1.339207696
1.345212191
1.35649962
1.331942034
1.332138585
1.336129122
1.345954718
1.352033704
1.344302201
1.350044158
1.345737642
1.352317734
1.355945621
1.349099933
1.38263412
1.420842147
1.508885019
1.706067992
1.355312362
1.384386624
1.423125876
1.52008267
1.650500721
1.35123904
1.380073575
1.419100301
1.49117182
1.583755651
1.352364714
1.388336121
1.4145336
1.474239132
1.539886425
1.355185545
1.374217431
1.395271544
1.437609228
1.495641404
1.340434224
1.358782459
1.379441297
1.412945687
1.44205532
1.349873629
1.358570412
1.376103818
1.39156685
1.41691941
1.350663698
1.353828819
1.367722662
1.376955175
1.40329849
1.343807351
1.352413441
1.362787638
1.380193117
1.390815508
1.336650783
1.342394419
1.352307263
1.36159406
1.373505197
1.340743817
1.34895623
1.361546221
1.363789629
1.377831957
1.337827908
1.345037765
1.354772013
1.364078515
1.37860926
1.333086406
1.341721295
1.349713103
1.35304266
1.363401595
1.337773934
1.337547065
1.339902974
1.3429424
1.349303398
1.345467313
1.34365602
1.342953979
1.354790696
1.359675439
1.335912137
1.340062556
1.339896305
1.345101818
1.349301956
1.336387655
1.34141434
1.344091754
1.348935977
1.342293803
1.331160421
1.331522085
1.32923225
1.333126957
1.337944332
1.352133153
1.366065779
1.410126289
1.509030964
1.711366539
1.357203945
1.384759694
1.424707001
1.513303055
1.641733041
1.350946698
1.373528521
1.409829644
1.470453004
1.577139842
1.358529908
1.384860882
1.408411939
1.462952873
1.543942785
1.359618863
1.374261375
1.390985204
1.421942978
1.48011548
1.350509038
1.359937939
1.386900558
1.410157528
1.450348138
1.346716107
1.36081231
1.370914629
1.382913463
1.401137547
1.344993246
1.349897387
1.354783957
1.372301542
1.387192701
1.343219871
1.357669626
1.370997902
1.376851324
1.390490865
1.339630473
1.350171809
1.357769488
1.362880912
1.37579051
1.334665434
1.341605457
1.3450514
1.348133219
1.358961694
1.337452467
1.341366433
1.348656736
1.356741155
1.362691748
1.336060333
1.341437674
1.342366767
1.343605725
1.3507103
1.330997788
1.331995984
1.340141864
1.33938848
1.346129105
1.336624638
1.337817602
1.337931159
1.343662817
1.352235451
1.333421485
1.333863209
1.333412776
1.341231452
1.342681489
1.337958432
1.338651151
1.339920032
1.3389276
1.347909781
1.333774585
1.334018663
1.337668587
1.342023576
1.346534117
1.349902708
1.369292789
1.414686613
1.504996006
1.70186846
1.353659353
1.388073828
1.433837173
1.524329802
1.658669713
1.34915271
1.36799084
1.415012044
1.468026865
1.5644419
1.348443848
1.371623536
1.413292885
1.443715835
1.513269939
1.354886157
1.359787564
1.380773793
1.416785575
1.456694511
1.344842572
1.351460238
1.371770601
1.405560427
1.435914277
1.343167124
1.357667542
1.373970742
1.400320408
1.408307954
1.346506939
1.355368445
1.365893989
1.384249452
1.393999093
1.336006177
1.344524531
1.347156523
1.35817284
1.371391155
1.337481769
1.339382913
1.34090644
1.348919641
1.363605997
1.337400322
1.340007737
1.351201002
1.357809933
1.366173992
1.339174085
1.344595053
1.348522403
1.354372058
1.358540147
1.333670936
1.339050842
1.345906624
1.347406455
1.352549586
1.335521497
1.338073149
1.339208399
1.346151545
1.350319876
1.334506622
1.333205685
1.333994371
1.337119956
1.344528088
1.332910366
1.333758957
1.334361594
1.336919006
1.343799065
1.332888212
1.331648935
1.333697964
1.339351774
1.341465465
1.331639694
1.335160231
1.338596353
1.336361552
1.339234361
1.341847808
1.359777665
1.40175066
1.484458227
1.687690541
1.358400768
1.372817763
1.420124132
1.514168198
1.65587836
1.354374681
1.375093701
1.416401979
1.480401003
1.556981507
1.35227342
1.367940985
1.402707296
1.44241401
1.505925739
1.355296165
1.363830912
1.385117328
1.419608585
1.444741274
1.343269157
1.348107135
1.373113547
1.403562638
1.4298425
1.341434727
1.345768745
1.362823556
1.375233982
1.39758259
1.343552397
1.34415184
1.353332067
1.368456384
1.384839431
1.33525319
1.338568519
1.344500143
1.357522999
1.373620519
1.338633878
1.352813226
1.357531148
1.36856089
1.378088559
1.337034703
1.342174354
1.343666547
1.344809004
1.353149235
1.329389812
1.325151998
1.331348854
1.336765028
1.34104819
1.337609158
1.340905583
1.343283604
1.348988282
1.357449766
1.335691044
1.336033864
1.33829722
1.34132384
1.345427058
1.328532494
1.336236369
1.338956458
1.34253371
1.345628868
1.333798687
1.330227435
1.333477915
1.334136812
1.334830491
1.332718678
1.33445661
1.336405808
1.34137064
1.347551372
1.33510669
1.336973819
1.341372547
1.339980226
1.335347241
1.345831481
1.361772391
1.405721882
1.488839866
1.68691003
1.350058432
1.368311172
1.405241385
1.496261739
1.634728155
1.342283803
1.362221002
1.401238409
1.461471097
1.541130044
1.350983467
1.36852303
1.405758795
1.45292484
1.49381701
1.343788371
1.34887393
1.374355321
1.411673364
1.447743469
1.343452472
1.356363725
1.37121433
1.398823135
1.417114262
1.342925098
1.351600702
1.358136927
1.381249802
1.395514315
1.338305665
1.341415866
1.360316516
1.37145186
1.387754228
1.33592215
1.345081618
1.349545424
1.356004905
1.365423474
1.336468094
1.337580302
1.340433147
1.352033527
1.363996887
1.335812556
1.346100178
1.347663391
1.354087605
1.362319776
1.335428413
1.341085862
1.34620224
1.350130005
1.352494197
1.336836544
1.33450115
1.338024701
1.342890626
1.341237499
1.336248079
1.338793014
1.34523272
1.348867046
1.349579314
1.336436679
1.339013416
1.337531829
1.339188014
1.334696679
1.330566823
1.330926092
1.335892122
1.337707069
1.342524464
1.333993305
1.338667515
1.337686247
1.334620451
1.338096587
1.33298443
1.33185702
1.335201009
1.333564089
1.337453153
1.345531968
1.361426208
1.388815444
1.461509835
1.672144576
1.344124458
1.374166435
1.407382158
1.489392263
1.639791313
1.346354375
1.359657606
1.395893905
1.460792979
1.548735579
1.345172956
1.361812165
1.393873859
1.433778256
1.499493663
1.350647987
1.36475799
1.380197475
1.405469153
1.44457879
1.349183028
1.353104725
1.362469481
1.386459163
1.408079477
1.342509107
1.346284208
1.351255441
1.374590256
1.384464196
1.332445273
1.338599971
1.352562145
1.362717582
1.376391135
1.339290405
1.340037439
1.347666698
1.347507845
1.352738801
1.337304519
1.342152719
1.34732519
1.350909989
1.356373371
1.327871915
1.32616671
1.330100544
1.333508776
1.338896645
1.338161219
1.336220496
1.337142101
1.339138947
1.338525569
1.338026414
1.338697791
1.336506198
1.334351827
1.341236843
1.336202982
1.335737601
1.338217418
1.33595967
1.338606029
1.333977457
1.333118665
1.336745875
1.336597666
1.339707109
1.33635219
1.339286824
1.342248823
1.346842069
1.344223907
1.33913331
1.33725657
1.339046394
1.335858955
1.341966823
1.331708588
1.332496428
1.336935815
1.340395087
1.343126223
1.343656283
1.368101629
1.378708752
1.456495667
1.650841054
1.348989917
1.361970074
1.393237156
1.461171503
1.59539751
1.342269072
1.362756668
1.381159831
1.44274656
1.523076009
1.349012277
1.365928883
1.379213098
1.412433717
1.462473039
1.33524119
1.342635922
1.357222781
1.380747907
1.428251133
1.335327289
1.349045673
1.361227448
1.375582033
1.402553985
1.33634712
1.337749393
1.342157667
1.34477755
1.365892663
1.336993871
1.33954824
1.346512183
1.358865121
1.367091249
1.336131789
1.338730491
1.339071318
1.342550572
1.348984916
1.334430463
1.337769551
1.336667486
1.3384709
1.346824216
1.338257694
1.342564055
1.341246393
1.345714546
1.355585787
1.32531429
1.327713317
1.326400443
1.334201551
1.337931728
1.332902593
1.336726692
1.337831746
1.337432068
1.335396509
1.33294407
1.331651128
1.334431786
1.33850614
1.347559697
1.327010825
1.328821358
1.331505036
1.33652277
1.33653412
1.3385312
1.342188618
1.341922816
1.346168461
1.347285047
1.328693403
1.328926124
1.331261062
1.332295632
1.332399415
1.330056036
1.32626714
1.321206751
1.322343855
1.328387287
1.34628255
1.353482686
1.373608212
1.425182405
1.603684065
1.340424018
1.358452167
1.375719245
1.43215699
1.555475767
1.344215207
1.348471252
1.372240845
1.407292238
1.473199808
1.340169469
1.355960207
1.369985158
1.392441478
1.424942705
1.338507367
1.34497895
1.36325547
1.371621662
1.40781447
1.345096836
1.352170276
1.357377668
1.36250121
1.379218295
1.336015041
1.340981267
1.35164292
1.355809278
1.375403664
1.337406191
1.343764463
1.350078421
1.355370979
1.362148091
1.336237903
1.339805641
1.344383949
1.35375724
1.360296136
1.338638324
1.342775636
1.345919105
1.346340916
1.346021658
1.335781521
1.34134946
1.345035267
1.348049886
1.357286987
1.335406007
1.334459323
1.337773532
1.333936983
1.337029596
1.333231729
1.331589929
1.335325147
1.337613174
1.34515187
1.336141299
1.335278801
1.333687446
1.333569454
1.329518093
1.330727484
1.32564816
1.327828965
1.33017069
1.331272201
1.333176616
1.332593293
1.328934904
1.330229452
1.326007919
1.334225035
1.333557307
1.331780901
1.332391337
1.331357455
1.331442984
1.334370304
1.334390453
1.332371058
1.330958464
1.486477363
1.304062366
1.247310319
1.192249086
1.166928039
1.119873757
1.089352553
1.082500928
1.065269862
1.061717026
1.071818098
1.065490438
1.066829106
1.082341917
1.091296035
1.111281503
1.130008359
1.1844948
1.224222113
1.279075448
1.358412214
1.461567874
1.604214191
1.837506327
2.36438742
1.637704956
1.45098842
1.359414068
1.287342455
1.249158836
1.224077434
1.201041082
1.195034092
1.172784666
1.164824603
1.165081226
1.180132169
1.15955373
1.181721071
1.180036233
1.19102006
1.229647462
1.242630934
1.296480058
1.355073854
1.426452991
1.538667447
1.673434218
1.899216224
2.352469602
1.695768447
1.56936579
1.48560501
1.415055715
1.346832067
1.312252765
1.288786221
1.25348274
1.238485398
1.231037207
1.232316967
1.230373237
1.225081527
1.243625377
1.257416702
1.254991299
1.291985813
1.310195588
1.360304519
1.402363019
1.489243131
1.593246929
1.723498922
1.913315442
2.313180405
1.736573196
1.646133994
1.577148287
1.532002062
1.460855378
1.411639635
1.378874223
1.349252557
1.316824338
1.301788343
1.28065331
1.274946126
1.278186801
1.277864503
1.304446806
1.315440088
1.345286856
1.371348056
1.411002818
1.464432345
1.537554549
1.62921262
1.742307121
1.926585351
2.306556436
1.740851476
1.697747505
1.6596572
1.616912781
1.564949558
1.520862252
1.476386969
1.438635225
1.393505373
1.366786534
1.346828778
1.334957967
1.328726399
1.326293116
1.344107569
1.360236889
1.383427209
1.414125877
1.460071294
1.499219513
1.559881261
1.651988674
1.752759565
1.942216213
2.266227425
1.775528475
1.73386662
1.700744665
1.674068174
1.651141294
1.611524595
1.565832371
1.502798753
1.465284961
1.429695381
1.407078004
1.406380504
1.392493181
1.395680994
1.412493565
1.417954186
1.431298168
1.464162364
1.47497187
1.521805519
1.608545484
1.675121375
1.755572864
1.93137945
2.275591586
1.778709828
1.759538263
1.754068319
1.744444738
1.723911304
1.705947964
1.646521157
1.595654947
1.563896323
1.517443489
1.494964527
1.467687824
1.46316867
1.463597861
1.466669471
1.458283656
1.485782894
1.497927513
1.508023052
1.555711013
1.631788914
1.687490374
1.77891897
1.941940648
2.283272978
1.780076834
1.762255279
1.784315992
1.794397764
1.795425141
1.758480526
1.723513829
1.67868576
1.657199788
1.618374956
1.594038665
1.550411622
1.526696951
1.522207095
1.515793771
1.504943903
1.525469115
1.556533598
1.558090797
1.598974377
1.648866955
1.708943406
1.8237399
1.956148122
2.286770106
1.784529402
1.783900572
1.793395501
1.82400337
1.840555092
1.809141061
1.802473377
1.764339233
1.740700087
1.686999934
1.639498538
1.62824742
1.600878082
1.597579381
1.595966104
1.591137094
1.583322826
1.597624995
1.58956627
1.639380842
1.678042087
1.756219831
1.892460551
2.022552351
2.32724403
1.784485783
1.786360406
1.818965647
1.834880997
1.862026011
1.865125206
1.849072394
1.833778155
1.804877642
1.793557175
1.748366811
1.725398585
1.678151702
1.661309744
1.654543279
1.66314277
1.651337754
1.672517033
1.6939089
1.699582978
1.740533391
1.800399492
1.877878153
2.02293529
2.329387426
1.791721352
1.792667073
1.831209326
1.871903168
1.880578014
1.907300716
1.919690111
1.900816102
1.896527957
1.864404115
1.850073539
1.830968987
1.798170536
1.741918333
1.761458094
1.745776446
1.756173854
1.757856362
1.755319524
1.785759103
1.815106236
1.859547108
1.952390556
2.074202984
2.402638416
1.801558617
1.792214861
1.81549024
1.875753198
1.91000355
1.933133108
1.94153428
1.966034193
1.959746084
1.949751105
1.936785415
1.928414089
1.90796544
1.858045309
1.845867886
1.828739902
1.850191085
1.829481558
1.85529501
1.894435075
1.923785842
1.944891254
2.038576566
2.160891484
2.462186693
1.791773683
1.793744466
1.827315395
1.886133091
1.943284137
1.967707279
1.976652706
2.013543916
2.040962139
2.052177029
2.03695066
2.028303574
2.013879544
1.985316969
1.966322848
1.966293076
1.951824713
1.947564636
1.949648688
1.993471978
2.027248217
2.054106447
2.11643151
2.269416082
2.539054739
1.788691603
1.798880945
1.848799604
1.886303992
1.949901638
2.012709327
2.064139873
2.085138525
2.087428419
2.102611588
2.113410091
2.125409867
2.103800704
2.084618524
2.10410418
2.069736988
2.07613916
2.083514751
2.080073269
2.148279324
2.134347824
2.157622319
2.206836756
2.326883348
2.650631664
1.794891106
1.79991606
1.830112734
1.911402685
1.98236721
2.065499968
2.104431766
2.166032658
2.210705213
2.223694159
2.237082835
2.241826843
2.28309096
2.275903452
2.259558892
2.255725464
2.268084072
2.234177926
2.197860742
2.223645286
2.268018235
2.262838148
2.346873991
2.446595866
2.737859225
1.783796242
1.806629237
1.880463244
1.954101783
2.044738837
2.119358576
2.182219998
2.255695335
2.29889565
2.333142006
2.373863901
2.396551631
2.400382687
2.388870273
2.400409283
2.365049292
2.361430798
2.350939005
2.399490652
2.368896493
2.396111007
2.402335803
2.468742871
2.58250678
2.84098743
1.804968742
1.833532456
1.905050311
2.010084367
2.109412728
2.203887958
2.285028803
2.340436264
2.389833461
2.440700731
2.508765288
2.544634166
2.494139406
2.517415357
2.523067855
2.503605224
2.481209483
2.47860433
2.504657404
2.504162061
2.492054521
2.486919666
2.549731995
2.655491235
2.876111431
1.809770975
1.877067813
1.972788678
2.081956474
2.176302755
2.237533928
2.307534165
2.331080312
2.385980729
2.386986105
2.421179077
2.43493741
2.459913689
2.467672301
2.463254164
2.463836746
2.476382346
2.485372897
2.448618839
2.454888352
2.443540264
2.452180954
2.49561747
2.523208106
2.674518578
1.632708212
1.458772474
1.349826541
1.289896127
1.260323806
1.232471807
1.201151842
1.176364919
1.171860576
1.172246749
1.169406943
1.169916518
1.170618393
1.18266006
1.203082224
1.208704856
1.229682502
1.278163597
1.292275617
1.352419191
1.434590872
1.545980457
1.668687525
1.86811573
2.367655022
1.738822958
1.553384008
1.418074481
1.326197191
1.293201845
1.281099654
1.28141401
1.288516833
1.290148363
1.284971185
1.284976318
1.286541838
1.293105554
1.295541423
1.303740328
1.325622095
1.34509337
1.363072194
1.39479201
1.463111411
1.526283912
1.61444529
1.755010651
1.988101976
2.389059107
1.770700136
1.644473717
1.505129786
1.415950125
1.359770103
1.333653937
1.316635147
1.315858315
1.316310932
1.341003359
1.337604104
1.354722795
1.349488667
1.35333773
1.371844087
1.383899694
1.414257077
1.431607369
1.46990403
1.549158878
1.610998289
1.671764086
1.819296784
2.001764467
2.359097833
1.766272715
1.673789572
1.57998474
1.496816161
1.426784185
1.389068445
1.367289167
1.367579569
1.359533303
1.36400539
1.379558766
1.381751383
1.386395599
1.40376659
1.410149742
1.442380649
1.452139932
1.490943516
1.527144259
1.577104597
1.645919674
1.724206994
1.833926947
2.028758522
2.327111051
1.765985379
1.701326135
1.621791138
1.547503312
1.494072272
1.457542086
1.43725921
1.417244691
1.402028836
1.413994041
1.405420224
1.411197186
1.427347735
1.441303605
1.458756924
1.473342955
1.504938131
1.543062345
1.562281878
1.605234752
1.648885663
1.743848851
1.867739419
2.026193532
2.265838427
1.762322848
1.713497954
1.648048705
1.575901188
1.533397719
1.503570935
1.479888121
1.474218734
1.448670541
1.444649823
1.451069733
1.452919425
1.470282879
1.465331726
1.501213706
1.516730927
1.543632004
1.580543276
1.605661348
1.629170026
1.678855049
1.765299048
1.883447646
2.016567122
2.269809648
1.767164087
1.734407628
1.665167967
1.61264633
1.582920399
1.558299139
1.537670577
1.529255062
1.525607237
1.509514116
1.507341012
1.506364583
1.509906191
1.514760672
1.533803932
1.557033659
1.568482628
1.604635568
1.643717397
1.67112742
1.731347785
1.78751347
1.866940876
2.010462004
2.253394325
1.763887078
1.73160134
1.685739945
1.63896088
1.612310786
1.589544371
1.576658917
1.565345153
1.565384884
1.566980833
1.574622708
1.55631041
1.567148166
1.568949697
1.576657083
1.587278807
1.609430849
1.654673531
1.667663886
1.705444977
1.761063058
1.797552274
1.901935196
2.044689072
2.252203233
1.752709239
1.723866472
1.682765848
1.639703657
1.623369815
1.61911949
1.625319733
1.622104835
1.607687736
1.607148255
1.621606751
1.612296993
1.612915778
1.611606986
1.634553511
1.647469887
1.658437813
1.68870506
1.707453063
1.742053671
1.777338049
1.844808366
1.928220802
2.041680091
2.283688288
1.754862956
1.722145978
1.674708839
1.649966221
1.638984054
1.645199783
1.646978234
1.659040037
1.664540644
1.659449002
1.669389948
1.685871071
1.677961711
1.680347776
1.699229668
1.696972435
1.722111831
1.735074986
1.739426402
1.770380906
1.816128177
1.884522022
1.962277584
2.077598495
2.291851193
1.729024737
1.717383528
1.683362685
1.663049663
1.656924202
1.6606566
1.681158398
1.691643023
1.709629945
1.72238686
1.742972974
1.747135242
1.765226873
1.762899643
1.761116217
1.763694253
1.784595073
1.791918608
1.803526072
1.844371859
1.894255841
1.935850394
2.006505344
2.126891666
2.322205083
1.733697395
1.719655028
1.689157186
1.659709662
1.659090084
1.667705074
1.697123798
1.723999
1.752821609
1.779247015
1.802663689
1.815754305
1.836200208
1.835346695
1.839989664
1.841771877
1.864669409
1.860414629
1.88152785
1.91204038
1.964267174
2.015551322
2.079001917
2.195876366
2.399339166
1.722987397
1.730149012
1.693188754
1.674053878
1.675836069
1.688288046
1.703831049
1.756367923
1.797625975
1.836259965
1.869553068
1.88422218
1.90972273
1.924481607
1.931789844
1.936285335
1.950717311
1.963825608
1.984152773
1.991434759
2.047736881
2.10941432
2.163836528
2.247644432
2.414178379
1.717769625
1.711229719
1.676349362
1.65818224
1.661203422
1.678874853
1.716172708
1.765394235
1.822513732
1.867177993
1.905645662
1.926438605
1.952522768
1.989309966
1.999081419
2.035746989
2.045301312
2.076249941
2.095911256
2.094474266
2.144186908
2.188146983
2.246497056
2.331469251
2.526398008
1.71283401
1.713389714
1.692880494
1.68234184
1.683053609
1.723716413
1.765385292
1.83271977
1.875496953
1.920792361
1.980436299
2.025554786
2.061093315
2.079903336
2.097804196
2.121102609
2.150860855
2.180553933
2.188048827
2.223179264
2.262727283
2.29932759
2.349265226
2.406990612
2.584166135
1.702333724
1.702215727
1.680677458
1.673071952
1.694895449
1.741229796
1.792163408