/*--------------------------------*- C++ -*----------------------------------*\
| =========                 |                                                 |
| \\      /  F ield         | OpenFOAM: The Open Source CFD Toolbox           |
|  \\    /   O peration     | Version:  v1706                                 |
|   \\  /    A nd           | Web:      www.OpenFOAM.com                      |
|    \\/     M anipulation  |                                                 |
\*---------------------------------------------------------------------------*/
FoamFile
{
    version     2.0;
    format      ascii;
    class       volScalarField;
    location    "0.003";
    object      mfpToDx_Ar;
}
// * * * * * * * * * * * * * * * * * * * * * * * * * * * * * * * * * * * * * //

dimensions      [0 0 0 0 0 0 0];


internalField   nonuniform List<scalar> 
9720
(
1.392111766
1.432707757
1.525794982
1.697216659
1.846389987
1.38578919
1.441260693
1.546679838
1.696436004
1.847197329
1.381511008
1.433388107
1.522388374
1.655129211
1.808263761
1.38495792
1.437656605
1.504861579
1.632941363
1.792964633
1.373188475
1.415208792
1.485120376
1.591302203
1.769050874
1.362499589
1.406948646
1.463151421
1.567964413
1.743066715
1.364941597
1.398194387
1.456545279
1.565829223
1.754671745
1.360811497
1.394797839
1.43705443
1.529415089
1.721549543
1.354298566
1.372496277
1.41071565
1.504108442
1.690478114
1.354980796
1.378890831
1.427423883
1.516893961
1.70906361
1.351817054
1.37635353
1.420843903
1.503500642
1.711926513
1.346199239
1.376175712
1.426027014
1.511431891
1.711037778
1.343789421
1.365563995
1.398484772
1.483496857
1.690079128
1.34463257
1.36438506
1.389625229
1.478234008
1.687081588
1.343996196
1.367082852
1.401549268
1.476938
1.679165125
1.343267407
1.357449959
1.389681044
1.454766777
1.669095179
1.347106707
1.360636765
1.38370296
1.442347975
1.65405546
1.34044513
1.350941358
1.360608328
1.415284137
1.611678542
1.37892218
1.438395635
1.534543657
1.677973897
1.816045803
1.383782271
1.438093975
1.519814145
1.679076313
1.805512889
1.389551205
1.440263358
1.52653036
1.66460666
1.78812186
1.375687803
1.424050914
1.500607713
1.625879621
1.765174636
1.375296357
1.418727698
1.497170945
1.600418888
1.735284099
1.373029222
1.397690796
1.467823935
1.581144722
1.705256245
1.373641941
1.406281826
1.461859094
1.555981947
1.685078729
1.358450242
1.391821721
1.44161294
1.555179984
1.679015332
1.361309373
1.387500043
1.439878998
1.543005521
1.679649197
1.359192962
1.38106486
1.433880294
1.532731739
1.680542558
1.355423865
1.383114756
1.426001668
1.519812414
1.650492106
1.352261836
1.373036999
1.432467332
1.530713003
1.67265225
1.347051126
1.376229733
1.437259172
1.527204594
1.658806782
1.357402146
1.376591522
1.422136109
1.526316559
1.649845623
1.348131876
1.36404237
1.41214749
1.488180825
1.625124222
1.350876649
1.358284873
1.395638441
1.486633628
1.624499758
1.347577404
1.352268314
1.386010533
1.464917174
1.590735598
1.340222094
1.34888917
1.371803392
1.435314731
1.533654722
1.376560019
1.41518955
1.514891113
1.647340987
1.797202641
1.385964429
1.442016986
1.52662344
1.655019885
1.782720189
1.375956481
1.420675803
1.505127555
1.637413271
1.753092684
1.37594765
1.422678213
1.491894875
1.607321441
1.708811708
1.374628713
1.40817439
1.478643777
1.576825041
1.690548877
1.369469806
1.407935385
1.479637536
1.560385762
1.660635332
1.370243916
1.410540635
1.460499931
1.528559986
1.635597872
1.362136983
1.396677273
1.452248974
1.515831721
1.614696649
1.362530499
1.385364186
1.425197761
1.506982949
1.607544708
1.359544254
1.38729438
1.43630465
1.502655298
1.590834631
1.355810158
1.377143654
1.418167079
1.483198604
1.592851287
1.362593392
1.384252954
1.412668555
1.486439897
1.580481992
1.354334027
1.384225323
1.411707487
1.469763849
1.563040891
1.347682781
1.36934175
1.407931899
1.477102183
1.561572434
1.356129911
1.369645366
1.410051049
1.476896959
1.564382454
1.345430888
1.365706521
1.390622939
1.447319568
1.545099864
1.346477138
1.362215508
1.387634566
1.439957363
1.518261454
1.340303511
1.350643665
1.378722841
1.415983844
1.478947683
1.373829997
1.425572023
1.503253305
1.627508244
1.779642036
1.385353075
1.435082503
1.527362971
1.639785559
1.762763397
1.367601541
1.425225684
1.509147392
1.604327028
1.70834256
1.379642171
1.423593002
1.49209957
1.577997693
1.652557703
1.367319794
1.408009171
1.467436792
1.54313688
1.629166368
1.367717837
1.405309742
1.45971825
1.528572039
1.607090409
1.36809219
1.396984889
1.429160056
1.496533435
1.585035719
1.36309166
1.381419885
1.416943555
1.484430166
1.557327819
1.353974057
1.381767314
1.420979326
1.474046041
1.536321559
1.353508116
1.375787973
1.408000261
1.467941572
1.523959187
1.356221115
1.383547998
1.4169309
1.466630981
1.526885283
1.347087877
1.35917693
1.388704543
1.450324457
1.509718526
1.346221751
1.365186055
1.404294378
1.443888171
1.502761794
1.348939974
1.368679104
1.399972662
1.442085054
1.506593571
1.342308413
1.360305314
1.385337847
1.415083701
1.470907228
1.344150489
1.358402695
1.384360926
1.417576991
1.476006213
1.346397783
1.363130833
1.380729412
1.420196519
1.464799901
1.348863594
1.356973773
1.368404667
1.396168281
1.446512548
1.383261317
1.420504928
1.491749443
1.599297615
1.776134329
1.378297533
1.426605585
1.4796762
1.586900087
1.717334827
1.376002979
1.421633
1.483074121
1.568058775
1.675625708
1.368835547
1.4075598
1.469187543
1.546756533
1.612915241
1.373966929
1.409749554
1.465235934
1.53224496
1.606182153
1.364658978
1.404215917
1.443724469
1.504469939
1.565606743
1.366626041
1.384714643
1.423637633
1.469320869
1.529849083
1.369230351
1.393800392
1.423202349
1.462881876
1.510204803
1.353922518
1.373183612
1.409954005
1.44906131
1.500610431
1.35759945
1.380373196
1.40683079
1.433930404
1.497402855
1.354204804
1.372267313
1.406451069
1.432576927
1.48440445
1.353396217
1.364329627
1.388885149
1.430782136
1.480081874
1.351181481
1.371614973
1.398360635
1.438013555
1.472539015
1.348270654
1.363883678
1.378368131
1.419959922
1.45497618
1.34331065
1.362115433
1.379402198
1.409744006
1.462221114
1.34600189
1.364556107
1.382338982
1.407066794
1.446105712
1.343120723
1.348181571
1.362776617
1.386575013
1.417411207
1.334862105
1.339760149
1.348121902
1.375481883
1.409720605
1.373773201
1.4167049
1.475109292
1.577208399
1.757003311
1.369848742
1.414767333
1.479286169
1.579271423
1.703139768
1.374943348
1.404779741
1.458963436
1.548563852
1.642624088
1.362921102
1.396736593
1.450273138
1.530957693
1.594198644
1.369098399
1.396369119
1.442618133
1.503545042
1.55727673
1.363821518
1.390314896
1.433189237
1.472803137
1.522758282
1.358216827
1.377860293
1.409957503
1.464715215
1.513975764
1.361611352
1.384026278
1.402452638
1.434240513
1.48312202
1.356137322
1.372638075
1.398692141
1.4196689
1.467618178
1.351707326
1.366035916
1.394334328
1.424452676
1.458160063
1.354232707
1.358639982
1.383286511
1.42119798
1.46039425
1.345473498
1.358267774
1.368919282
1.410978962
1.442062375
1.344879381
1.348319422
1.369986358
1.396169117
1.423021706
1.345416333
1.365478045
1.376421631
1.405749958
1.428184174
1.344404775
1.348982074
1.360245612
1.388692153
1.41281746
1.33869472
1.347979283
1.368572898
1.375504569
1.403744927
1.34217194
1.344707315
1.359397104
1.371774835
1.393996955
1.342607111
1.347550709
1.358831433
1.374014306
1.379607275
1.377436841
1.409125286
1.46452284
1.563075667
1.742845492
1.373311411
1.398444867
1.459906769
1.549947193
1.684934408
1.373805567
1.406737699
1.449762941
1.527658996
1.631781211
1.369233764
1.388613651
1.444588594
1.509224786
1.5842974
1.354265898
1.383781491
1.41437414
1.468271768
1.51683358
1.359864886
1.381061754
1.410207421
1.46343099
1.518452702
1.358217167
1.382989467
1.40668352
1.435559645
1.480251359
1.352889835
1.369798682
1.393474587
1.423653018
1.465327742
1.354510344
1.369688776
1.38159009
1.409011973
1.460564593
1.350913841
1.358850085
1.378644328
1.401488021
1.420327154
1.345855637
1.354508991
1.380707609
1.396919744
1.425144004
1.342666678
1.351753784
1.366703022
1.397644288
1.41628777
1.343731179
1.363940679
1.374047719
1.386750798
1.403464058
1.337432397
1.349146196
1.356050846
1.37915958
1.395353573
1.333038827
1.346365217
1.356123441
1.375084844
1.400734385
1.336279443
1.345385316
1.35153219
1.365172922
1.373981402
1.335644298
1.344432441
1.360533594
1.369630651
1.387010397
1.340200593
1.341080814
1.350534482
1.356750116
1.366551014
1.367266637
1.398929066
1.455005731
1.544748045
1.722381837
1.371337967
1.406607961
1.463908092
1.557726172
1.699033178
1.366129181
1.402632516
1.452755724
1.518955737
1.611793947
1.362707758
1.386714872
1.433092892
1.48831413
1.551945214
1.354295978
1.37547301
1.398182449
1.45674919
1.501077477
1.355626969
1.378364512
1.410992536
1.447853999
1.493013003
1.351803218
1.365093108
1.386060489
1.419317163
1.460484926
1.350895434
1.362500421
1.37709988
1.400548689
1.431557048
1.344888716
1.361332288
1.37151516
1.392969219
1.420659124
1.349835397
1.365929661
1.37874158
1.394956514
1.426435907
1.34093949
1.351976718
1.371559651
1.3977181
1.419110981
1.338072961
1.351265197
1.359499525
1.376197648
1.397199752
1.337642693
1.354256123
1.362861285
1.368325218
1.386296066
1.338480306
1.347782917
1.349673362
1.363538341
1.372601072
1.335613015
1.343544155
1.356480905
1.360158792
1.38988834
1.341169613
1.343717727
1.352201241
1.364756034
1.372524925
1.336330962
1.340963612
1.346433461
1.34520038
1.355257402
1.339503773
1.346057043
1.35224308
1.359524836
1.363071408
1.363248223
1.388458431
1.441011908
1.527972705
1.712452379
1.366066761
1.386931488
1.453855132
1.546552141
1.682559435
1.36625921
1.392667795
1.438842883
1.51795608
1.60186063
1.349536092
1.376469508
1.409716966
1.480153606
1.538645328
1.359720817
1.379564433
1.407631253
1.451934101
1.497852092
1.349179711
1.362890353
1.392329181
1.420556444
1.464030682
1.351474815
1.367951546
1.383946524
1.411450107
1.446002579
1.341164099
1.363428851
1.383232303
1.398106048
1.431314729
1.34972439
1.362510107
1.367020414
1.384605757
1.405575888
1.344072691
1.350434346
1.351910063
1.37237794
1.397919205
1.341961926
1.351640347
1.353148134
1.36595213
1.379729179
1.341609479
1.346360743
1.358670483
1.368800376
1.384704632
1.338851948
1.344540161
1.354515734
1.36672274
1.374711435
1.337364197
1.345863608
1.349390552
1.36141339
1.368988019
1.335436636
1.342602701
1.350059952
1.359698716
1.369824302
1.33043434
1.334876023
1.345271825
1.353099954
1.361703806
1.335088816
1.343397229
1.348839435
1.357595821
1.362285312
1.339009614
1.334974386
1.33559864
1.346745825
1.353582001
1.354099305
1.374135411
1.419800069
1.502832715
1.703660538
1.364518192
1.388007654
1.436148317
1.535986512
1.679064112
1.354856465
1.37934386
1.42560378
1.490251693
1.587558945
1.352877068
1.371945963
1.408075947
1.46010029
1.528742496
1.360597835
1.378188627
1.405929666
1.439913436
1.49007078
1.350267464
1.367953537
1.400875511
1.426052276
1.463706402
1.350069218
1.364415767
1.380085057
1.414138978
1.439690928
1.349465064
1.36567677
1.374289193
1.391682752
1.416485464
1.346345189
1.364979318
1.371370792
1.385587231
1.409909139
1.348418544
1.355641148
1.364111772
1.382745885
1.393605962
1.339217755
1.348826444
1.353739003
1.365143236
1.383305809
1.337133693
1.34199936
1.346017993
1.357441441
1.359994512
1.337462836
1.332891378
1.336944358
1.350478789
1.370368502
1.341567321
1.353826945
1.35654205
1.364270057
1.372968277
1.338402276
1.344021459
1.342811501
1.350540269
1.36324655
1.33567678
1.34495595
1.350606821
1.352985188
1.35315896
1.335908959
1.335752828
1.330287823
1.344162064
1.353868034
1.333631178
1.339758869
1.34458196
1.350478276
1.354024033
1.354028077
1.373646536
1.419309733
1.507986413
1.699147691
1.353678378
1.377663604
1.415449168
1.510821759
1.666095348
1.352866043
1.384079863
1.419981097
1.500303888
1.589002507
1.357102668
1.384346523
1.417558038
1.47002635
1.53934814
1.362487602
1.363935982
1.392906989
1.437263638
1.481014825
1.353595671
1.36465276
1.390245817
1.412493497
1.444020236
1.348581887
1.3603765
1.379935279
1.392494014
1.41883808
1.34451954
1.348922056
1.359285945
1.368317739
1.3927988
1.333125629
1.342775242
1.350858342
1.363176447
1.379257377
1.336398153
1.344669164
1.356764896
1.37127605
1.379822272
1.338880151
1.342230286
1.345040503
1.355509852
1.366080559
1.339334932
1.345296328
1.35518168
1.36425584
1.368129061
1.33911811
1.348071927
1.354003134
1.354376142
1.358665789
1.33454462
1.338175065
1.346107871
1.351408421
1.358829074
1.336236325
1.339416319
1.344183078
1.341769482
1.352578299
1.338141669
1.337099437
1.336329977
1.341664014
1.344891744
1.333136216
1.334128295
1.337900057
1.341889313
1.349138883
1.333358385
1.334543268
1.331877723
1.336329783
1.341211974
1.346582825
1.373444212
1.411360487
1.494659947
1.700920622
1.34672932
1.370257244
1.418577111
1.515278143
1.650430982
1.353039203
1.382227434
1.427738407
1.496319242
1.589314626
1.351616764
1.377557083
1.415328311
1.468547137
1.539019208
1.353073489
1.367331253
1.392229944
1.42798082
1.475620783
1.349766969
1.363511248
1.377194858
1.403594651
1.434427353
1.341669273
1.352522649
1.364187958
1.378904138
1.415514201
1.348260295
1.362415641
1.368220552
1.373116384
1.40255416
1.346203635
1.356091243
1.362968618
1.366104996
1.383627077
1.339431281
1.346823797
1.35355763
1.366190469
1.370895849
1.336879095
1.34100464
1.347540407
1.359997834
1.364861246
1.345946614
1.346871625
1.353142579
1.356212482
1.362336373
1.334759422
1.332341624
1.335343201
1.342227485
1.351651987
1.339780337
1.338812109
1.335381905
1.343891948
1.352816987
1.333926851
1.332836181
1.335613152
1.343923619
1.352247665
1.338890282
1.342109542
1.346082583
1.346307084
1.35581279
1.333995603
1.33579346
1.337043471
1.339226863
1.346497957
1.333577793
1.33243202
1.336945156
1.341838164
1.343902374
1.350895321
1.371030309
1.407252659
1.48358692
1.67912074
1.349919749
1.373048854
1.415624086
1.509190852
1.647805392
1.352739154
1.364614762
1.395783902
1.465126602
1.546139181
1.355170956
1.372966106
1.394648223
1.447249222
1.512634872
1.355738937
1.367667788
1.388304195
1.422489973
1.459661814
1.350606339
1.359647655
1.384419293
1.409499609
1.443635131
1.347663633
1.350279118
1.363100592
1.377603831
1.406871257
1.344925263
1.353539934
1.355202594
1.375714356
1.392357522
1.346580325
1.353710698
1.366232623
1.369126999
1.381532577
1.339758961
1.339235885
1.344388817
1.350205597
1.37094299
1.33487599
1.33620533
1.338664583
1.348205329
1.356835001
1.335089147
1.331865908
1.340693346
1.347578498
1.353954694
1.339625062
1.342614428
1.337668624
1.342608662
1.347839413
1.343833299
1.349544092
1.35493543
1.357679256
1.354119315
1.331046177
1.330322833
1.33583017
1.334926026
1.344357549
1.338056068
1.342349233
1.339414147
1.349074871
1.352165361
1.332463607
1.340468292
1.3449838
1.349148215
1.354066819
1.331430012
1.327857869
1.323260241
1.327531019
1.326162139
1.346361717
1.366315931
1.405658395
1.482001919
1.693516537
1.351447945
1.366394799
1.414232455
1.498595296
1.626427795
1.351374201
1.378936002
1.413994697
1.472218759
1.564667728
1.349152621
1.360811336
1.400182155
1.445374866
1.507050893
1.351035982
1.362708407
1.385460788
1.415686497
1.448959158
1.346272961
1.354784295
1.373384315
1.39814344
1.420708161
1.338744183
1.345229092
1.363203608
1.379221811
1.408482022
1.346126057
1.347513053
1.359012583
1.370087311
1.386667955
1.339068609
1.3424561
1.349973586
1.352809909
1.362889066
1.335667843
1.343966084
1.34831805
1.350947113
1.35749269
1.345368909
1.350957602
1.357823834
1.360729459
1.365696425
1.334036141
1.335607754
1.337010033
1.349916095
1.353605747
1.339404299
1.347248203
1.34692591
1.350600418
1.353522175
1.332393866
1.329595969
1.33477384
1.334247724
1.34060113
1.335040156
1.337554115
1.341255587
1.342021288
1.346504376
1.33272583
1.335271135
1.334462652
1.327437496
1.327783252
1.333434176
1.335733889
1.334484034
1.338185813
1.347647342
1.335461126
1.341106705
1.343686131
1.344744483
1.344904268
1.353924832
1.373117297
1.400821653
1.476197337
1.687429096
1.352921383
1.369657992
1.403863735
1.485349023
1.63124369
1.351441474
1.363447744
1.393261879
1.461379933
1.559983237
1.348270515
1.354172329
1.380132213
1.432472171
1.480893568
1.345394993
1.357571748
1.38340516
1.40610156
1.447737921
1.344916464
1.356427289
1.362119084
1.388067899
1.422342696
1.341076264
1.343103377
1.350567199
1.359332957
1.369042991
1.338271789
1.342730278
1.35085471
1.35725466
1.376063265
1.338617856
1.349682454
1.360210256
1.360686799
1.377886469
1.332295449
1.331419701
1.335940788
1.345393323
1.3560849
1.333602732
1.334850406
1.335742121
1.339252111
1.34384664
1.334249256
1.336925747
1.341566222
1.351414496
1.356840392
1.3303826
1.333664706
1.331476454
1.337564542
1.341220701
1.335632526
1.33215611
1.330443037
1.332664014
1.33997297
1.331421372
1.335224805
1.34428877
1.349938177
1.34849026
1.336279252
1.338334223
1.336042537
1.331202308
1.329681676
1.329300384
1.328421578
1.334725382
1.33728085
1.340871713
1.336020855
1.338568178
1.33083518
1.332640273
1.333751166
1.343875181
1.3558464
1.3894933
1.449392213
1.667918281
1.344456288
1.364722356
1.40104075
1.453224309
1.613568115
1.340966893
1.360360781
1.390970952
1.440698265
1.527598871
1.341112481
1.351845596
1.378640188
1.416419605
1.472767893
1.342442747
1.354759266
1.361566619
1.38909231
1.421338941
1.342627171
1.353631616
1.361110465
1.37435568
1.399306625
1.345394383
1.345687963
1.35083349
1.360466514
1.378098947
1.337446502
1.338499781
1.353465681
1.366509956
1.377452579
1.339492619
1.34935088
1.361618636
1.359783185
1.361887253
1.337539521
1.33692568
1.341206831
1.34375573
1.353185745
1.332286479
1.334971099
1.336449643
1.340507648
1.352528216
1.337110815
1.342885786
1.344083697
1.343505938
1.34780849
1.337198296
1.331521963
1.334622924
1.338818561
1.340752896
1.334061089
1.330334215
1.329767547
1.331244765
1.335122643
1.335277848
1.333395351
1.333519387
1.336205469
1.339719787
1.332489258
1.336949945
1.335317744
1.337610211
1.343861542
1.336555598
1.334136723
1.339127356
1.340174029
1.336276672
1.333137572
1.333224028
1.332807187
1.333803945
1.341315119
1.345035549
1.365427898
1.385847085
1.456773081
1.66934466
1.346247782
1.364376915
1.392593303
1.473692842
1.615599011
1.343637448
1.36006996
1.385367416
1.445093433
1.511164305
1.347437629
1.361165944
1.384394492
1.41311594
1.461511342
1.340771475
1.349774076
1.366141741
1.376658617
1.4125794
1.337074561
1.340574291
1.342939497
1.358772165
1.384867376
1.339861038
1.344429045
1.354695228
1.365693842
1.387573124
1.339050098
1.343560537
1.348505402
1.352229815
1.36786639
1.337505265
1.340130503
1.342476624
1.34342923
1.351673799
1.333707428
1.339176026
1.348069981
1.350298851
1.357621167
1.332100031
1.332773348
1.327627303
1.332188112
1.336056063
1.337552531
1.338784292
1.340742809
1.342741595
1.345155343
1.334862325
1.339220734
1.341030258
1.343069177
1.348815761
1.335174096
1.33353467
1.334416974
1.338928592
1.34026865
1.33982017
1.344471149
1.34954678
1.34914606
1.35279865
1.337380747
1.332923307
1.336461649
1.335044573
1.337749427
1.334956732
1.338627517
1.341563587
1.341736317
1.341403482
1.335444346
1.33300807
1.332131334
1.33140189
1.332495648
1.339257755
1.343267267
1.357991406
1.412705073
1.613949661
1.336272303
1.35166905
1.374184961
1.429068456
1.541303822
1.336600107
1.341293308
1.364056945
1.41227973
1.46927348
1.342524627
1.353791673
1.375488888
1.400205007
1.431802663
1.33543328
1.350441297
1.361211577
1.375885634
1.39426562
1.346693284
1.354903723
1.355805003
1.372611457
1.387991291
1.335620719
1.336579072
1.344167085
1.350854461
1.362780756
1.335120641
1.338752247
1.337700826
1.347280885
1.357774902
1.337980262
1.337103985
1.340277855
1.347459466
1.352383135
1.337455056
1.339122174
1.342841835
1.347172217
1.348656931
1.33326611
1.334064256
1.338873068
1.337214024
1.340425324
1.330331524
1.329324138
1.334891902
1.340274025
1.344676451
1.331834218
1.33539173
1.336975061
1.338210203
1.333882179
1.33408116
1.3348074
1.334442662
1.332716242
1.334463176
1.332540318
1.332643222
1.336746381
1.339033577
1.338901754
1.331285021
1.330114861
1.333991844
1.335884586
1.339007084
1.329638137
1.331049346
1.327391115
1.330530343
1.331981658
1.335611053
1.335889604
1.338095393
1.338791983
1.334784871
1.479156451
1.30267797
1.223467366
1.167943645
1.137213623
1.108565346
1.106392099
1.08410543
1.083421263
1.083329871
1.062340877
1.068091595
1.075639508
1.078924636
1.098517799
1.116849209
1.149314015
1.186803568
1.210791081
1.281439264
1.337891224
1.44647037
1.623124295
1.857603152
2.404302302
1.636593205
1.451083676
1.336058332
1.279661501
1.237776722
1.208346985
1.199392616
1.190166725
1.16344664
1.17141948
1.156551815
1.158007176
1.178796113
1.184323417
1.199359594
1.211587231
1.231289889
1.269340461
1.297667724
1.35654158
1.44261626
1.543820246
1.673550139
1.915740681
2.394871268
1.709805564
1.582480242
1.479269126
1.4039605
1.352639531
1.318571881
1.272469719
1.263687589
1.256202128
1.24732962
1.24038773
1.22048189
1.223625044
1.239517703
1.253878488
1.260220174
1.300055068
1.33374033
1.369909923
1.409790401
1.491015205
1.587697793
1.710484617
1.931622862
2.35874111
1.734469981
1.644753797
1.582659672
1.52373814
1.475627474
1.417466846
1.368643411
1.336317348
1.317093678
1.302238309
1.288627936
1.277726778
1.28034579
1.291650204
1.303998577
1.314169238
1.330508912
1.371278306
1.402676053
1.462957354
1.524677821
1.615269193
1.731717412
1.944947975
2.320797198
1.75801936
1.715230149
1.658094449
1.610065802
1.567383102
1.517629766
1.459658373
1.426247361
1.386353559
1.365848667
1.367599821
1.338081825
1.33333707
1.333579669
1.343728085
1.360232678
1.402985393
1.419538331
1.444324018
1.48273079
1.557383346
1.629314821
1.748682875
1.943817505
2.302710173
1.766877587
1.72272593
1.698484411
1.682862289
1.656823234
1.606559535
1.560820739
1.507367815
1.467412374
1.433241089
1.417822334
1.398899496
1.376626273
1.391697514
1.413003854
1.41485534
1.424015545
1.446370674
1.478294682
1.526981738
1.579142355
1.667118188
1.775505782
1.956878441
2.26165404
1.7924893
1.765320201
1.745926251
1.747377859
1.7296223
1.699773736
1.648200577
1.608524149
1.562129058
1.517984555
1.48876755
1.48523892
1.457553222
1.438660944
1.458434819
1.459927631
1.475049536
1.495319294
1.516559149
1.55491162
1.612078927
1.681867974
1.800768729
1.950155789
2.232568381
1.775289532
1.760125048
1.772250604
1.7715215
1.764084091
1.755454722
1.71021518
1.66802287
1.64169977
1.60873263
1.588031402
1.553177466
1.540652646
1.506381739
1.532672279
1.497273818
1.515035056
1.543764601
1.571552945
1.619861867
1.667659301
1.719929925
1.822269795
1.982779363
2.2427063
1.758841091
1.754058476
1.786432761
1.824924191
1.834698023
1.822136944
1.799961626
1.762825015
1.742154741
1.689717531
1.657552753
1.635303412
1.609832834
1.592708567
1.58620765
1.57973508
1.583568006
1.606073899
1.618945828
1.653628259
1.691634565
1.74939627
1.857859593
1.993149963
2.27350366
1.782924789
1.780036368
1.809616291
1.824805199
1.855130859
1.877848695
1.860410386
1.850538313
1.804264135
1.796815781
1.740741063
1.713222195
1.686900164
1.672265719
1.661426226
1.673267552
1.671458308
1.679215625
1.6961545
1.696636119
1.762847685
1.820465894
1.91340106
2.03724095
2.30558061
1.791456907
1.791317696
1.825550986
1.85548409
1.888088965
1.897133593
1.905976279
1.916559133
1.886049968
1.870385359
1.860645601
1.811337023
1.767430463
1.751250896
1.761086182
1.758065471
1.768838709
1.776381838
1.772086286
1.811746255
1.833900126
1.903362939
1.978897516
2.101277415
2.380925181
1.798078339
1.792547021
1.828807021
1.879811153
1.92576294
1.976560581
1.979171665
1.976766959
1.980285356
1.93765927
1.937165109
1.88602104
1.873419277
1.869133289
1.862853938
1.845188158
1.84859824
1.84925198
1.893008131
1.907773127
1.913589763
1.96013668
2.065043224
2.162601838
2.454988221
1.780975218
1.786695749
1.827894234
1.886818204
1.953245126
1.992291729
2.002111861
2.005571487
2.021623413
2.024748112
2.028734187
2.026235651
1.989648025
1.9645172
1.981534298
1.964353684
1.980269342
1.960947145
1.966989731
1.983658066
2.02377724
2.068142425
2.138015119
2.245938228
2.549215955
1.781789867
1.788692336
1.825463594
1.888541737
1.945885902
1.995913764
2.059846252
2.074367328
2.108795156
2.115775669
2.117784645
2.141473877
2.125393383
2.126313813
2.111189313
2.123034303
2.084146351
2.074788248
2.090475182
2.083162222
2.130559279
2.160145411
2.25502045
2.360381545
2.638235655
1.790073475
1.81168553
1.861798249
1.920956702
1.990312182
2.034570327
2.112656011
2.158785608
2.193383117
2.240321369
2.251405012
2.278464009
2.231434096
2.251391261
2.257503475
2.219298347
2.218164628
2.209774517
2.238050452
2.218753139
2.268479642
2.281552365
2.362470281
2.460767483
2.781300089
1.792531098
1.81428393
1.871218182
1.951786643
2.02449359
2.103217717
2.183076138
2.2400756
2.280229924
2.324039567
2.357100221
2.36583321
2.389292316
2.380895846
2.383218769
2.375686785
2.358079811
2.372215021
2.357259965
2.348072326
2.371330357
2.413510276
2.479454113
2.593871697
2.813899561
1.792409629
1.826409068
1.901137392
1.999502077
2.094590942
2.196662731
2.279100663
2.338101803
2.407581686
2.458302317
2.481406366
2.482223732
2.5019206
2.49861538
2.524782871
2.509758293
2.512572652
2.49754729
2.468897047
2.497452601
2.504075742
2.522684936
2.580908944
2.64349446
2.927572359
1.799637969
1.868065705
1.964712634
2.062141015
2.15530949
2.229058669
2.306756071
2.351763835
2.396241338
2.406836112
2.46154217
2.455770736
2.462971363
2.472551276
2.455932536
2.498725628
2.463785078
2.469958538
2.443984651
2.461037036
2.484007307
2.47561079
2.511934428
2.548650885
2.662691728
1.631837332
1.455063264
1.34999863
1.280646059
1.246595903
1.213897776
1.197601238
1.197251209
1.179714835
1.175195812
1.16469476
1.159758446
1.158785266
1.173412504
1.195510373
1.195752761
1.228225912
1.268424306
1.315508916
1.360424857
1.420448506
1.526053872
1.698593374
1.914747759
2.358355705
1.737049888
1.551657294
1.412339052
1.328236932
1.293433725
1.281743314
1.273666522
1.282108754
1.291261445
1.278622299
1.290268875
1.283838413
1.297336541
1.309711722
1.310201892
1.329905807
1.349107763
1.372598856
1.4164245
1.460294204
1.526336647
1.633817165
1.781563705
1.975025417
2.382667224
1.769397599
1.650498105
1.509782744
1.405585837
1.35046675
1.328400792
1.312251033
1.313071831
1.327141078
1.335176789
1.355143945
1.351582606
1.359963877
1.378920418
1.383461647
1.406803754
1.41785743
1.449155714
1.490942423
1.543001946
1.60256226
1.701114205
1.829332471
2.02364679
2.373654862
1.781882086
1.698156535
1.59004003
1.501164336
1.432984237
1.39763582
1.379979937
1.374652553
1.373229078
1.36634031
1.376067725
1.380007302
1.398195701
1.411650092
1.413810236
1.437599278
1.45631613
1.497214059
1.534465574
1.579786786
1.637071153
1.710826285
1.839427443
2.028042532
2.31021663
1.767683234
1.703176729
1.618035304
1.550641935
1.503589687
1.461939553
1.426151905
1.407589811
1.407608982
1.408522159
1.42170993
1.416891289
1.433652949
1.440236803
1.454525629
1.461914969
1.503659733
1.521457717
1.558365281
1.627676462
1.66266919
1.770712109
1.859864746
2.012651372
2.246344417
1.754954192
1.713638429
1.652827266
1.590464627
1.539409996
1.504848285
1.49562142
1.478866036
1.453222223
1.445961234
1.452003864
1.457221866
1.471853488
1.472821485
1.483590663
1.493994965
1.526066664
1.558138388
1.597928892
1.646310041
1.692961773
1.759627332
1.858102358
2.018530829
2.268418527
1.754247335
1.713171268
1.654245119
1.607854706
1.577349243
1.552634946
1.542906693
1.522021056
1.51263301
1.506832567
1.497716927
1.511505049
1.506175156
1.51348701
1.526188834
1.553599363
1.56849615
1.585110395
1.611886684
1.668976588
1.695651784
1.766757381
1.8605926
2.005815066
2.267389159
1.756914272
1.727334908
1.675758027
1.635561366
1.605765458
1.598836689
1.578404528
1.579432744
1.57798167
1.564235457
1.55611566
1.557793895
1.567209496
1.574313485
1.577367476
1.589522517
1.613877614
1.626373829
1.662545581
1.695880428
1.741028668
1.811005956
1.903498268
2.035341635
2.254798638
1.762684866
1.732944525
1.685096546
1.649030992
1.62680091
1.618046978
1.614089238
1.619906903
1.617089725
1.617948999
1.615685793
1.614474359
1.601976004
1.625987799
1.628355849
1.641935524
1.652119749
1.669129206
1.687851013
1.722585558
1.778466951
1.841847955
1.927547108
2.047184866
2.27109466
1.760097604
1.740671257
1.695347846
1.656735102
1.64587778
1.642774955
1.64904246
1.654596975
1.674515441
1.681373282
1.678679234
1.686996262
1.69215367
1.689036995
1.675573876
1.697724754
1.718811473
1.735175305
1.77316568
1.790925344
1.836060217
1.897375764
1.965407757
2.084123271
2.261117228
1.730100422
1.718931571
1.681302293
1.660022546
1.645977593
1.661321621
1.686339398
1.708354527
1.722119221
1.72950949
1.745140145
1.764141912
1.760254007
1.761488169
1.764272728
1.772088465
1.795002328
1.818255236
1.823571243
1.878986335
1.90090484
1.962048428
2.02120617
2.152927549
2.345001606
1.749209099
1.731087715
1.695488707
1.666044943
1.662329188
1.674165032
1.694866643
1.726105121
1.737132621
1.77799664
1.802333728
1.812856057
1.820462158
1.834159611
1.852358445
1.857769314
1.8665838
1.890479551
1.931878588
1.94084362
1.975236547
2.013791909
2.062235983
2.186343336
2.38102228
1.732940295
1.720877324
1.688063707
1.665312034
1.66105596
1.679996075
1.702967137
1.746583355
1.7900205
1.827248157
1.866111484
1.888768148
1.891689269
1.900049338
1.933922789
1.934357459
1.953525615
1.973436444
1.989475277
2.041156381
2.062514279
2.110088616
2.17123359
2.260214612
2.438031339
1.73376419
1.719042085
1.687658362
1.680924816
1.687859463
1.697155719
1.728530584
1.767661262
1.821632925
1.874232547
1.906595174
1.934282478
1.968070257
1.997573215
2.027016364
2.034862866
2.047730127
2.055867239
2.080577638
2.113570722
2.162556071
2.207971192
2.248752691
2.351561765
2.526361226
1.729305699
1.719709185
1.695575935
1.676073523
1.690927693
1.721504293
1.767277135
1.816385062
1.871582759
1.916506665
1.983601837
2.018919303
2.051712297
2.100414855
2.11561597
2.144330681
2.144490218
2.161521746
2.168819193
2.200658849
2.237723235
2.271998734
2.327451865
2.40365157
2.604667402
1.726670375
1.729349316
1.704887263
1.693039322
1.702112734
1.732681206
1.790077025
1.853857859
1.920951372