/*--------------------------------*- C++ -*----------------------------------*\
| =========                 |                                                 |
| \\      /  F ield         | OpenFOAM: The Open Source CFD Toolbox           |
|  \\    /   O peration     | Version:  v1706                                 |
|   \\  /    A nd           | Web:      www.OpenFOAM.com                      |
|    \\/     M anipulation  |                                                 |
\*---------------------------------------------------------------------------*/
FoamFile
{
    version     2.0;
    format      ascii;
    class       volScalarField;
    location    "0.003";
    object      p_Ar;
}
// * * * * * * * * * * * * * * * * * * * * * * * * * * * * * * * * * * * * * //

dimensions      [1 -1 -2 0 0 0 0];


internalField   nonuniform List<scalar> 
9720
(
0.4888857843
0.5651968148
0.7268897768
1.140082334
2.58232536
0.4881803283
0.5566252033
0.7025479348
1.134563427
2.232439642
0.4729627646
0.5523370018
0.6840987105
1.027108255
1.879861289
0.4654117223
0.5502988262
0.6651166581
0.9719806445
1.711418463
0.4629215095
0.5224822448
0.6370982297
0.9033446971
1.567407623
0.4560035649
0.5087334099
0.6127186882
0.8181853284
1.46397539
0.4577829879
0.5019077651
0.5703157477
0.7449466686
1.379763151
0.4559938799
0.4960110167
0.5536204836
0.7155465525
1.332334398
0.4461220561
0.4833827536
0.554482488
0.7173603105
1.250887273
0.4489087427
0.4784037242
0.5297281056
0.7066750504
1.253883388
0.4386516578
0.474295686
0.5282693763
0.6928581147
1.260886831
0.4335032407
0.455966525
0.5222803247
0.6636466325
1.223277342
0.4383494658
0.4591859659
0.5329779331
0.6619789163
1.203972216
0.4405312158
0.4631165156
0.5197183846
0.6528529772
1.184144202
0.4276938705
0.4524049382
0.4911180702
0.6029469206
1.163644165
0.4290895495
0.4542194002
0.4812513047
0.6031544481
1.148089108
0.425599974
0.4400279806
0.4736896662
0.5792850604
1.038720769
0.4231253343
0.4336870864
0.4610378938
0.5256023482
0.8571434597
0.4803543962
0.5508832525
0.7370430193
1.159171214
2.286399866
0.482471689
0.5693919397
0.7305182518
1.147031783
1.968595867
0.4888859832
0.5494059182
0.7058796896
1.031463938
1.725587855
0.4707490637
0.5388409836
0.6933099113
0.9320176463
1.523059864
0.4770272402
0.5377453334
0.6455920684
0.8653213584
1.386390593
0.4648500965
0.5163253526
0.6194688688
0.8014538947
1.265595076
0.4552447714
0.5018290863
0.5810422633
0.7763589465
1.205079332
0.4486004943
0.4937745498
0.5793756168
0.7439376563
1.169304153
0.4468541745
0.4873740859
0.5547439946
0.7129570698
1.129438877
0.4465320806
0.4806118676
0.5665027999
0.7153935799
1.092600331
0.445637989
0.4709726495
0.5453365202
0.7106125217
1.038520907
0.4435184503
0.4749624633
0.5302700214
0.6900533064
1.018395315
0.4428768691
0.471417467
0.5381238737
0.683382065
1.026701734
0.4328351212
0.4543608775
0.5119169259
0.6679608434
0.9997858499
0.4331585076
0.4652140283
0.5211904156
0.6490941064
0.9825564391
0.4305811158
0.4645838696
0.5060625556
0.6424304056
0.9400049244
0.4259863927
0.4470261722
0.4916819294
0.5945021432
0.879190085
0.4268752792
0.4372228176
0.4707057369
0.5434815692
0.7634855465
0.4667492643
0.5452703962
0.7220031881
1.047545345
1.998820356
0.4590278284
0.5521284147
0.7108472978
1.050003857
1.727673692
0.4812682859
0.5524946822
0.700313803
0.9830199481
1.469343814
0.4819084623
0.5433017694
0.6728778119
0.918557986
1.2887671
0.4698920637
0.5229943558
0.6368368764
0.8157576889
1.159554088
0.4573160649
0.5152943654
0.5985809856
0.7506283976
1.092225434
0.4498640481
0.4966152398
0.5854777071
0.7233900764
0.9994559517
0.4508497624
0.489274932
0.5704237372
0.7011636843
0.9588688243
0.44537806
0.4807201407
0.5553845438
0.6905665255
0.9176136656
0.4386625515
0.4723333955
0.5354645356
0.672505716
0.8828471907
0.43432045
0.4735659152
0.5411259645
0.6538178529
0.849972512
0.4354340947
0.4629670204
0.5401165609
0.6311199395
0.8609636039
0.4361715009
0.468796341
0.5217127545
0.6336429068
0.8394762283
0.4295657375
0.457514697
0.5217433731
0.6182824562
0.8029166274
0.4326952761
0.4584378062
0.5017839263
0.5934851038
0.7738184881
0.4376343749
0.4626492117
0.5008557692
0.5744837411
0.7338727815
0.4290715497
0.4413192232
0.4856591884
0.5550450448
0.6931943122
0.422632554
0.4379564762
0.4785089098
0.5233440359
0.6103776239
0.4680761154
0.5299122875
0.6674356763
0.9776809395
1.79423893
0.4683221831
0.5371137708
0.6808082536
0.9461848796
1.532430557
0.4664648426
0.5299142539
0.6594177093
0.8904845764
1.280185488
0.4706998268
0.5420386979
0.6447038299
0.8117697138
1.083998702
0.4551307866
0.5195434589
0.6138952685
0.7534036594
1.014253333
0.4510985385
0.4967768601
0.5722461738
0.7388654621
0.9268375596
0.4544908209
0.500415916
0.564219172
0.671621518
0.8259137543
0.4515963537
0.4855199894
0.557022141
0.6700030864
0.7945110753
0.4440100291
0.4801231661
0.5332711461
0.6357822779
0.7733453372
0.4481470689
0.471279023
0.5090773033
0.6077695532
0.7527704448
0.4386374084
0.4627231501
0.5125677208
0.5990722711
0.7308836291
0.4355887482
0.4627064834
0.5077469632
0.5851841345
0.7208791132
0.4401889598
0.4673419187
0.4952147647
0.5781496163
0.698321396
0.4338760887
0.4514825737
0.4909982648
0.5540218539
0.6777916529
0.4271220681
0.4492780198
0.4869340459
0.5478356485
0.645637997
0.4277398721
0.4377150975
0.4733893599
0.524127448
0.6306349577
0.428583353
0.4434560848
0.4716758186
0.5243142574
0.5991859796
0.4237768508
0.4345586495
0.4565818826
0.4858058931
0.5538430581
0.4669948144
0.5324155987
0.6495450891
0.8790014773
1.613281963
0.4647839911
0.5320088975
0.6613946878
0.910950034
1.410750897
0.4641476238
0.5178020059
0.6182701127
0.8414277496
1.156265743
0.4510593422
0.5058655554
0.615147019
0.7396915239
0.9797862959
0.4541377547
0.4987369794
0.5865709864
0.7100280041
0.9164952655
0.4472503388
0.492195225
0.5498404612
0.6647197135
0.8157031906
0.4518579804
0.485497228
0.5346267596
0.6154266927
0.7507281485
0.4437325927
0.4747483488
0.5196955367
0.6027561939
0.7049011928
0.4397178152
0.4601099864
0.503797465
0.5788147157
0.6746815763
0.4391396055
0.4657686871
0.4913883919
0.569944298
0.6499413722
0.4375887205
0.4628636511
0.4950004571
0.5524887032
0.6368975369
0.4316900923
0.4549599934
0.4898855443
0.5509650559
0.6218191719
0.4422294192
0.4513748008
0.4829532301
0.5389495522
0.6010666985
0.4336465804
0.4432397937
0.471027209
0.5260553409
0.5899000881
0.4285055319
0.4461159018
0.4657037473
0.5149813808
0.5891392945
0.4263574015
0.4351867027
0.4632925423
0.5081568359
0.5689938685
0.4246444478
0.439500708
0.4590001587
0.4933995796
0.5367642367
0.4221561991
0.4331596542
0.4519494994
0.4706856191
0.5010053061
0.4595256641
0.5151020869
0.6139903011
0.8289464246
1.494054005
0.459910269
0.5121260749
0.615429396
0.8503353886
1.30429729
0.4506657707
0.5034391395
0.6278109717
0.7940901607
1.066850426
0.4625377905
0.5046140664
0.5709572137
0.7110499467
0.9159732269
0.4545291299
0.4851720108
0.5567607721
0.6590360828
0.8027455827
0.4514953564
0.4817503048
0.5375728604
0.6144608655
0.7410859801
0.4481680116
0.4823884276
0.5244560463
0.5850575906
0.6888110933
0.4415527768
0.4643666551
0.4999125866
0.5669023338
0.6436201675
0.4383635918
0.4611696972
0.4834733689
0.5356837901
0.6084429605
0.4342244911
0.4566723407
0.4861833582
0.5367741673
0.5955715321
0.4360851412
0.446031119
0.4659700351
0.5241705753
0.5781994136
0.4325009032
0.4534585193
0.4744449957
0.5140066817
0.5644788153
0.43241935
0.4498857393
0.4778580313
0.5090853351
0.5711321934
0.4310670653
0.4489718881
0.4675508932
0.4966071266
0.5383759314
0.427012157
0.4371945804
0.4599516058
0.4905882672
0.528885032
0.4228899942
0.4298989004
0.4550582186
0.4763518379
0.5232500866
0.4221544468
0.4351031605
0.4437480034
0.4679805156
0.4963407472
0.4207883246
0.4248664873
0.4353529273
0.4536273987
0.480350952
0.4575008194
0.4960648223
0.5642069059
0.7749005643
1.433552874
0.4544149655
0.4950249677
0.6006538886
0.7977439113
1.230470681
0.461459922
0.5060025556
0.5792730044
0.7477561825
1.029166896
0.4516085697
0.4894714164
0.5534723656
0.6781903415
0.8471834827
0.4408055982
0.4780586794
0.5444884983
0.6149427833
0.7511151512
0.4422582582
0.4738887699
0.5176071467
0.5882731176
0.6894899992
0.4403037913
0.4733850533
0.5107588075
0.5477572227
0.6344027612
0.4409289262
0.4597330334
0.4980678131
0.5453417259
0.5842419375
0.4345560155
0.4585093298
0.4797457555
0.5205058059
0.5577910634
0.4341042427
0.4525917494
0.479539742
0.5046603839
0.5548936763
0.432472754
0.4399172301
0.4607879325
0.501431528
0.5328754275
0.4320586793
0.442835001
0.4633138594
0.4911499387
0.5246559954
0.4297618306
0.4380012237
0.4538267435
0.4825818231
0.5217188716
0.4266222994
0.4383756675
0.4520800809
0.4813499898
0.5045278135
0.421518785
0.4345340711
0.444248709
0.4693896729
0.5030596606
0.427336076
0.4342536664
0.4495914066
0.4585043965
0.4920487375
0.4217572127
0.4234090135
0.4367039586
0.4484725538
0.4723396749
0.4201326519
0.4212413447
0.4378033523
0.4454778069
0.4621476689
0.4572369996
0.5003700172
0.5542074571
0.7324057735
1.405055366
0.4470774714
0.4860735211
0.5637947834
0.7437362181
1.145768386
0.4474178014
0.4969139143
0.5667796892
0.7062512943
0.940258893
0.4511627448
0.4855656079
0.5359436143
0.634019516
0.8156694032
0.4421357013
0.4718668687
0.5163495787
0.5995929821
0.7251969461
0.4357018971
0.4650841875
0.5042334183
0.5694701158
0.6547921227
0.4390157372
0.4642409539
0.4976449751
0.540186238
0.6026299576
0.4314358359
0.456848337
0.4843571471
0.5225173641
0.5631085738
0.429664844
0.4539350786
0.4707081307
0.4966330301
0.5376911233
0.4302796461
0.447571554
0.4625002662
0.4917871424
0.5208737088
0.426652844
0.4323185963
0.4532618525
0.4811113877
0.4986204313
0.4269450161
0.4339818927
0.4564895323
0.4840116264
0.487089765
0.4214752584
0.4285975471
0.4460429115
0.4702646587
0.4866909966
0.4259114772
0.4282689409
0.4408141744
0.458841667
0.4832952903
0.4228686196
0.4287010958
0.4382003142
0.449077892
0.4770010626
0.420587458
0.4305303203
0.4359179574
0.4485472249
0.4714702786
0.4173286606
0.4234357104
0.4337709759
0.4470239876
0.455229398
0.418634536
0.4231376107
0.4229863094
0.4438862491
0.4488510057
0.446004677
0.4733348837
0.5499356291
0.7422944928
1.29975206
0.4524786114
0.4766296632
0.5611450199
0.7438870945
1.145992379
0.4466988347
0.4870668206
0.5720414461
0.6721793256
0.9267899478
0.4426039328
0.480667974
0.5296512994
0.6270510624
0.7937106382
0.447081462
0.4703326604
0.5141591809
0.5714674447
0.6872111305
0.4298707595
0.4583510338
0.4981466649
0.5442770096
0.6171164272
0.4310204156
0.4520256063
0.4871413181
0.5232895243
0.5784462619
0.4360820661
0.4527117
0.4737956573
0.5022199573
0.5493715779
0.4257422968
0.4426846144
0.4638742156
0.4856176707
0.5193040592
0.4279015884
0.4407153072
0.4517159559
0.4769908432
0.5003585367
0.4287321414
0.4384504359
0.4557936848
0.4688642459
0.4801426331
0.4173687913
0.4335387829
0.4404526177
0.461376889
0.4758438665
0.423813097
0.4297475398
0.4391351074
0.459361325
0.4787512517
0.422063336
0.4315399987
0.4400943698
0.4530494834
0.4665917624
0.4182895379
0.4221060568
0.4333732142
0.4461058134
0.4679090529
0.4186460983
0.4216908048
0.4279161574
0.440557606
0.4539074984
0.4196274324
0.4249678864
0.4239600039
0.4403445249
0.4478158132
0.4181526751
0.4176904621
0.4252412507
0.4326715366
0.4365065748
0.4466894595
0.4723366752
0.5398122703
0.6854741972
1.239655935
0.4408743314
0.4747654068
0.5385489021
0.7113333277
1.132839367
0.4447397143
0.4775673034
0.5527855614
0.6747867056
0.8873838059
0.4397446438
0.4761948477
0.5333357707
0.6011148986
0.7638509138
0.4456416854
0.4652966561
0.5129161496
0.5699849457
0.6556923736
0.4302610209
0.4532289401
0.4857518189
0.5215343396
0.5915380095
0.4365390593
0.4466681388
0.4805715569
0.5023152493
0.5613311791
0.4337076494
0.4343294305
0.464063875
0.4941126932
0.5218365575
0.4296097862
0.4401727673
0.4536554552
0.4751386142
0.5066665804
0.4258046371
0.4398202954
0.4471683786
0.4644417387
0.4818310377
0.4288298825
0.4343733018
0.4437718844
0.4555524579
0.4690579786
0.4238313505
0.4298081607
0.4419948462
0.447931398
0.4647241927
0.4200481964
0.4269672219
0.4381316471
0.4463261049
0.467270901
0.4200733879
0.4270553604
0.43857961
0.4450147214
0.4491501981
0.4211058295
0.4231846431
0.4276878165
0.4345852778
0.4440040111
0.4190849955
0.4227046064
0.4235625397
0.4299658863
0.4417427015
0.4187569837
0.4207100214
0.4218291517
0.434955814
0.4419417114
0.4216855519
0.420076552
0.4194884598
0.4246166118
0.4287244574
0.435189491
0.4709640671
0.5248103323
0.6826211387
1.228966804
0.4426785934
0.4842633472
0.5456436742
0.7063637641
1.069959461
0.4348361928
0.4753027944
0.5257270004
0.6414870075
0.8505115502
0.4374359216
0.4768800838
0.5083870973
0.5969402538
0.7305084448
0.4393838032
0.4544102797
0.4858921303
0.556903354
0.6637778968
0.4290393878
0.4516195427
0.4772939884
0.5234216038
0.5847949055
0.4318928078
0.4420222729
0.4688684933
0.4953005536
0.5355546271
0.436251913
0.4400329923
0.45563469
0.4732519411
0.5007831842
0.4278976126
0.4375162948
0.4475430939
0.4660249422
0.4871113342
0.4190517033
0.4315603169
0.4479366007
0.4616891489
0.4839598776
0.4245724479
0.4330188731
0.446621145
0.4460815601
0.4641861633
0.4249776618
0.4324174226
0.4345517486
0.4384726154
0.458412563
0.4187382384
0.4256939086
0.4328299661
0.4376042767
0.4466524182
0.4184875874
0.4197176371
0.424351074
0.4324489831
0.4437879845
0.4218635317
0.4262928487
0.4276491102
0.4367594141
0.4389840104
0.4208764276
0.4225547333
0.4270000942
0.4317192357
0.4388461287
0.4135540962
0.418373177
0.4203954267
0.4268910935
0.4332015931
0.4157296248
0.4184299301
0.4218505944
0.4249503458
0.4264523454
0.4392857971
0.4615870176
0.5176119942
0.6653081504
1.221737505
0.4387248569
0.4793106433
0.5356678138
0.6883959171
1.015551992
0.4383537531
0.4634156577
0.5158854221
0.6258403534
0.8429317952
0.4389939434
0.470134798
0.5007244413
0.5751425299
0.7094926607
0.4425251595
0.4638620011
0.4852019646
0.5348305937
0.6344953433
0.4346802175
0.4462296252
0.473698025
0.5062724062
0.5645414668
0.4313000401
0.4497103636
0.4684235053
0.4927013696
0.5227943509
0.4282122509
0.4371679693
0.4535517466
0.4720861929
0.4957623926
0.4223757027
0.4299955685
0.4441315655
0.4548543876
0.4757491234
0.4230574845
0.4322006353
0.4412865539
0.4546122997
0.4707031457
0.4201418925
0.4242336326
0.4363063873
0.4495278252
0.4574116617
0.4171247953
0.4218168005
0.4347944595
0.4383462029
0.4420658477
0.4156555032
0.4212900193
0.4269741527
0.433225876
0.4452824028
0.4137597826
0.4197370171
0.4248316763
0.425279455
0.4374792174
0.4183107493
0.4182769261
0.4198510825
0.4295208932
0.4356064938
0.4178919306
0.4178165447
0.4231402513
0.4254153137
0.4349850759
0.4164481704
0.4187213937
0.4231952966
0.426112746
0.4254982709
0.4152647969
0.4144575312
0.4176247972
0.4195476474
0.4215900515
0.4288943241
0.453137694
0.5196860483
0.6702587832
1.238393733
0.439225198
0.4714980007
0.5276091226
0.6836095497
1.046947325
0.4365523048
0.4683616862
0.5373595005
0.6311817002
0.8382725169
0.4365256142
0.4649148493
0.5274902129
0.5768408397
0.7106022234
0.4388706532
0.4504426781
0.4786141531
0.5322574855
0.6055430852
0.4251949747
0.4369496871
0.463802525
0.50983695
0.5565688399
0.4304659373
0.4426718588
0.4567358496
0.4941522127
0.5112384468
0.4281815634
0.4345067918
0.4449282047
0.4675179161
0.4874763963
0.4208086948
0.4323877201
0.4460006652
0.456425649
0.4688230853
0.4193396503
0.4287912834
0.4362928986
0.448223972
0.4636293764
0.4190164396
0.4229631086
0.4334986486
0.4342248281
0.4438745351
0.4157216478
0.4177585479
0.4238458667
0.4358597746
0.4396659877
0.4199888062
0.420594432
0.4231390964
0.4268249161
0.4417268441
0.4145954539
0.416415269
0.423963688
0.4294464941
0.4311200309
0.4188697799
0.4225370895
0.4246848584
0.4310489826
0.4326901103
0.4152035498
0.4170629526
0.4175371598
0.4208837222
0.432283043
0.4135284156
0.4158077865
0.4173254189
0.4194855067
0.4233462975
0.413152388
0.4152935206
0.4173786341
0.4221299669
0.4234753824
0.429863158
0.4521474997
0.5105025499
0.6384235105
1.169825961
0.4404875903
0.4679880059
0.5267395851
0.6752831809
1.011606812
0.4402935941
0.4633846451
0.5230435872
0.6319527035
0.7892605338
0.4407303607
0.4578011543
0.4994979587
0.5615494504
0.6766559375
0.4384542821
0.443874712
0.4838937365
0.5344088517
0.577702667
0.4290210315
0.4360492072
0.46711884
0.504363579
0.5403541432
0.4259395014
0.4305327229
0.4601346018
0.4753242046
0.5068320206
0.4220552543
0.4299383544
0.4417922486
0.4586511577
0.4814422158
0.4200228435
0.4285272576
0.4322167812
0.4512855162
0.4726315993
0.4185269194
0.4233301338
0.4278708518
0.4397622993
0.4575519759
0.4187602577
0.4264168008
0.4288370753
0.4355984176
0.4478436806
0.4179864667
0.4238394041
0.4304103937
0.4388132101
0.4406815202
0.4200287957
0.4201180083
0.4254587312
0.4344867094
0.4402518069
0.4156364728
0.4215401706
0.4239553752
0.4263507402
0.4338139485
0.4166753579
0.4145741634
0.4152432328
0.4272824315
0.4281849979
0.4183439703
0.4200365563
0.4198139874
0.4253242811
0.4295800751
0.4130652617
0.4131871528
0.4159530384
0.4152188401
0.4220307148
0.416878865
0.4182107073
0.4190121174
0.4187579796
0.4191410234
0.427640832
0.4493015748
0.5076794764
0.6397416341
1.144119751
0.4351808926
0.4513655792
0.5052422952
0.6475439493
0.975115983
0.4240652609
0.452309185
0.5058808168
0.5990836784
0.7698154411
0.4330100454
0.4525916135
0.4985863266
0.5611722572
0.643324392
0.429730076
0.4473126517
0.4775889077
0.5263504563
0.5806859687
0.4283781638
0.439680736
0.4535719226
0.4967836491
0.5265663065
0.4252649647
0.4295446135
0.4452335746
0.4762905428
0.4997635102
0.4237138303
0.431162651
0.4432056406
0.4557390018
0.4685244366
0.4197446655
0.4287661246
0.437721245
0.4448977242
0.4617390204
0.4177147454
0.4237515851
0.4286483454
0.4361472209
0.4472969297
0.4192441398
0.4199956915
0.4233918402
0.4266727838
0.4388423447
0.4173017221
0.418177405
0.4212549559
0.4268292105
0.4348751671
0.4191616931
0.4231216616
0.4286430947
0.4315299377
0.4371680613
0.4212037243
0.4182342875
0.4215333939
0.4216468624
0.4239749719
0.4139816112
0.4152861359
0.4162454406
0.4223643543
0.4225525517
0.4158748814
0.4154094792
0.4198913831
0.4207813497
0.4227995236
0.4167782212
0.4167863271
0.4191708488
0.4206561908
0.4252387134
0.4128139446
0.4137893096
0.4151518011
0.4173170913
0.4199771995
0.4295628368
0.4552474506
0.4905680523
0.6041692245
1.109530038
0.4286789769
0.4624008057
0.5011969161
0.6203349024
0.960749536
0.4295609429
0.4461661641
0.4975104722
0.5997896091
0.7663671318
0.4280063074
0.4501927984
0.488813286
0.5383067638
0.6512330917
0.4338197943
0.444848766
0.4561964403
0.5032862825
0.5617222541
0.425611647
0.4336352416
0.4549876454
0.4817530952
0.5202565081
0.425227911
0.4318874177
0.4393426841
0.4658489557
0.488318623
0.4232099028
0.4256402012
0.436564856
0.4498455185
0.4643265556
0.4175465682
0.4234722072
0.4336340521
0.4396130047
0.4535663553
0.4171312069
0.4232299851
0.4323452278
0.4425483289
0.4473084632
0.4170801936
0.4227436307
0.4245109566
0.428511283
0.4393007067
0.4162005082
0.4205720778
0.4210179292
0.4246585518
0.4296807848
0.4207144784
0.4174100008
0.4210398072
0.4247662403
0.4245096917
0.415925334
0.415978645
0.423509407
0.4231089905
0.423691803
0.4139818597
0.4180088089
0.4200408194
0.4206781664
0.4237503265
0.4160540546
0.414447767
0.4138195449
0.4149028756
0.4139102639
0.4155821837
0.4174712072
0.419375629
0.4206236445
0.4203154019
0.4167951023
0.4179362908
0.4169507443
0.4155832953
0.4181720314
0.4263291255
0.4509520782
0.4710476832
0.5832406955
1.036526202
0.4313311203
0.4552067454
0.4882986483
0.5881628394
0.8661520462
0.4284969753
0.4534628473
0.4766708166
0.5573810694
0.7210788636
0.4302474022
0.4468213926
0.4716116973
0.5204188648
0.6084023657
0.424535919
0.4373689813
0.4545042557
0.4848325174
0.545685418
0.4200767758
0.4323516227
0.4470451555
0.4596684293
0.4979380509
0.4192471839
0.4288198797
0.4393719668
0.4476611636
0.4743470179
0.4168751348
0.4184997239
0.4274419798
0.4404073034
0.4572461456
0.4223656124
0.4231401244
0.4338817471
0.4395733199
0.4511833188
0.4177547888
0.4231379913
0.4295171633
0.4347758393
0.4409482932
0.4157476594
0.4181251159
0.4188211501
0.4229443295
0.432704024
0.4147036132
0.4171791718
0.4177283305
0.4237200307
0.4247332123
0.4155325454
0.4180249912
0.4172451794
0.4191901949
0.4259831856
0.4183823152
0.4193865671
0.4204785755
0.4231612607
0.4209443878
0.4153195788
0.4139918965
0.4168989035
0.4169300944
0.4220993656
0.4116416365
0.4132043296
0.4132073067
0.4134583315
0.412119903
0.4133818719
0.4146352676
0.4141497351
0.4169306402
0.4197369726
0.4121402367
0.4132655559
0.4158059146
0.4153201249
0.4172794369
0.4220155011
0.4299442425
0.4563780732
0.5302662536
0.8786133808
0.4257303119
0.4414132354
0.4650985033
0.5363006455
0.7369130348
0.4286131869
0.4348728
0.4619845418
0.5092548334
0.611143695
0.4214224753
0.4358487452
0.4556048261
0.491932097
0.5457080439
0.4232767632
0.430712446
0.4458044371
0.4591485259
0.5081900033
0.421696182
0.4259622576
0.4369133181
0.4520915276
0.4765890103
0.4211301731
0.4246429687
0.433794861
0.4413305447
0.4644334604
0.4185197709
0.4212986639
0.426552403
0.434906754
0.4471602027
0.4205613623
0.4209396528
0.422647916
0.4306196314
0.4318765797
0.4160093929
0.4158954169
0.4163607563
0.4201453035
0.4299947526
0.4195667355
0.4221135657
0.4199142346
0.419238743
0.4240262112
0.4155823513
0.4177909881
0.4181476049
0.418625152
0.4250399093
0.4148951043
0.4119935295
0.4161200229
0.417816296
0.4229469727
0.4146755728
0.4153914208
0.4177235693
0.4192066836
0.42149846
0.4120868448
0.4136597437
0.4186109461
0.41892706
0.4189946703
0.4144402946
0.41363879
0.4120703361
0.4157310923
0.4212930246
0.4149309555
0.4155730191
0.418029569
0.4178017865
0.417530575
0.4140385082
0.4154137204
0.4140660637
0.4168098191
0.4173521289
5.223097864
5.837630478
5.739805837
5.453231831
5.093237786
4.847889377
4.603452135
4.338943344
4.155834934
4.021935132
3.849126352
3.772446199
3.627019255
3.498638891
3.384276605
3.285596884
3.176274932
3.02315159
2.883023131
2.729579292
2.570269809
2.386079941
2.176569291
1.893210462
1.424837843
4.243145972
5.184067168
5.507773187
5.60992716
5.479654435
5.27869246
5.031291262
4.772350232
4.584086842
4.3942508
4.196888497
3.995873233
3.880099784
3.701442823
3.584266412
3.477068549
3.311312135
3.162153715
3.012765527
2.850973862
2.680347834
2.481198904
2.234370158
1.948370266
1.478906116
3.752339503
4.587328009
4.995995123
5.220416768
5.305799156
5.249621429
5.121860135
4.969701983
4.780607746
4.564580143
4.419203535
4.210820817
4.066660884
3.891866774
3.753523157
3.629037561
3.427833389
3.298526374
3.115241622
2.950540896
2.761308278
2.534387456
2.325572476
2.056883887
1.582665681
3.387719539
4.133651615
4.614460434
4.813667438
5.008866287
5.061217712
5.00826589
4.91006829
4.827499875
4.601209849
4.508358294
4.350451275
4.177914184
4.029039029
3.884821989
3.723847461
3.554616743
3.386650175
3.213659376
3.063422993
2.889019861
2.680340338
2.429584076
2.157165422
1.695120306
3.208819606
3.793630354
4.237064771
4.52171672
4.669677631
4.767811906
4.76458076
4.742656686
4.718345813
4.62280904
4.515006779
4.380037454
4.240118397
4.122362512
3.940803779
3.786512352
3.641950659
3.473606274
3.282590695
3.154114214
2.995501463
2.764398075
2.539427988
2.246456428
1.795382976
2.977955866
3.552940015
3.991561457
4.26805115
4.405930077
4.517506035
4.601621847
4.618653153
4.619295701
4.533794917
4.48069148
4.377822914
4.245117652
4.082581128
3.943920558
3.838201261
3.686401809
3.505826912
3.387032131
3.210662308
3.029026116
2.820435932
2.656638472
2.347615831
1.878655888
2.855966314
3.403964675
3.757773177
4.015499188
4.157371687
4.212599381
4.35650782
4.420527646
4.403382149
4.375722919
4.340005488
4.247357727
4.166199217
4.079982383
3.961140037
3.837375111
3.680136183
3.56708489
3.458764173
3.261879725
3.077012666
2.922920459
2.712668625
2.429573261
1.936132414
2.769584248
3.342568891
3.601752273
3.790159074
3.942428941
4.085343876
4.159234311
4.21020546
4.174781882
4.194196282
4.151916803
4.151210141
4.110647847
3.995685116
3.912905411
3.805162254
3.666269656
3.546064925
3.420458571
3.26841178
3.139639742
2.983955056
2.729994387
2.476778841
1.980699913
2.733079287
3.21594732
3.496515401
3.668607788
3.788378124
3.917362704
3.953054112
4.027668136
4.01622399
4.067451926
4.053739835
3.980126242
3.957579882
3.887525024
3.785307169
3.69954404
3.639827622
3.518712335
3.455383295
3.276174641
3.161578532
2.979831553
2.745717867
2.505888697
2.017314883
2.705599363
3.161047831
3.386455923
3.586508519
3.686961882
3.763285588
3.811693754
3.823618232
3.886686131
3.863254478
3.879771907
3.818115354
3.849327452
3.791845881
3.716129467
3.636896493
3.545905039
3.441968078
3.325932623
3.226501159
3.098420798
2.941690679
2.769090363
2.512180527
2.042708902
2.622327903
3.090325585
3.348939562
3.465479869
3.586491416
3.618353317
3.646394066
3.689288338
3.704981536
3.720021818
3.70105245
3.634248937
3.637205441
3.664509248
3.570182243
3.509851883
3.387094901
3.331457653
3.282494113
3.169517811
3.043809589
2.88745965
2.699635198
2.481961629
2.014154087
2.503995357
3.04496292
3.329842698
3.403390738
3.489814342
3.541440623
3.572538534
3.565459611
3.552977864
3.527776773
3.522661107
3.48792204
3.468201219
3.477232183
3.427755633
3.387496855
3.306939627
3.243364621
3.158952697
3.077977928
2.935234643
2.859252285
2.66268603
2.433799571
2.003361405
2.495457239
2.967325884
3.277056475
3.377440785
3.403956092
3.431960115
3.497031114
3.439604747
3.381093373
3.367669021
3.351673836
3.343978939
3.295635806
3.286613198
3.249652693
3.196129732
3.141376855
3.114249398
3.067547829
2.976941118
2.849374926
2.771275885
2.607727017
2.380432357
1.975332812
2.564591956
2.94874866
3.170919891
3.324575143
3.324562378
3.323553016
3.310013703
3.296664016
3.302243695
3.261158035
3.199782105
3.183871317
3.193691133
3.161238416
3.092173626
3.070620441
3.01955285
2.975478497
2.923639651
2.806378407
2.734257597
2.673485018
2.549473343
2.364628513
1.946458334
2.481040036
2.906660495
3.128365211
3.184123717
3.218554072
3.171005463
3.185136232
3.100194645
3.091742002
3.069042101
3.03428652
3.01565469
2.965028675
2.94937311
2.926900775
2.888222752
2.83290605
2.831524326
2.819013911
2.726444096
2.652433418
2.606661033
2.461283987
2.301913805
1.904595144
2.459760358
2.852124442
3.024741374
3.05001565
3.030300085
3.013946399
3.004174869
2.952870309
2.956652283
2.925871105
2.856876856
2.823077105
2.82205909
2.848650071
2.804827593
2.810379827
2.770417354
2.73341391
2.678116567
2.681078903
2.61134602
2.543791262
2.430188902
2.269933828
1.915428561
2.316114634
2.698979505
2.817694566
2.812458023
2.808616746
2.800135905
2.777199966
2.761586508
2.760272139
2.731157107
2.685320408
2.660542652
2.718560003
2.697709792
2.697331048
2.701183282
2.716219222
2.670092681
2.640734141
2.620514871
2.589271776
2.569330674
2.470321806
2.324760225
1.955623636
1.901702118
2.245385425
2.309653608
2.336697004
2.360431703
2.427714474
2.457094074
2.497832276
2.488391432
2.550840493
2.527185613
2.593497598
2.577995273
2.600944192
2.641748548
2.669519422
2.670711466
2.649602926
2.700029933
2.703511873
2.706622381
2.677645747
2.583679799
2.487997221
2.113644744
4.300407445
5.17733763
5.547940647
5.610823447
5.464656881
5.26596198
5.045942848
4.822359826
4.580268979
4.33378427
4.124649823
3.99000137
3.840308376
3.704978612
3.571047083
3.455507544
3.333299612
3.145193595
3.049831282
2.848142657
2.66461223
2.459971213
2.257065873
1.964474411
1.472830674
3.277664379
4.180797154
4.801911035
5.229491477
5.384635258
5.399755324
5.290028562
5.11626847
4.91863239
4.71838068
4.472702168
4.302340077
4.137897122
3.978978602
3.815816719
3.634384099
3.45722704
3.312796438
3.158553119
2.963350676
2.782139792
2.567404674
2.281690175
1.94264846
1.448437847
2.688909612
3.55028244
4.145740796
4.608619561
4.931730019
5.057507009
5.10520038
5.060214711
4.986256771
4.788819917
4.636643615
4.456935988
4.294944203
4.177082783
3.954572475
3.780339674
3.583397897
3.446452504
3.270697649
3.016455515
2.84566969
2.64733508
2.354865737
2.021422488
1.546374562
2.340243953
3.096344311
3.65026527
4.133145905
4.508187061
4.730881822
4.859278522
4.883093517
4.891081948
4.791362494
4.670217441
4.515883369
4.400901029
4.228582349
4.017688617
3.846721425
3.730814043
3.540042045
3.348428344
3.160950667
2.952678361
2.728860626
2.458804808
2.114765408
1.644059146
2.12930629
2.79840022
3.328213641
3.763524428
4.135944986
4.393380569
4.531125609
4.649491821
4.720664565
4.67367889
4.619114374
4.522235598
4.377076132
4.22630835
4.056395367
3.950295514
3.732869285
3.592535841
3.422246801
3.264214785
3.077944726
2.813495695
2.535197059
2.197285594
1.750978928
1.958839717
2.560478116
3.029578348
3.472115378
3.800513721
4.098286728
4.316463891
4.394090052
4.516224684
4.533596847
4.490235987
4.411359602
4.303441092
4.261014919
4.049771818
3.950754323
3.784055258
3.627439677
3.478094946
3.314061643
3.141743527
2.902965342
2.614655122
2.282680856
1.799773891
1.865709817
2.355269647
2.829547786
3.254360395
3.553158637
3.820583701
4.054360879
4.166958754
4.269780575
4.37073659
4.336366621
4.296421819
4.239233729
4.170422636
4.063535458
3.914914596
3.791869994
3.644484418
3.511291972
3.360960137
3.132937031
2.936312588
2.703723908
2.370600241
1.865361057
1.765099672
2.28844725
2.653045971
3.045183576
3.310225839
3.60393476
3.799636174
3.998344835
4.092542341
4.160875842
4.139852743
4.172327803
4.115655377
4.040199569
3.959743238
3.894576058
3.787018808
3.627863822
3.490053124
3.347678958
3.180464521
2.999439549
2.733201035
2.382723626
1.922934716
1.740112404
2.184334488
2.578473854
2.89128856
3.151794961
3.400116846
3.605044442
3.748788453
3.89070912
4.000451919
3.965133326
4.005065377
4.015939907
3.978786886
3.883686661
3.789125963
3.702492655
3.578223982
3.477086773
3.332648249
3.184431724
2.972705233
2.750536865
2.442799211
1.953469891
1.713653483
2.149103131
2.513445035
2.801893944
3.028740028
3.224563116
3.410898766
3.561919596
3.697849166
3.795553831
3.830222311
3.832119245
3.877246614
3.828776129
3.731850845
3.683812147
3.598589126
3.48518777
3.436233252
3.29380672
3.143303663
2.946475313
2.73125984
2.42216286