/*--------------------------------*- C++ -*----------------------------------*\
| =========                 |                                                 |
| \\      /  F ield         | OpenFOAM: The Open Source CFD Toolbox           |
|  \\    /   O peration     | Version:  v1706                                 |
|   \\  /    A nd           | Web:      www.OpenFOAM.com                      |
|    \\/     M anipulation  |                                                 |
\*---------------------------------------------------------------------------*/
FoamFile
{
    version     2.0;
    format      ascii;
    class       volScalarField;
    location    "0.003";
    object      p_Ar;
}
// * * * * * * * * * * * * * * * * * * * * * * * * * * * * * * * * * * * * * //

dimensions      [1 -1 -2 0 0 0 0];


internalField   nonuniform List<scalar> 
9720
(
0.486356183
0.5494233888
0.7181117385
1.168085702
2.608302865
0.4742636832
0.5452456131
0.7102254617
1.102486749
2.290078638
0.4697152649
0.545372913
0.7070242009
1.048237103
1.955380171
0.4790806778
0.548659091
0.6651447689
0.9566146644
1.731893886
0.4606172708
0.5197295913
0.631142634
0.866875299
1.586721805
0.4554868991
0.5178966703
0.605014531
0.8114721115
1.449804518
0.4501631417
0.4930206045
0.5767554973
0.7721928633
1.373820697
0.4480908114
0.4865803539
0.5557554376
0.7236580948
1.32664148
0.4392567844
0.471139968
0.5291988786
0.7025694482
1.271762728
0.4406172682
0.4656049589
0.5324427198
0.6862632957
1.264862394
0.4356203553
0.468827446
0.538842982
0.6770479832
1.242240334
0.4289373704
0.4571596358
0.5241585482
0.6682956606
1.221831641
0.4290504319
0.4574133579
0.5083975732
0.6451720737
1.207776404
0.4277985906
0.4564246527
0.5004234332
0.6386189687
1.184886922
0.428402418
0.4536988398
0.4973653298
0.6133862223
1.125487022
0.4292073659
0.4456325804
0.4914809053
0.5977250851
1.104122821
0.4286086925
0.4427933733
0.4769190507
0.5635989499
1.047703853
0.4272116346
0.4372559742
0.4518065479
0.5237968549
0.8954131311
0.4723782342
0.5532994499
0.7280791725
1.135296873
2.304451833
0.4728562429
0.5532490562
0.7005241062
1.134187078
2.038447996
0.4841680936
0.556745987
0.700310365
1.033636152
1.731685027
0.467545351
0.5413202316
0.6711135615
0.9609308936
1.571352179
0.4611481472
0.5100901752
0.6314167095
0.8669121794
1.40237302
0.4619298748
0.50499624
0.6161836957
0.8482694376
1.298206428
0.4683359872
0.5139502509
0.5994275072
0.782479309
1.18242411
0.4420006637
0.4898921514
0.5632461135
0.7710280058
1.150939941
0.4454446878
0.4815666409
0.551945084
0.7269442345
1.10818176
0.4443532609
0.4764129782
0.5449906844
0.7137326436
1.089217773
0.4378101982
0.4694999372
0.5353629884
0.7074365938
1.074353688
0.4432846957
0.463270853
0.5415697205
0.6957844915
1.054657064
0.4362393027
0.4731942662
0.5463168976
0.7088756795
1.040039475
0.4367317001
0.4601350763
0.5203292211
0.6779869789
0.9969437445
0.4350842066
0.4557099155
0.5161203552
0.6484891918
0.9571889036
0.4362971598
0.4510786855
0.4990953806
0.634514765
0.9450413228
0.4373263206
0.4484062146
0.4843724342
0.5873114776
0.8530091848
0.4182646547
0.4316208205
0.4655261047
0.5562833783
0.7379290837
0.4710065071
0.5334750127
0.7016539297
1.041962367
1.916293419
0.4793492903
0.5534698284
0.7061485589
1.033627776
1.723442642
0.4704908863
0.5425649924
0.6736602995
0.9813995443
1.515014966
0.4605136336
0.5212411426
0.6491529918
0.8969438116
1.294307919
0.4646376035
0.5100370481
0.6219760643
0.8184433983
1.162934971
0.4604137814
0.5126296897
0.6217524085
0.7759232158
1.068102736
0.4572613016
0.5111910156
0.5902076946
0.7155445408
0.994688248
0.4497579544
0.4831737738
0.5635103025
0.6928223425
0.9352969065
0.4498358814
0.4834250462
0.5409186142
0.6754599608
0.9035272908
0.4435767286
0.4787429708
0.5390211415
0.6492148448
0.8551021395
0.4396586681
0.4728173272
0.5297133903
0.6313052047
0.8624587364
0.4438890061
0.473654642
0.5143992425
0.6340479416
0.851911073
0.4389381713
0.4752548612
0.5184959476
0.6192143738
0.8285936246
0.4338701691
0.4579476665
0.5166755074
0.6330343674
0.8124802882
0.4439742897
0.4601547425
0.5116486884
0.6067778656
0.7996866017
0.4320964448
0.4561222287
0.4956260489
0.5874529777
0.7506326576
0.4309586533
0.4462812675
0.4799938255
0.5544041315
0.6989787931
0.4244809312
0.4435547736
0.4709205582
0.5274134915
0.629160597
0.4635954658
0.5293016477
0.656711348
0.9390063805
1.650198883
0.4696572284
0.5404686045
0.6870693107
0.9540220447
1.521675907
0.4549366517
0.5369077498
0.6716978557
0.88613238
1.269815118
0.4684262219
0.5246824979
0.6405795185
0.8390061311
1.101231024
0.4605506286
0.5095959643
0.6058891686
0.7572303515
0.9815584408
0.4527182388
0.506000752
0.5922300401
0.7172397855
0.9107677383
0.4591763559
0.497345695
0.5438821466
0.6564903882
0.862873141
0.4504793498
0.4802546636
0.5352092531
0.6421580857
0.8034800757
0.4452101408
0.4752177222
0.5315155099
0.6181571605
0.7525205538
0.4434982568
0.4677023982
0.5134968497
0.6046379034
0.7246843441
0.4404008904
0.4666120874
0.5170897458
0.5986065379
0.7129011619
0.4375937867
0.4606207135
0.5061643846
0.594893426
0.711348574
0.4318155048
0.4554697231
0.5050003415
0.5740588402
0.6784657001
0.4327754896
0.4581970536
0.4969730458
0.5610145743
0.6829239773
0.4288120955
0.4517707289
0.485541022
0.538207703
0.6482704185
0.4266405156
0.4440894908
0.4794938457
0.5268741875
0.6383366618
0.4276356425
0.4439957074
0.4664281685
0.5239798949
0.5964872726
0.4273741462
0.4347605584
0.4497585876
0.4904308023
0.5651050606
0.4763881176
0.5219751331
0.6341906366
0.8634873009
1.56977849
0.4703966952
0.5393077119
0.6373897059
0.8755882279
1.361440072
0.4727126424
0.5428313378
0.6463164043
0.8376121501
1.17239175
0.4570319479
0.5092424045
0.6053069898
0.7619501596
0.9825944181
0.4548508059
0.5051024672
0.59254614
0.7060252665
0.877180491
0.4536023505
0.4973424786
0.5639311374
0.6705676417
0.8126686261
0.4583228646
0.4879497719
0.5448322464
0.6224736856
0.7539090706
0.4576115258
0.4879004973
0.5363690765
0.6068253745
0.7087045705
0.4407178845
0.4766513347
0.5244952976
0.5800730572
0.6700767034
0.4391448334
0.4700109131
0.5135050044
0.5629279397
0.6724293439
0.4407467791
0.4614610398
0.5057624494
0.5427574541
0.6328783078
0.4444554646
0.4537687026
0.4807912755
0.5408659356
0.6283067048
0.4338887921
0.4514414138
0.4821447574
0.545619892
0.5971359728
0.4301387783
0.4480239302
0.4754344699
0.5242347065
0.5782512781
0.4278495148
0.4487352599
0.4664690465
0.5030924284
0.581365097
0.4268691237
0.4464150948
0.463059876
0.5036159657
0.5607232825
0.4259250824
0.4396419783
0.4607087908
0.4882897298
0.5404389164
0.4241615137
0.4351128074
0.4467405876
0.4730951557
0.5121379209
0.4622155646
0.5272389177
0.6226475858
0.8151268917
1.477782102
0.4596858193
0.5229261731
0.6292286965
0.827157937
1.264947155
0.4670674847
0.5115989573
0.5980447086
0.7675755656
1.033787781
0.4588146151
0.5039945183
0.5765758884
0.7146522246
0.8852290032
0.453987007
0.4956396722
0.5636383902
0.6760184184
0.7914352441
0.4487150118
0.4821135552
0.5352497456
0.6246251301
0.750411728
0.4421736892
0.4767616835
0.5197635346
0.5912053699
0.6815168889
0.4405258304
0.4753625538
0.5060568052
0.5582072971
0.6468746925
0.4428759908
0.4617544203
0.4986726157
0.5349999745
0.6196781894
0.4403430744
0.4589410343
0.4902238578
0.5332927681
0.5909599782
0.4329740437
0.4401273153
0.4733618871
0.5260811578
0.5842006442
0.4261846337
0.4495763797
0.4760192477
0.5307712591
0.5682954906
0.4324498675
0.4472437913
0.4727720145
0.5084382491
0.5483267682
0.4263136231
0.4420801847
0.4549359703
0.4987862671
0.5420140909
0.4238584715
0.439396965
0.4539904505
0.4888023338
0.5308612495
0.4233464656
0.4334831226
0.4573575791
0.4810131941
0.5251179903
0.4260833714
0.4309184645
0.4475998351
0.4644551048
0.49672966
0.4189916723
0.4224169335
0.4400296819
0.4585534825
0.4736849786
0.467927027
0.5108830354
0.5958353638
0.7865742669
1.414419451
0.4654224852
0.5048104517
0.6071832717
0.7955967697
1.223453448
0.4586462606
0.500920737
0.5728459907
0.7092165078
0.9877595018
0.4525009486
0.4789608366
0.5521675971
0.6601167459
0.8247451724
0.4453998986
0.4814517574
0.5395394315
0.6400318634
0.7507690009
0.4426114755
0.4720937908
0.5170843592
0.5938292247
0.6902523407
0.4466486695
0.469790746
0.4933197573
0.552645108
0.6310978201
0.4369872796
0.4536932899
0.4826541443
0.5301285693
0.6124444905
0.4371839811
0.4503894161
0.4684250383
0.5089271804
0.5851825201
0.4370208612
0.4458077752
0.4726748952
0.5051972559
0.5480359828
0.4242140484
0.4296612564
0.4605969454
0.4970039411
0.5417295616
0.4262086914
0.4426434359
0.4547084473
0.496375628
0.5355161384
0.4216362358
0.4417626196
0.4537681152
0.4751898369
0.5029472918
0.4252596891
0.4397691316
0.4504646322
0.4806239903
0.5002893392
0.4177024948
0.4324887703
0.4428987007
0.4641566614
0.5037554412
0.4152424764
0.4245833629
0.4421415781
0.4688438827
0.4842267981
0.4190030644
0.4289018068
0.4438535543
0.4447235522
0.4657145415
0.4206993322
0.4250459209
0.4349268211
0.4485761282
0.4650402629
0.4552752513
0.4938401425
0.5780670551
0.7457507255
1.325542578
0.4560018165
0.5066672984
0.5923064992
0.7599278124
1.144961128
0.4552879959
0.4969981357
0.5657843336
0.6933601463
0.9427828821
0.4521375051
0.4801224215
0.5439529714
0.645101261
0.787378789
0.4403670048
0.4715314607
0.51219776
0.6050658325
0.6913684305
0.4393854487
0.466910229
0.5053562791
0.5648762301
0.6402682231
0.4404067664
0.4585207977
0.481783871
0.522179695
0.5969763585
0.4336951185
0.4576045384
0.4827183029
0.5026712388
0.5609617373
0.4361361802
0.4555745018
0.4672863446
0.5017901832
0.5537238167
0.4333954163
0.4522823075
0.4650733857
0.4802813918
0.523355279
0.4242419909
0.435528877
0.4549467262
0.4774122748
0.5097770587
0.4238262945
0.4408350142
0.4532485899
0.4751553052
0.5078158255
0.421918071
0.4341944829
0.4516167639
0.4622417624
0.4858098107
0.4219652739
0.4340619836
0.4437557751
0.4613543155
0.4825788455
0.4225341703
0.4338912338
0.4458669301
0.4529369655
0.4837002253
0.4183325332
0.423181611
0.4330167347
0.4493281673
0.458985194
0.4185798151
0.423250224
0.4321512023
0.4401285764
0.4520585048
0.4164116662
0.4159815113
0.4226685964
0.43578948
0.4437155387
0.4538531946
0.4860918385
0.565932528
0.7222188599
1.287878512
0.4498700449
0.4807200971
0.5789956541
0.7345195862
1.125432769
0.4533601858
0.4831198027
0.5570304761
0.6964765726
0.8991288425
0.4382351778
0.4774065022
0.5261467723
0.6263222836
0.7403939879
0.4409295921
0.4651912772
0.5034202656
0.5706093335
0.6717618577
0.4362863005
0.4578195338
0.4991410179
0.5443169768
0.6190156512
0.4329104759
0.4547521886
0.479175929
0.527057171
0.5764584957
0.42819652
0.4498213949
0.4695969544
0.4968631174
0.5422235918
0.43306832
0.4561033691
0.4604962419
0.4841938783
0.5209688402
0.4322466519
0.4413180037
0.4506139543
0.4778143734
0.506438156
0.4226498448
0.4392874248
0.4486700535
0.4691425364
0.4945256673
0.4244886178
0.4313404143
0.4447094038
0.4610048676
0.4827235228
0.4182299767
0.4321199441
0.4378991515
0.4524500708
0.4726926776
0.4196247166
0.432894974
0.4319341915
0.4484279617
0.4680345018
0.4134030922
0.4205591677
0.4322165991
0.4455779546
0.457796702
0.4154679323
0.4254692952
0.4316332521
0.4476031745
0.4507221524
0.414274492
0.4232354921
0.4257453272
0.4337906376
0.4413192613
0.4175752308
0.4203777076
0.4225052608
0.4288540691
0.4334316526
0.4425708863
0.4624294885
0.5232446748
0.6730162414
1.241043281
0.4487421044
0.4746223427
0.545147925
0.7081880073
1.101394145
0.4409105597
0.4725422852
0.532180826
0.6516093719
0.8714974022
0.4394432243
0.4676657463
0.5179016332
0.6030111753
0.7470772086
0.4448667971
0.4600045597
0.5054549466
0.5650784941
0.6499551951
0.4373998755
0.4596754777
0.4900951261
0.5248948031
0.5812045821
0.4318537767
0.4488683531
0.4717715985
0.5058615456
0.5533411055
0.4335533069
0.4487654385
0.4626978308
0.4896439308
0.5281753565
0.4248774519
0.4438550451
0.4499689846
0.4741606918
0.4960297571
0.426002127
0.4367205439
0.4399977618
0.4645284407
0.4901886183
0.4221592758
0.4308930375
0.4427499832
0.4618904241
0.481418799
0.42142884
0.4291730553
0.4404595409
0.4556408798
0.4653108132
0.4220554703
0.4294528948
0.4338540771
0.4474017503
0.4626873608
0.4210008719
0.4257707511
0.4287936216
0.4346864085
0.450362739
0.4179396584
0.4238343602
0.4319057532
0.4347713525
0.4501585039
0.4199352357
0.4255624644
0.4250315554
0.4340105305
0.4463898721
0.416024126
0.4226911137
0.4251457983
0.4349447527
0.440088952
0.4183297666
0.4186199021
0.4221474612
0.4287361477
0.4349172222
0.4403830163
0.4650214942
0.5272920489
0.6709991994
1.202353231
0.4381643173
0.4679075566
0.5296307365
0.689057698
1.08852218
0.4388244821
0.4732561544
0.5248759526
0.6524013993
0.8668716848
0.4415261952
0.4738298032
0.5205228224
0.6078975715
0.7388925373
0.4474216444
0.4592773083
0.5013072763
0.5664061887
0.6482402738
0.4366821462
0.4496357813
0.4891386277
0.521440286
0.5815896945
0.4299646577
0.445354527
0.4673897418
0.4932977323
0.53085949
0.4311166686
0.4430263708
0.4558338055
0.4757099327
0.5044644083
0.4222064916
0.4405334976
0.4549377049
0.4692077383
0.4847730377
0.4230649294
0.4310025392
0.4431562078
0.4587986348
0.4704827144
0.4215525444
0.4288544599
0.4385956773
0.4495377878
0.4579101325
0.4232492339
0.4274969127
0.432185505
0.4413284388
0.4473492205
0.422707006
0.4288018769
0.4338814911
0.4392045221
0.4495626486
0.417453955
0.4228665233
0.4303522943
0.4394809447
0.4499791287
0.4191067525
0.4185934523
0.4223655544
0.4285746889
0.4430675526
0.417182685
0.4202573526
0.4225748646
0.4316523363
0.4418804496
0.4150446518
0.4198231815
0.4202383285
0.4314504088
0.437686543
0.4134883206
0.4156366314
0.418614159
0.4275117666
0.4353188121
0.4315117233
0.4683152167
0.516135462
0.6572169108
1.203260768
0.4342838785
0.4659912903
0.5358870714
0.703122456
1.05081106
0.435955998
0.466965051
0.5254556347
0.6438780362
0.8508726984
0.4351475864
0.4643574137
0.5086999339
0.5894090982
0.7101813427
0.4405318136
0.4584301482
0.4887193698
0.5418104714
0.6262959852
0.4330173123
0.4535398909
0.4714143152
0.5092607786
0.5673422944
0.4345482422
0.4508120219
0.4698058538
0.4845022251
0.5359997133
0.4290387205
0.4423606209
0.4488262907
0.4637397117
0.5076272521
0.4305527873
0.4362798103
0.4477953139
0.4604606342
0.4890165972
0.420411071
0.4267999646
0.436502439
0.4563825391
0.4628880778
0.4202184417
0.4222916507
0.4362876588
0.4492737434
0.4551662148
0.4198197703
0.4209941124
0.4292827543
0.4351518102
0.4493790911
0.4165573428
0.4228121145
0.4249908215
0.436470861
0.4453489076
0.4194074487
0.420786164
0.4225617229
0.4307726951
0.4417259044
0.4171900631
0.4187459085
0.4233038143
0.4288412647
0.4405622749
0.4202044156
0.4204311366
0.4221997457
0.4197975203
0.4261552187
0.4173933132
0.4214021207
0.4198459338
0.4224395462
0.427412958
0.4157902768
0.4191622834
0.4193140605
0.4228886489
0.4259256895
0.4320416093
0.4621316447
0.5143031554
0.6394670824
1.159945852
0.4319623109
0.4587138352
0.5164112401
0.6801288526
1.015779445
0.439810004
0.4661627098
0.5122455566
0.6252385918
0.8073467309
0.4356201454
0.4526092224
0.4949826626
0.5729073542
0.6870186533
0.4357962996
0.448863889
0.4791975916
0.5368745226
0.6012693514
0.4316559499
0.4445177604
0.4653982574
0.5033620681
0.5542943496
0.4285352346
0.4361528471
0.4549099263
0.4753258997
0.5271873791
0.4305190137
0.4400342826
0.4418101041
0.4626687726
0.4875425617
0.4264068141
0.4327947884
0.4404483841
0.4464924026
0.4710235288
0.4221176178
0.4307642093
0.4342966078
0.4408914686
0.4604524296
0.421207085
0.4251175447
0.4315979718
0.4449244753
0.4530205492
0.4211045169
0.4226450094
0.4236043538
0.4312442529
0.4398310604
0.4194280501
0.4172969963
0.4229708117
0.4329174306
0.4369015017
0.417569498
0.416812131
0.4200390334
0.4260154753
0.43178807
0.4174127152
0.4206357747
0.4226276065
0.4294774463
0.4313488076
0.413662228
0.4199899707
0.42076346
0.4239600982
0.4314878298
0.4132223919
0.4107222101
0.4132983477
0.4172628864
0.4239039964
0.413773784
0.4146849215
0.4181186374
0.4234378189
0.4238167784
0.4406967005
0.4649458913
0.514264177
0.6322808342
1.160869017
0.439374349
0.4620698397
0.5190958417
0.6463111909
0.9620849508
0.4363296136
0.4697379382
0.5124078926
0.60452152
0.801911464
0.4362580422
0.4461676458
0.4956602839
0.5611513932
0.6723245188
0.4361172346
0.4494566682
0.4798114447
0.5188488411
0.5726243509
0.4349653162
0.4428531386
0.4654865291
0.497841248
0.5377521897
0.4229184883
0.4335496615
0.4538205576
0.4725981437
0.5055153075
0.4256691677
0.4298387425
0.4432418612
0.4612079858
0.4850569692
0.4241356702
0.427246008
0.439773153
0.4503354052
0.4667161614
0.4176771998
0.4230686429
0.4364898262
0.4415467303
0.4482136753
0.418733695
0.4194706038
0.4192451468
0.425134739
0.4356350105
0.4218712367
0.4218741487
0.4275810355
0.4295909686
0.4374307544
0.4121232272
0.4151580729
0.4173733883
0.4218889307
0.4264169314
0.4147688508
0.4200078453
0.423329355
0.4232541857
0.4271992001
0.412168561
0.4153665235
0.4194551439
0.4234326191
0.425781286
0.4131422818
0.4155313056
0.4188676696
0.4191841599
0.4255757905
0.4151123972
0.4187188197
0.4204607925
0.4179337469
0.4231243362
0.415750187
0.41703743
0.4149049282
0.4146815028
0.4215086107
0.4346894467
0.4546127606
0.4948896221
0.6103566569
1.136843265
0.4372341497
0.4573320871
0.5062476853
0.632148975
0.9837977703
0.4324224747
0.4448400979
0.4875633013
0.5854539779
0.7703971695
0.4323019235
0.4422230733
0.4796801126
0.5626331743
0.6585015903
0.4280245129
0.4428026916
0.474059565
0.5088981494
0.5710975318
0.4266098981
0.4450375113
0.4504670486
0.482056728
0.5167033033
0.4234579302
0.4317505132
0.446154831
0.4682618593
0.4933442802
0.4219313079
0.4297464602
0.4402771679
0.4474554545
0.4728588244
0.4186382226
0.420521094
0.4310697321
0.435379058
0.4559970761
0.4206502517
0.4268790472
0.432594102
0.4391733488
0.4460174266
0.4178071843
0.4181578411
0.419852679
0.4316723851
0.4380980615
0.4178962481
0.4213880908
0.4211280142
0.4276835256
0.4348878576
0.4139462657
0.4165878329
0.4202975373
0.4249010904
0.4292154477
0.4171830529
0.4214507966
0.4227149009
0.4247242125
0.4299431681
0.4186451407
0.4173221143
0.4167148377
0.4202918053
0.4232312749
0.4124380321
0.4127966057
0.4164963379
0.4183736412
0.4225378947
0.4165397258
0.4141346514
0.4157071534
0.4165431313
0.4204963028
0.4146532767
0.4149252563
0.4165667851
0.4177717011
0.4204669823
0.4243741846
0.4476054731
0.4945353198
0.5886175201
1.11765589
0.427805494
0.4504541431
0.4977451179
0.5883253465
0.9200678501
0.4269414565
0.4485864123
0.4953708502
0.5656860755
0.7334979897
0.4322490533
0.4470307389
0.4821667108
0.5311487224
0.617484703
0.4252247506
0.4474555573
0.4706308089
0.5034175437
0.5575899973
0.4292057732
0.4382190306
0.4495282352
0.4640975747
0.5064327684
0.4260821834
0.4272698087
0.4357593377
0.459632491
0.4804292734
0.4188011124
0.4207965248
0.4342287846
0.4425805045
0.45548
0.415328923
0.4152370902
0.4253775103
0.4273618356
0.4442050466
0.4182298679
0.4196203022
0.4326525414
0.4353617542
0.4426506876
0.4168932632
0.4238022164
0.4218638771
0.4293319866
0.4361096015
0.4150491312
0.4168398095
0.4187434733
0.4251395431
0.4313870186
0.4201162967
0.4199619448
0.4218940842
0.4278989646
0.4321803569
0.418821459
0.4158156807
0.4229738106
0.4242420071
0.4295229384
0.4160724786
0.4197018448
0.4233277283
0.4243954276
0.4267036
0.4181334714
0.417995775
0.4193800663
0.4170293982
0.4191100096
0.4133503529
0.4137771322
0.4143167125
0.4169710977
0.4175147207
0.4137850262
0.4165025111
0.4180321713
0.4168337297
0.4169353206
0.4264000789
0.4398360135
0.4593135304
0.5644040639
1.061588862
0.4291684631
0.4546071272
0.4853364992
0.5953390164
0.8960689059
0.4261658366
0.4478920653
0.4809506049
0.5678150464
0.6902898285
0.4294707492
0.4438664455
0.4676522327
0.5087723117
0.5885551134
0.4229545684
0.4350247093
0.4540374549
0.4761556381
0.5313512724
0.4253796127
0.4312906944
0.4408107311
0.4628019793
0.4955619655
0.4271941091
0.4297675517
0.4353037246
0.4456826507
0.47012989
0.4209136785
0.4271823615
0.4345345024
0.4436983129
0.4590091661
0.4176227952
0.4222598507
0.4324089519
0.4355620061
0.4440421766
0.4196366107
0.426497162
0.428625865
0.4282912101
0.43249423
0.4188043049
0.4216479421
0.4254644452
0.4272656344
0.4376677276
0.4160478059
0.4181830356
0.4169339864
0.4176795558
0.4260613207
0.4149946848
0.4149866649
0.4156261351
0.4207170302
0.4233668962
0.4143808985
0.4150589642
0.4187719506
0.423085018
0.4210387354
0.41643956
0.4142545702
0.4158710007
0.4150125714
0.4163254426
0.4205781456
0.4209851358
0.4205471841
0.4212650704
0.4196387809
0.4160521653
0.414499405
0.416965228
0.4181085995
0.4179228649
0.4149112418
0.4146005478
0.41604804
0.4177797052
0.419198597
0.4233420258
0.4332674345
0.4550603103
0.5239393835
0.9181634166
0.4238852533
0.4361728098
0.4619066482
0.5425436908
0.7515179225
0.4210855074
0.4358280365
0.4674836087
0.5326527156
0.6112875444
0.4234079105
0.4349191527
0.4609360674
0.4909095231
0.542329367
0.4199291959
0.4346539083
0.4498329524
0.4662999602
0.4955078884
0.4221516528
0.4284333192
0.4293023
0.4510388925
0.4722930069
0.4157838682
0.4224513647
0.4280070514
0.4431000159
0.4659417482
0.4178942838
0.4216220057
0.4260370082
0.4315267715
0.4502524976
0.4191137229
0.421725865
0.4274572719
0.4372838056
0.4370714486
0.4163656824
0.4205671761
0.4238668612
0.4291326461
0.4323950165
0.4147963953
0.415450447
0.4245942301
0.4256804086
0.4282866907
0.4143353954
0.4191735701
0.4190336489
0.421663954
0.4241707222
0.4151526205
0.4141849837
0.4168421109
0.4171809914
0.4172224817
0.413980619
0.4140138922
0.4170903464
0.4186102498
0.4236315245
0.4157226287
0.4154962779
0.4170070126
0.4165398171
0.4204362851
0.4174150798
0.4167873093
0.4157148366
0.4195436687
0.4198610222
0.4146873924
0.4162422126
0.4188482254
0.4200482589
0.4209751251
0.4151064396
0.4168709282
0.4184085251
0.4169395902
0.4185930762
5.265514549
5.838583079
5.812564092
5.515290236
5.176493983
4.883962086
4.533669639
4.316469031
4.106610355
3.969033983
3.860345485
3.746311383
3.613920138
3.51130681
3.387710749
3.292328044
3.146009306
3.033871435
2.894762774
2.727277993
2.589857382
2.396560904
2.156255576
1.877319501
1.393938494
4.275646478
5.194943376
5.600618212
5.650340237
5.554749634
5.353984061
5.047490541
4.766383454
4.59481001
4.355226095
4.194040674
4.007323601
3.849179471
3.720925329
3.577206372
3.449441609
3.29217938
3.156083557
3.019989277
2.840988864
2.671307789
2.487879245
2.24786816
1.927314378
1.466809953
3.703411828
4.52528698
5.049447056
5.288762653
5.332438439
5.229909987
5.161262172
4.952003478
4.75419204
4.539342529
4.342432382
4.221160843
4.090235213
3.881054225
3.771235581
3.64627414
3.45347308
3.263663043
3.129825655
2.979238814
2.791603397
2.590343123
2.350447673
2.035355736
1.578239833
3.347540608
4.094482036
4.579489073
4.845534455
4.979237369
5.023406177
5.011766799
4.899069253
4.841600018
4.655772134
4.487020854
4.333606974
4.18395077
4.040264049
3.868488696
3.738073846
3.565213325
3.387339939
3.240627965
3.070511839
2.880277293
2.696320343
2.463233411
2.146450024
1.70074328
3.16244011
3.76669964
4.241374471
4.51879646
4.672805229
4.764565994
4.824100375
4.794585794
4.731843986
4.646224751
4.480466134
4.402936957
4.267492384
4.100509521
3.939181409
3.795570598
3.58066313
3.499262885
3.349311141
3.168475953
2.968336644
2.779172928
2.538044612
2.237067012
1.787357774
2.951566808
3.576298279
3.975611108
4.232289529
4.385004882
4.534806285
4.582762762
4.622980912
4.606936576
4.530879029
4.425040679
4.355875782
4.27724094
4.118938326
3.974616389
3.829026666
3.671478359
3.525934513
3.420925792
3.230346437
3.049443335
2.84202176
2.616034498
2.340138098
1.882507448
2.833052431
3.351159192
3.766795744
3.971248495
4.137484451
4.246095782
4.379072656
4.375081353
4.418660589
4.401481109
4.350353814
4.221413988
4.148336171
4.088283474
3.947585807
3.824614277
3.682567436
3.544883182
3.44092714
3.266103437
3.064543391
2.907281675
2.652717511
2.422938963
2.009172354
2.772682094
3.338315518
3.614681474
3.807771275
3.99722734
4.1015072
4.188573249
4.236887194
4.237783798
4.209806523
4.17353309
4.138586608
4.042477347
4.021274911
3.868349658
3.817610736
3.693282563
3.568615893
3.415559482
3.270410888
3.109887624
2.926969093
2.715424579
2.456368717
2.017494006
2.755506172
3.238511193
3.510191028
3.644675649
3.794981891
3.905370967
3.967482044
4.034232544
4.003516655
4.038796326
4.017711236
3.978738457
3.940465616
3.909508589
3.814313478
3.750643951
3.64076466
3.531226167
3.408833949
3.274954746
3.134973855
2.962171589
2.738779391
2.516380056
2.059716772
2.668635289
3.135518024
3.404576428
3.597896126
3.671043635
3.757204281
3.813007988
3.847267967
3.894028846
3.885650502
3.88919148
3.879292177
3.850277242
3.774948382
3.712775535
3.601765991
3.509605677
3.446134612
3.324963268
3.241274519
3.068565797
2.912467693
2.734149876
2.515946305
2.068010474
2.601650488
3.109516674
3.340222086
3.518525718
3.583801186
3.649842903
3.704810197
3.706817051
3.727811553
3.691779879
3.680831669
3.684566677
3.675027739
3.644856184
3.569678712
3.465009883
3.408088986
3.339941944
3.261835852
3.138417464
3.017357264
2.841451242
2.684505915
2.495831861
2.040392735
2.616767553
3.042195603
3.289073452
3.431998144
3.478874102
3.479091219
3.539099658
3.553660173
3.536317098
3.593977967
3.538903021
3.551395394
3.521144352
3.482360814
3.414984588
3.358948465
3.27574792
3.221730343
3.134266589
3.040408235
2.942460123
2.827664409
2.633610838
2.445594078
2.002379491
2.548667376
3.031989887
3.274356076
3.307390084
3.339480329
3.374777152
3.434681502
3.479768416
3.415216541
3.424826214
3.367286844
3.324383437
3.33509567
3.316945873
3.232528333
3.188385382
3.127862311
3.105041986
3.033769344
2.960533558
2.853407025
2.729028382
2.596596646
2.398690459
1.973721648
2.527833151
2.945893113
3.200002721
3.254816647
3.33157617
3.360088438
3.281642396
3.285028155
3.257610877
3.23668845
3.209759082
3.146349891
3.111250735
3.100693573
3.07337113
3.005954798
3.001368963
2.969840481
2.877717273
2.844726661
2.774193553
2.671760408
2.529169914
2.360271224
1.944664298
2.477161308
2.902677903
3.085045691
3.173538543
3.179141806
3.239828037
3.147005624
3.127718282
3.104848726
3.040177004
3.013974903
2.963119456
3.014264511
2.95958936
2.936066311
2.929873782
2.893578964
2.844228922
2.758758971
2.756676
2.644773299
2.583428101
2.464456141
2.304068893
1.894003249
2.44013638
2.805817518
2.971803597
3.027283363
3.090741307
3.052963031
3.000060181
2.981630197
2.957409
2.904373265
2.882029929
2.886504594
2.858098102
2.834807379
2.813756025
2.788435778
2.749621096
2.71625651
2.692610152
2.66117824
2.631483143
2.519239999
2.41771935
2.269130944
1.928921484
2.331245301
2.687241486
2.813981804
2.829313236
2.843048542
2.83523405
2.786050995
2.767897644
2.743118199
2.706985442
2.715732407
2.728714223
2.702332251
2.713464454
2.694333996
2.698608424
2.674913462
2.647571137
2.687573174
2.625047108
2.598934717
2.5578221
2.453187356
2.317882614
1.91130837
1.957694138
2.241281267
2.319391803
2.400129532
2.412995311
2.459699532
2.430833052
2.475707777
2.493701613
2.50794487
2.49371454
2.5694068
2.59601365
2.62064215
2.663554588
2.60879252
2.670777743
2.684338017
2.718578299
2.713235698
2.644353182
2.652929202
2.600871286
2.480694793
2.12876124
4.253994423
5.175782675
5.542076153
5.643200741
5.48699635
5.281024666
5.033060981
4.793396237
4.56970551
4.369360033
4.2108786
4.061251333
3.893344014
3.714608215
3.599516922
3.435057925
3.2882195
3.146490326
3.008469952
2.849905596
2.667987935
2.485766167
2.231487527
1.934192288
1.462456346
3.220993089
4.216342897
4.852694484
5.251985668
5.399643814
5.414988333
5.296407103
5.105197472
4.887209515
4.718647318
4.506323277
4.315143176
4.114121509
3.942453456
3.822624025
3.628567693
3.439803731
3.301654317
3.13521428
2.978380239
2.791367766
2.530806227
2.277913557
1.941934212
1.453498654
2.641531144
3.449201651
4.180475657
4.66566845
4.930235769
5.073751265
5.121667334
5.10252538
4.950895976
4.802253265
4.607106768
4.4607949
4.267491953
4.09702619
3.960601731
3.772833635
3.627118671
3.445657355
3.244255296
3.081984964
2.852705986
2.612916741
2.335486363
2.001223973
1.536127201
2.325774416
3.037841598
3.702268703
4.133867122
4.45876073
4.726154251
4.808361446
4.886453463
4.842196632
4.76501269
4.679828984
4.546564412
4.400709658
4.21744394
4.055021145
3.923397407
3.727870462
3.522546356
3.346563905
3.178022824
2.975097248
2.753777817
2.452777077
2.105976104
1.667512366
2.063829475
2.75914281
3.357744265
3.750542458
4.109900726
4.35729984
4.586176215
4.67201383
4.691787459
4.689262675
4.595825885
4.54832579
4.393770942
4.263849658
4.0926199
3.965520531
3.777116206
3.608339163
3.447545512
3.247768242
3.074222467
2.807133579
2.558375327
2.215885394
1.780571026
1.943651012
2.53477973
3.04671112
3.451608858
3.815691094
4.087699933
4.254459609
4.420192381
4.493082733
4.562448768
4.494167398
4.455567375
4.327428367
4.238051051
4.108053242
3.959650905
3.811318108
3.664566924
3.476638143
3.278821153
3.087629231
2.895298323
2.648079928
2.278888551
1.813313801
1.84144353
2.411650165
2.847672505
3.240367983
3.520515066
3.82260519
4.019931054
4.218455789
4.300078882
4.351015255
4.338823381
4.293647181
4.272270706
4.184988893
4.076707339
3.921156922
3.789698094
3.666594228
3.510515252
3.310227102
3.152590323
2.936023054
2.68319182
2.3759663
1.894326811
1.773549324
2.308010508
2.689425223
3.06980708
3.340367864
3.565451849
3.846904913
3.992331215
4.057922378
4.141762439
4.187529486
4.200450774
4.15472323
4.068572674
3.985011445
3.910228812
3.784822411
3.662758875
3.509004143
3.357642232
3.172297255
2.972906005
2.714264591
2.401021996
1.939047154
1.722770715
2.197002041
2.552955921
2.882347768
3.160508613
3.397387238
3.63010249
3.789200838
3.904541856
3.993360933
4.036985482
4.03763633
4.034131241
3.947829135
3.900010417
3.8072415
3.717898113
3.604525449
3.467613693
3.339524318
3.156233007
2.96333706
2.727003318
2.431415873
1.948698917
1.645406525
2.139734437
2.446839584
2.808442158
3.023132044
3.261756297
3.415546358
3.573833258
3.681553614
3.740583284
3.815843287
3.845011662
3.839975658
3.809397407
3.801898351
3.690379651
3.621561834
3.523694104
3.369753681
3.262486569
3.123695005
2.95990945
2.731282263
2.419010982
1.957384612
1.628396353