/*--------------------------------*- C++ -*----------------------------------*\
| =========                 |                                                 |
| \\      /  F ield         | OpenFOAM: The Open Source CFD Toolbox           |
|  \\    /   O peration     | Version:  v1706                                 |
|   \\  /    A nd           | Web:      www.OpenFOAM.com                      |
|    \\/     M anipulation  |                                                 |
\*---------------------------------------------------------------------------*/
FoamFile
{
    version     2.0;
    format      ascii;
    class       volScalarField;
    location    "0.003";
    object      rhoM_Ar;
}
// * * * * * * * * * * * * * * * * * * * * * * * * * * * * * * * * * * * * * //

dimensions      [1 -3 0 0 0 0 0];


internalField   nonuniform List<scalar> 
9720
(
6.67060212e-06
6.71648172e-06
6.7786446e-06
6.99496824e-06
7.93701168e-06
6.65821728e-06
6.70083492e-06
6.79519308e-06
7.04267772e-06
7.767708e-06
6.6642108e-06
6.70831356e-06
6.78180048e-06
6.9849702e-06
7.53918516e-06
6.6561222e-06
6.69985368e-06
6.77495832e-06
6.93386616e-06
7.41507156e-06
6.65243592e-06
6.70804836e-06
6.77296932e-06
6.94110612e-06
7.35670104e-06
6.65469012e-06
6.67648956e-06
6.75745512e-06
6.8662932e-06
7.26032736e-06
6.63538356e-06
6.637293e-06
6.66869268e-06
6.78291432e-06
7.188246e-06
6.64522248e-06
6.68402124e-06
6.70338084e-06
6.7958826e-06
7.17623244e-06
6.6477684e-06
6.65895984e-06
6.71054124e-06
6.8038386e-06
7.11629724e-06
6.65315196e-06
6.66304392e-06
6.69049212e-06
6.77535612e-06
7.10889816e-06
6.645912e-06
6.670443e-06
6.67686084e-06
6.77023776e-06
7.09738848e-06
6.62183184e-06
6.62055888e-06
6.66330912e-06
6.73446228e-06
7.06734132e-06
6.64707888e-06
6.65726256e-06
6.700278e-06
6.76151268e-06
7.08747e-06
6.65795208e-06
6.67784208e-06
6.70932132e-06
6.77212068e-06
7.06673136e-06
6.63177684e-06
6.63100776e-06
6.62957568e-06
6.70072884e-06
7.03633944e-06
6.62817012e-06
6.63999804e-06
6.67656912e-06
6.76119444e-06
7.08301464e-06
6.63562224e-06
6.63986544e-06
6.6807858e-06
6.7120794e-06
6.958848e-06
6.62207052e-06
6.64360476e-06
6.64845792e-06
6.65535312e-06
6.82807788e-06
6.6679236e-06
6.69558396e-06
6.80455464e-06
7.05363048e-06
7.81608048e-06
6.66874572e-06
6.7047864e-06
6.79458312e-06
7.04593968e-06
7.58861844e-06
6.67351932e-06
6.69526572e-06
6.78190656e-06
6.97958664e-06
7.44604692e-06
6.64731756e-06
6.70873788e-06
6.81410184e-06
6.94537584e-06
7.33943652e-06
6.68168748e-06
6.67519008e-06
6.7476162e-06
6.86852088e-06
7.23590244e-06
6.65179944e-06
6.69356844e-06
6.7537158e-06
6.85549956e-06
7.13486124e-06
6.66731364e-06
6.69433752e-06
6.7297152e-06
6.82993428e-06
7.11308832e-06
6.64249092e-06
6.6715038e-06
6.7099578e-06
6.79288584e-06
7.0511376e-06
6.6562548e-06
6.67147728e-06
6.6814488e-06
6.79437096e-06
7.05795324e-06
6.64368432e-06
6.6719016e-06
6.734754e-06
6.79421184e-06
7.02692484e-06
6.65800512e-06
6.66325608e-06
6.70786272e-06
6.8145792e-06
7.01655552e-06
6.66307044e-06
6.68134272e-06
6.69677736e-06
6.79089684e-06
6.98199996e-06
6.64084668e-06
6.6699126e-06
6.7293174e-06
6.7976064e-06
7.02106392e-06
6.63548964e-06
6.65368236e-06
6.660498e-06
6.75748164e-06
6.98056788e-06
6.65410668e-06
6.67688736e-06
6.72552504e-06
6.78877524e-06
7.01369136e-06
6.64718496e-06
6.6933828e-06
6.70409688e-06
6.80028492e-06
6.9768816e-06
6.62936352e-06
6.653205e-06
6.66813576e-06
6.72093708e-06
6.91790112e-06
6.64023672e-06
6.63429624e-06
6.63379236e-06
6.67062864e-06
6.804369e-06
6.660498e-06
6.69107556e-06
6.78193308e-06
6.98303424e-06
7.61373288e-06
6.63978588e-06
6.70340736e-06
6.78413424e-06
6.97160412e-06
7.4393904e-06
6.65662608e-06
6.7120794e-06
6.76530504e-06
6.91864368e-06
7.23155316e-06
6.65906592e-06
6.67359888e-06
6.78251652e-06
6.93251364e-06
7.19270136e-06
6.65630784e-06
6.71059428e-06
6.74347908e-06
6.85162764e-06
7.07972616e-06
6.659835e-06
6.70022496e-06
6.73905024e-06
6.8247894e-06
7.05188016e-06
6.63533052e-06
6.66256656e-06
6.71263632e-06
6.82158048e-06
7.01663508e-06
6.64262352e-06
6.65156076e-06
6.70741188e-06
6.7995954e-06
6.95046768e-06
6.64503684e-06
6.68654064e-06
6.7313064e-06
6.80641104e-06
6.94747092e-06
6.63456144e-06
6.6327846e-06
6.65394756e-06
6.73881156e-06
6.88175436e-06
6.63029172e-06
6.65408016e-06
6.69738732e-06
6.76310388e-06
6.89753376e-06
6.6358344e-06
6.64190748e-06
6.68778708e-06
6.7437708e-06
6.9002388e-06
6.64084668e-06
6.63819468e-06
6.69367452e-06
6.76079664e-06
6.88973688e-06
6.63525096e-06
6.6414036e-06
6.67556136e-06
6.70820748e-06
6.82476288e-06
6.63973284e-06
6.64893528e-06
6.63970632e-06
6.6941784e-06
6.77986452e-06
6.62506728e-06
6.63281112e-06
6.67991064e-06
6.6988194e-06
6.80500548e-06
6.64580592e-06
6.64721148e-06
6.69266676e-06
6.73666344e-06
6.82473636e-06
6.61724388e-06
6.62899224e-06
6.66829488e-06
6.7120794e-06
6.74833224e-06
6.65044692e-06
6.69712212e-06
6.76586196e-06
6.97123284e-06
7.4876568e-06
6.66203616e-06
6.70457424e-06
6.7643238e-06
6.9291456e-06
7.30991976e-06
6.6427296e-06
6.66410472e-06
6.73798944e-06
6.89013468e-06
7.14817428e-06
6.65914548e-06
6.69791772e-06
6.79275324e-06
6.89872716e-06
7.09036068e-06
6.63289068e-06
6.66840096e-06
6.70767708e-06
6.80298996e-06
7.02061308e-06
6.63111384e-06
6.67253808e-06
6.73777728e-06
6.84173568e-06
6.94100004e-06
6.65848248e-06
6.69147336e-06
6.7282566e-06
6.74342604e-06
6.87138504e-06
6.64540812e-06
6.66444948e-06
6.6847638e-06
6.73056384e-06
6.82356948e-06
6.655194e-06
6.67227288e-06
6.70759752e-06
6.8002584e-06
6.88427376e-06
6.63936156e-06
6.66471468e-06
6.69518616e-06
6.75284064e-06
6.86966124e-06
6.65869464e-06
6.68892744e-06
6.72870744e-06
6.75029472e-06
6.8099382e-06
6.6367626e-06
6.64267656e-06
6.67073472e-06
6.70560852e-06
6.81691296e-06
6.64225224e-06
6.66450252e-06
6.6898026e-06
6.742047e-06
6.81664776e-06
6.63005304e-06
6.63334152e-06
6.647238e-06
6.68518812e-06
6.77355276e-06
6.6274806e-06
6.65614872e-06
6.70818096e-06
6.76944216e-06
6.80871828e-06
6.63466752e-06
6.62252136e-06
6.61533444e-06
6.66126708e-06
6.74321388e-06
6.65235636e-06
6.67115904e-06
6.67224636e-06
6.71794032e-06
6.7465554e-06
6.64023672e-06
6.6250938e-06
6.6188616e-06
6.62740104e-06
6.6866202e-06
6.6696474e-06
6.69903156e-06
6.77315496e-06
6.88872912e-06
7.36017516e-06
6.64848444e-06
6.67728516e-06
6.75323844e-06
6.8893656e-06
7.2278934e-06
6.63819468e-06
6.66094884e-06
6.70104708e-06
6.83993232e-06
7.06100304e-06
6.6506856e-06
6.69513312e-06
6.75170028e-06
6.81025644e-06
6.95608992e-06
6.64593852e-06
6.67625088e-06
6.73642476e-06
6.80314908e-06
6.93354792e-06
6.66272568e-06
6.67359888e-06
6.71828508e-06
6.81399576e-06
6.92150784e-06
6.64548768e-06
6.64400256e-06
6.6728298e-06
6.7474836e-06
6.8566134e-06
6.64615068e-06
6.67884984e-06
6.69569004e-06
6.74666148e-06
6.82258824e-06
6.64694628e-06
6.64522248e-06
6.6721668e-06
6.70462728e-06
6.7832856e-06
6.63750516e-06
6.65482272e-06
6.6632826e-06
6.74180832e-06
6.77954628e-06
6.64058148e-06
6.66665064e-06
6.68227092e-06
6.71868288e-06
6.76639236e-06
6.63546312e-06
6.65020824e-06
6.66471468e-06
6.70271784e-06
6.75111684e-06
6.64593852e-06
6.64413516e-06
6.63647088e-06
6.67099992e-06
6.71253024e-06
6.63495924e-06
6.6390168e-06
6.63708084e-06
6.66853356e-06
6.73602696e-06
6.6476358e-06
6.65856204e-06
6.671769e-06
6.69303804e-06
6.73348104e-06
6.65007564e-06
6.6953718e-06
6.71878896e-06
6.73478052e-06
6.77795508e-06
6.62989392e-06
6.64026324e-06
6.65991456e-06
6.66041844e-06
6.71160204e-06
6.62915136e-06
6.63018564e-06
6.64450644e-06
6.65978196e-06
6.64249092e-06
6.64904136e-06
6.693648e-06
6.74886264e-06
6.87565476e-06
7.285707e-06
6.65442492e-06
6.68730972e-06
6.75626172e-06
6.91869672e-06
7.22014956e-06
6.64718496e-06
6.65697084e-06
6.74422164e-06
6.8473314e-06
7.03530516e-06
6.639945e-06
6.69486792e-06
6.72873396e-06
6.82025448e-06
6.97367268e-06
6.6447186e-06
6.65291328e-06
6.70645716e-06
6.78225132e-06
6.87520392e-06
6.65418624e-06
6.67914156e-06
6.71205288e-06
6.75024168e-06
6.85579128e-06
6.64018368e-06
6.64771536e-06
6.6811836e-06
6.72793836e-06
6.78612324e-06
6.63838032e-06
6.63161772e-06
6.64943916e-06
6.70926828e-06
6.79195764e-06
6.62313132e-06
6.62944308e-06
6.63612612e-06
6.6640782e-06
6.7053168e-06
6.62620764e-06
6.6484314e-06
6.67755036e-06
6.70216092e-06
6.77023776e-06
6.63602004e-06
6.62321088e-06
6.62493468e-06
6.67643652e-06
6.6998802e-06
6.6534702e-06
6.68744232e-06
6.71626956e-06
6.73613304e-06
6.76257348e-06
6.65047344e-06
6.67808076e-06
6.70324824e-06
6.7343562e-06
6.78066012e-06
6.64954524e-06
6.6530724e-06
6.65381496e-06
6.67898244e-06
6.7224222e-06
6.62278656e-06
6.62750712e-06
6.65132208e-06
6.65895984e-06
6.6807858e-06
6.6136902e-06
6.61292112e-06
6.6311934e-06
6.64941264e-06
6.69990672e-06
6.65349672e-06
6.66614676e-06
6.6700452e-06
6.68221788e-06
6.69274632e-06
6.62610156e-06
6.62063844e-06
6.61140948e-06
6.64108536e-06
6.681051e-06
6.62917788e-06
6.65156076e-06
6.68298696e-06
6.80633148e-06
7.22545356e-06
6.64702584e-06
6.67426188e-06
6.7428426e-06
6.82847568e-06
7.08887556e-06
6.67511052e-06
6.7061124e-06
6.724809e-06
6.80367948e-06
7.0146726e-06
6.63827424e-06
6.651216e-06
6.68455164e-06
6.78649452e-06
6.91108548e-06
6.64397604e-06
6.68704452e-06
6.74326692e-06
6.75684516e-06
6.83860632e-06
6.64463904e-06
6.66495336e-06
6.71133684e-06
6.7510638e-06
6.83202936e-06
6.64177488e-06
6.67670172e-06
6.6953718e-06
6.69852768e-06
6.75944412e-06
6.63737256e-06
6.64249092e-06
6.67214028e-06
6.69269328e-06
6.71271588e-06
6.64487772e-06
6.67253808e-06
6.66333564e-06
6.72178572e-06
6.74737752e-06
6.65270112e-06
6.68619588e-06
6.71892156e-06
6.72769968e-06
6.73478052e-06
6.62053236e-06
6.6228396e-06
6.63312936e-06
6.65389452e-06
6.704919e-06
6.65378844e-06
6.65309892e-06
6.67280328e-06
6.6709734e-06
6.70868484e-06
6.63541008e-06
6.62936352e-06
6.6526746e-06
6.6805206e-06
6.69632652e-06
6.62591592e-06
6.6541332e-06
6.68060016e-06
6.69950892e-06
6.6984216e-06
6.61811904e-06
6.6221766e-06
6.63355368e-06
6.67386408e-06
6.71093904e-06
6.6400776e-06
6.65978196e-06
6.661824e-06
6.6502878e-06
6.6643434e-06
6.62984088e-06
6.62798448e-06
6.61517532e-06
6.62037324e-06
6.66495336e-06
6.62543856e-06
6.63222768e-06
6.66052452e-06
6.66466164e-06
6.66415776e-06
6.67184856e-06
6.70510464e-06
6.73478052e-06
6.8365908e-06
7.2350538e-06
6.63373932e-06
6.64143012e-06
6.6826422e-06
6.81717816e-06
7.10942856e-06
6.64217268e-06
6.66179748e-06
6.70738536e-06
6.80230044e-06
6.9470466e-06
6.63509184e-06
6.65776644e-06
6.70086144e-06
6.7470858e-06
6.87629124e-06
6.6331824e-06
6.65145468e-06
6.69041256e-06
6.75594348e-06
6.83449572e-06
6.64124448e-06
6.65145468e-06
6.66641196e-06
6.69950892e-06
6.76238784e-06
6.62941656e-06
6.65972892e-06
6.688344e-06
6.71796684e-06
6.77355276e-06
6.64440036e-06
6.64071408e-06
6.64026324e-06
6.6740232e-06
6.70579416e-06
6.64150968e-06
6.65734212e-06
6.67367844e-06
6.67837248e-06
6.67739124e-06
6.6288066e-06
6.63551616e-06
6.63485316e-06
6.6520116e-06
6.6829074e-06
6.62989392e-06
6.63220116e-06
6.63416364e-06
6.65158728e-06
6.66614676e-06
6.64424124e-06
6.66667716e-06
6.70335432e-06
6.71123076e-06
6.68534724e-06
6.63819468e-06
6.63896376e-06
6.6418014e-06
6.67725864e-06
6.69401928e-06
6.62671152e-06
6.62281308e-06
6.6199224e-06
6.63143208e-06
6.6601002e-06
6.63766428e-06
6.64501032e-06
6.64508988e-06
6.6440556e-06
6.66702192e-06
6.64217268e-06
6.66882528e-06
6.66224832e-06
6.66863964e-06
6.67460664e-06
6.620718e-06
6.62432472e-06
6.6358344e-06
6.6376908e-06
6.64522248e-06
6.63469404e-06
6.6371604e-06
6.62944308e-06
6.65262156e-06
6.6447186e-06
6.63965328e-06
6.65405364e-06
6.71494356e-06
6.82391424e-06
7.15742976e-06
6.65819076e-06
6.6848964e-06
6.72618804e-06
6.819618e-06
7.06309812e-06
6.62154012e-06
6.64013064e-06
6.66360084e-06
6.72992736e-06
6.92962296e-06
6.67306848e-06
6.70361952e-06
6.69844812e-06
6.7454946e-06
6.85815156e-06
6.64787448e-06
6.63787644e-06
6.66071016e-06
6.70762404e-06
6.78617628e-06
6.63068952e-06
6.650553e-06
6.66848052e-06
6.71794032e-06
6.76427076e-06
6.63511836e-06
6.64689324e-06
6.67211376e-06
6.69539832e-06
6.73321584e-06
6.64715844e-06
6.66731364e-06
6.6695148e-06
6.69473532e-06
6.75485616e-06
6.6408732e-06
6.66094884e-06
6.6753492e-06
6.66747276e-06
6.67717908e-06
6.64437384e-06
6.63639132e-06
6.65474316e-06
6.66985956e-06
6.71740992e-06
6.6400776e-06
6.62885964e-06
6.63864552e-06
6.66429036e-06
6.6602328e-06
6.61875552e-06
6.62846184e-06
6.62185836e-06
6.6557244e-06
6.6726972e-06
6.64718496e-06
6.6296022e-06
6.62798448e-06
6.65500836e-06
6.70616544e-06
6.6423318e-06
6.65986152e-06
6.66967392e-06
6.66625284e-06
6.6799902e-06
6.6257568e-06
6.62819664e-06
6.64901484e-06
6.63495924e-06
6.65100384e-06
6.62976132e-06
6.64076712e-06
6.65142816e-06
6.67155684e-06
6.6924546e-06
6.6408732e-06
6.64095276e-06
6.62944308e-06
6.6464424e-06
6.65087124e-06
6.6347736e-06
6.63267852e-06
6.63551616e-06
6.62618112e-06
6.62634024e-06
6.65020824e-06
6.674421e-06
6.7034604e-06
6.78957084e-06
7.12040784e-06
6.6407406e-06
6.63930852e-06
6.67723212e-06
6.76933608e-06
7.03228188e-06
6.64620372e-06
6.67646304e-06
6.73268544e-06
6.80540328e-06
6.94842564e-06
6.63771732e-06
6.68508204e-06
6.72252828e-06
6.76832832e-06
6.84924084e-06
6.62570376e-06
6.64376388e-06
6.66980652e-06
6.70820748e-06
6.77220024e-06
6.6363648e-06
6.64808664e-06
6.66715452e-06
6.70881744e-06
6.7378038e-06
6.63196248e-06
6.6314586e-06
6.65803164e-06
6.65564484e-06
6.70513116e-06
6.65238288e-06
6.64768884e-06
6.68845008e-06
6.70216092e-06
6.72276696e-06
6.65365584e-06
6.6549288e-06
6.65471664e-06
6.69075732e-06
6.70579416e-06
6.61963068e-06
6.6421992e-06
6.63535704e-06
6.64734408e-06
6.637293e-06
6.6394146e-06
6.6449838e-06
6.62944308e-06
6.62405952e-06
6.63936156e-06
6.63771732e-06
6.64426776e-06
6.65606916e-06
6.66490032e-06
6.64185444e-06
6.62835576e-06
6.64569984e-06
6.67916808e-06
6.6858246e-06
6.71292804e-06
6.63538356e-06
6.63095472e-06
6.64440036e-06
6.66336216e-06
6.6522768e-06
6.6204528e-06
6.6062646e-06
6.59053824e-06
6.60151752e-06
6.6301326e-06
6.64249092e-06
6.64501032e-06
6.64076712e-06
6.6416688e-06
6.64177488e-06
6.6504204e-06
6.65699736e-06
6.64599156e-06
6.65702388e-06
6.65922504e-06
6.61459188e-06
6.58714368e-06
6.60104016e-06
6.59544444e-06
6.5969826e-06
6.64601808e-06
6.64569984e-06
6.677736e-06
6.78760836e-06
7.10277204e-06
6.64954524e-06
6.6831726e-06
6.73127988e-06
6.8042364e-06
7.04962596e-06
6.63670956e-06
6.66956784e-06
6.6867528e-06
6.7490748e-06
6.89066508e-06
6.64185444e-06
6.6444534e-06
6.65023476e-06
6.69319716e-06
6.79113552e-06
6.63827424e-06
6.6204528e-06
6.64861704e-06
6.7118142e-06
6.7883244e-06
6.65633436e-06
6.6680562e-06
6.67850508e-06
6.7020018e-06
6.77389752e-06
6.63116688e-06
6.6350388e-06
6.66272568e-06
6.69242808e-06
6.7240134e-06
6.64397604e-06
6.64567332e-06
6.64867008e-06
6.67426188e-06
6.66702192e-06
6.63938808e-06
6.64196052e-06
6.63883116e-06
6.6380886e-06
6.66882528e-06
6.63363324e-06
6.65813772e-06
6.6794598e-06
6.69237504e-06
6.7225548e-06
6.63869856e-06
6.63869856e-06
6.6402102e-06
6.62997348e-06
6.64055496e-06
6.65124252e-06
6.65126904e-06
6.62246832e-06
6.60196836e-06
6.618066e-06
6.64599156e-06
6.6391494e-06
6.6351714e-06
6.63991848e-06
6.63342108e-06
6.62726844e-06
6.63273156e-06
6.64105884e-06
6.6593046e-06
6.67609176e-06
6.61087908e-06
6.63405756e-06
6.64169532e-06
6.63034476e-06
6.62010804e-06
6.64326e-06
6.63379236e-06
6.65087124e-06
6.64848444e-06
6.65842944e-06
6.61392888e-06
6.61310676e-06
6.61058736e-06
6.61642176e-06
6.66450252e-06
6.64198704e-06
6.65079168e-06
6.67237896e-06
6.66903744e-06
6.6562548e-06
6.6493596e-06
6.67529616e-06
6.69452316e-06
6.74597196e-06
7.07609292e-06
6.62838228e-06
6.66556332e-06
6.69627348e-06
6.78599064e-06
6.9914676e-06
6.65047344e-06
6.65381496e-06
6.69030648e-06
6.78180048e-06
6.89809068e-06
6.62440428e-06
6.6347736e-06
6.64835184e-06
6.67357236e-06
6.73085556e-06
6.6329172e-06
6.65262156e-06
6.66200964e-06
6.7037256e-06
6.76994604e-06
6.6388842e-06
6.64482468e-06
6.63917592e-06
6.65941068e-06
6.68829096e-06
6.6408732e-06
6.65378844e-06
6.68046756e-06
6.71600436e-06
6.74316084e-06
6.63607308e-06
6.6501552e-06
6.68982912e-06
6.68762796e-06
6.71001084e-06
6.62122188e-06
6.59520576e-06
6.59650524e-06
6.61231116e-06
6.63286416e-06
6.637293e-06
6.63116688e-06
6.63541008e-06
6.66315e-06
6.6700452e-06
6.645249e-06
6.63419016e-06
6.66532464e-06
6.70086144e-06
6.68752188e-06
6.62337e-06
6.62612808e-06
6.64625676e-06
6.62875356e-06
6.61986936e-06
6.6231048e-06
6.6239004e-06
6.64143012e-06
6.65962284e-06
6.67609176e-06
6.63514488e-06
6.65389452e-06
6.641934e-06
6.6464424e-06
6.66548376e-06
6.63095472e-06
6.62631372e-06
6.63177684e-06
6.64588548e-06
6.63575484e-06
6.6415362e-06
6.63957372e-06
6.66121404e-06
6.63997152e-06
6.6695148e-06
6.61891464e-06
6.6248286e-06
6.63670956e-06
6.65126904e-06
6.6151488e-06
6.63029172e-06
6.62631372e-06
6.6244308e-06
6.61520184e-06
6.6058668e-06
6.62013456e-06
6.63421668e-06
6.684366e-06
6.77164332e-06
7.12902684e-06
6.64341912e-06
6.62758668e-06
6.63983892e-06
6.73735296e-06
6.98706528e-06
6.65073864e-06
6.69115512e-06
6.73629216e-06
6.80402424e-06
6.93169152e-06
6.65331108e-06
6.66596112e-06
6.71303412e-06
6.74605152e-06
6.83728032e-06
6.6375582e-06
6.66017976e-06
6.67794816e-06
6.71467836e-06
6.77755728e-06
6.62554464e-06
6.64349868e-06
6.66163836e-06
6.68712408e-06
6.71690604e-06
6.651216e-06
6.64071408e-06
6.62936352e-06
6.65681172e-06
6.68150184e-06
6.6302652e-06
6.62008152e-06
6.61811904e-06
6.62824968e-06
6.6583764e-06
6.64265004e-06
6.65309892e-06
6.69208332e-06
6.68707104e-06
6.68004324e-06
6.63156468e-06
6.65941068e-06
6.68099796e-06
6.69327672e-06
6.69147336e-06
6.630663e-06
6.63551616e-06
6.63201552e-06
6.6099774e-06
6.61337196e-06
6.61159512e-06
6.59886552e-06
6.60676848e-06
6.628674e-06
6.62676456e-06
6.64845792e-06
6.63031824e-06
6.6139554e-06
6.6219114e-06
6.65652e-06
6.62114232e-06
6.61835772e-06
6.64225224e-06
6.6362322e-06
6.626685e-06
6.64108536e-06
6.65975544e-06
6.6647412e-06
6.67630392e-06
6.65418624e-06
6.63334152e-06
6.63713388e-06
6.63663e-06
6.63946764e-06
6.6554592e-06
6.6270828e-06
6.64042236e-06
6.6383538e-06
6.62504076e-06
6.63143208e-06
6.6303978e-06
6.62514684e-06
6.62000196e-06
6.64623024e-06
6.6403428e-06
6.6540006e-06
6.66617328e-06
6.7030626e-06
6.76469508e-06
7.07863884e-06
6.63021216e-06
6.67192812e-06
6.68611632e-06
6.75223068e-06
6.93943536e-06
6.64455948e-06
6.64792752e-06
6.68837052e-06
6.76252044e-06
6.85854936e-06
6.6540006e-06
6.6553266e-06
6.66511248e-06
6.70791576e-06
6.7836834e-06
6.63453492e-06
6.622044e-06
6.67927416e-06
6.710886e-06
6.74477856e-06
6.64554072e-06
6.65286024e-06
6.66789708e-06
6.67731168e-06
6.69168552e-06
6.6411384e-06
6.64164228e-06
6.68243004e-06
6.6875484e-06
6.70685496e-06
6.61878204e-06
6.64556724e-06
6.65381496e-06
6.65633436e-06
6.67227288e-06
6.64257048e-06
6.66153228e-06
6.65256852e-06
6.67160988e-06
6.68455164e-06
6.6241656e-06
6.58886748e-06
6.58799232e-06
6.59003436e-06
6.61703172e-06
6.63108732e-06
6.64010412e-06
6.64336608e-06
6.6636804e-06
6.67595916e-06
6.65726256e-06
6.6955044e-06
6.6960348e-06
6.70592676e-06
6.6963e-06
6.63365976e-06
6.62154012e-06
6.6323868e-06
6.64389648e-06
6.6329172e-06
6.6244308e-06
6.64527552e-06
6.64567332e-06
6.64307436e-06
6.65487576e-06
6.6555918e-06
6.61835772e-06
6.61061388e-06
6.641934e-06
6.6335802e-06
6.6418014e-06
6.66177096e-06
6.64853748e-06
6.66657108e-06
6.67964544e-06
6.62596896e-06
6.61984284e-06
6.62291916e-06
6.60143796e-06
6.60369216e-06
6.631326e-06
6.62925744e-06
6.61565268e-06
6.61994892e-06
6.63891072e-06
6.63082212e-06
6.64877616e-06
6.67983108e-06
6.7527876e-06
7.04400372e-06
6.64238484e-06
6.63169728e-06
6.67397016e-06
6.74652888e-06
6.94720572e-06
6.63100776e-06
6.65760732e-06
6.69051864e-06
6.7435056e-06
6.87165024e-06
6.6310608e-06
6.6351714e-06
6.65118948e-06
6.66978e-06
6.74451336e-06
6.6461772e-06
6.69022692e-06
6.69834204e-06
6.71547396e-06
6.7423122e-06
6.64249092e-06
6.63493272e-06
6.62862096e-06
6.67062864e-06
6.6964326e-06
6.63302328e-06
6.61615656e-06
6.6480336e-06
6.66850704e-06
6.69216288e-06
6.64474512e-06
6.66039192e-06
6.63273156e-06
6.63522444e-06
6.61883508e-06
6.63899028e-06
6.63777036e-06
6.6534702e-06
6.65482272e-06
6.67821336e-06
6.62931048e-06
6.6476358e-06
6.65490228e-06
6.63845988e-06
6.63347412e-06
6.63753168e-06
6.60157056e-06
6.60830664e-06
6.59639916e-06
6.60979176e-06
6.63169728e-06
6.61361064e-06
6.6058668e-06
6.61172772e-06
6.63214812e-06
6.63334152e-06
6.65699736e-06
6.66402516e-06
6.65614872e-06
6.6829074e-06
6.64320696e-06
6.62246832e-06
6.61053432e-06
6.59735388e-06
6.60329436e-06
6.61536096e-06
6.61056084e-06
6.61976328e-06
6.63639132e-06
6.6541332e-06
6.64479816e-06
6.6416688e-06
6.63965328e-06
6.6360996e-06
6.62541204e-06
6.6351714e-06
6.61750908e-06
6.63015912e-06
6.64734408e-06
6.65118948e-06
6.62400648e-06
6.631989e-06
6.62445732e-06
6.63883116e-06
6.63405756e-06
6.63899028e-06
6.67078776e-06
6.68733624e-06
6.75687168e-06
7.04010528e-06
6.64105884e-06
6.64800708e-06
6.65354976e-06
6.70184268e-06
6.90652404e-06
6.63588744e-06
6.6456468e-06
6.68362344e-06
6.74777532e-06
6.83860632e-06
6.634641e-06
6.6517464e-06
6.66315e-06
6.67166292e-06
6.74448684e-06
6.63525096e-06
6.622044e-06
6.6046734e-06
6.66702192e-06
6.70072884e-06
6.61079952e-06
6.62538552e-06
6.66598764e-06
6.66734016e-06
6.71003736e-06
6.63445536e-06
6.64463904e-06
6.65286024e-06
6.65813772e-06
6.69608784e-06
6.66516552e-06
6.65076516e-06
6.63798252e-06
6.64715844e-06
6.64633632e-06
6.61801296e-06
6.637293e-06
6.6457794e-06
6.66795012e-06
6.69759948e-06
6.62395344e-06
6.6284088e-06
6.64238484e-06
6.66561636e-06
6.6619566e-06
6.65964936e-06
6.68749536e-06
6.67898244e-06
6.68075928e-06
6.69953544e-06
6.61721736e-06
6.64095276e-06
6.63912288e-06
6.64508988e-06
6.6659346e-06
6.634641e-06
6.61973676e-06
6.64161576e-06
6.6636804e-06
6.63660348e-06
6.62358216e-06
6.62554464e-06
6.6443208e-06
6.65140164e-06
6.6435252e-06
6.62466948e-06
6.6431274e-06
6.63697476e-06
6.63991848e-06
6.63957372e-06
6.6235026e-06
6.60637068e-06
6.592872e-06
6.57977112e-06
6.58581768e-06
6.61122384e-06
6.62541204e-06
6.62578332e-06
6.64251744e-06
6.61827816e-06
6.643923e-06
6.64522248e-06
6.62466948e-06
6.60647676e-06
6.60591984e-06
6.63419016e-06
6.63103428e-06
6.66041844e-06
6.71833812e-06
6.99576384e-06
6.63243984e-06
6.66861312e-06
6.663813e-06
6.7152618e-06
6.88186044e-06
6.64739712e-06
6.65962284e-06
6.67009824e-06
6.69492096e-06
6.82725576e-06
6.6284088e-06
6.62464296e-06
6.66044496e-06
6.69473532e-06
6.76464204e-06
6.6594372e-06
6.67831944e-06
6.6839682e-06
6.69847464e-06
6.71295456e-06
6.64249092e-06
6.63594048e-06
6.64288872e-06
6.63347412e-06
6.66073668e-06
6.63551616e-06
6.66572244e-06
6.68736276e-06
6.70701408e-06
6.71916024e-06
6.6241656e-06
6.62061192e-06
6.62753364e-06
6.62819664e-06
6.65657304e-06
6.64798056e-06
6.6410058e-06
6.67922112e-06
6.68659368e-06
6.7034604e-06
6.63718692e-06
6.64463904e-06
6.67240548e-06
6.6847638e-06
6.67532268e-06
6.6151488e-06
6.6078558e-06
6.615414e-06
6.6139554e-06
6.612762e-06
6.66044496e-06
6.6606306e-06
6.66773796e-06
6.6603654e-06
6.64994304e-06
6.63461448e-06
6.62949612e-06
6.62238876e-06
6.6311934e-06
6.6642108e-06
6.64519596e-06
6.65389452e-06
6.64739712e-06
6.641934e-06
6.5996346e-06
6.65628132e-06
6.6443208e-06
6.64508988e-06
6.6261546e-06
6.64546116e-06
6.59860032e-06
6.59077692e-06
6.59178468e-06
6.57685392e-06
6.56765148e-06
6.64249092e-06
6.64636284e-06
6.63562224e-06
6.6421992e-06
6.65235636e-06
6.63257244e-06
6.65132208e-06
6.68044104e-06
6.67420884e-06
6.65842944e-06
6.6083862e-06
6.61058736e-06
6.6294696e-06
6.6785316e-06
6.87790896e-06
6.6441882e-06
6.633315e-06
6.65142816e-06
6.67153032e-06
6.7530528e-06
6.6404754e-06
6.647238e-06
6.65370888e-06
6.67903548e-06
6.73417056e-06
6.62917788e-06
6.622707e-06
6.64018368e-06
6.67842552e-06
6.72491508e-06
6.64235832e-06
6.64527552e-06
6.63098124e-06
6.6463098e-06
6.67383756e-06
6.61164816e-06
6.60093408e-06
6.6212484e-06
6.65580396e-06
6.67699344e-06
6.64381692e-06
6.63806208e-06
6.63143208e-06
6.64288872e-06
6.65034084e-06
6.62878008e-06
6.61517532e-06
6.6109056e-06
6.6215136e-06
6.63986544e-06
6.64084668e-06
6.62875356e-06
6.61785384e-06
6.61201944e-06
6.59228856e-06
6.61469796e-06
6.5987064e-06
6.58868184e-06
6.6012258e-06
6.63872508e-06
6.63885768e-06
6.62729496e-06
6.60525684e-06
6.59146644e-06
6.5748384e-06
6.62530596e-06
6.63721344e-06
6.62599548e-06
6.6423318e-06
6.65450448e-06
6.63095472e-06
6.62618112e-06
6.62763972e-06
6.625359e-06
6.616077e-06
6.61910028e-06
6.62506728e-06
6.63989196e-06
6.645912e-06
6.66996564e-06
6.62981436e-06
6.655194e-06
6.66558984e-06
6.65781948e-06
6.653868e-06
6.62944308e-06
6.62862096e-06
6.63657696e-06
6.64554072e-06
6.68266872e-06
6.62732148e-06
6.63228072e-06
6.6482988e-06
6.6451164e-06
6.6480336e-06
6.6345084e-06
6.62859444e-06
6.62342304e-06
6.64145664e-06
6.64888224e-06
1.11124104e-05
1.260795276e-05
1.2991485e-05
1.328503488e-05
1.328803164e-05
1.355288688e-05
1.367336724e-05
1.354832544e-05
1.357606536e-05
1.350565476e-05
1.326975936e-05
1.326655044e-05
1.31311128e-05
1.28769186e-05
1.269594612e-05
1.2433902e-05
1.21783818e-05
1.161180852e-05
1.119658488e-05
1.068891252e-05
1.00647378e-05
9.35180064e-06
8.52270588e-06
7.43413944e-06
5.73378312e-06
9.82502352e-06
1.129921728e-05
1.204718736e-05
1.26134424e-05
1.28351496e-05
1.29206766e-05
1.296135828e-05
1.284939084e-05
1.291150068e-05
1.284954996e-05
1.270843704e-05
1.2439206e-05
1.25199594e-05
1.220339016e-05
1.212404232e-05
1.195240488e-05
1.153065732e-05
1.13144928e-05
1.082922984e-05
1.03340484e-05
9.79285476e-06
9.07548876e-06
8.30359764e-06
7.29846312e-06
5.80689876e-06
9.2928732e-06
1.033903416e-05
1.100105292e-05
1.153665084e-05
1.202621004e-05
1.223651364e-05
1.233410724e-05
1.2508821e-05
1.250892708e-05
1.242989748e-05
1.232527608e-05
1.219988952e-05
1.213960956e-05
1.187706156e-05
1.167704772e-05
1.16013066e-05
1.119472848e-05
1.09754346e-05
1.052212824e-05
1.01490714e-05
9.54303636e-06
8.88165408e-06
8.19605904e-06
7.35105228e-06
5.97718368e-06
8.90761716e-06
9.72623652e-06
1.031445012e-05
1.065167844e-05
1.114983012e-05
1.147355976e-05
1.165206588e-05
1.1791455e-05
1.19643654e-05
1.193336352e-05
1.202525532e-05
1.196494884e-05
1.182797304e-05
1.172910648e-05
1.144703976e-05
1.126060416e-05
1.094822508e-05
1.066615836e-05
1.030787316e-05
9.90665208e-06
9.41345964e-06
8.84805324e-06
8.21303184e-06
7.39520808e-06
6.08838204e-06
8.77748352e-06
9.30867912e-06
9.7223646e-06
1.007173908e-05
1.040501592e-05
1.068695004e-05
1.09300854e-05
1.113619884e-05
1.139659872e-05
1.151042256e-05
1.15755822e-05
1.1570676e-05
1.15232052e-05
1.146268656e-05
1.122623424e-05
1.101982908e-05
1.07787888e-05
1.048165872e-05
1.009292856e-05
9.79810572e-06
9.39051984e-06
8.81898732e-06
8.26161648e-06
7.42061424e-06
6.255405e-06
8.4948864e-06
9.01929288e-06
9.40871256e-06
9.67507944e-06
9.85130484e-06
1.009520928e-05
1.036446684e-05
1.070405544e-05
1.091298e-05
1.107069444e-05
1.117507716e-05
1.111803264e-05
1.112126808e-05
1.099977996e-05
1.081093104e-05
1.071004896e-05
1.05326832e-05
1.0229427e-05
1.008950748e-05
9.72772164e-06
9.19705644e-06
8.76740592e-06
8.34008916e-06
7.53046008e-06
6.3030084e-06
8.39973264e-06
8.82872016e-06
9.05925852e-06
9.24131832e-06
9.40216212e-06
9.5072874e-06
9.8460804e-06
1.011966072e-05
1.026671412e-05
1.04901186e-05
1.058975424e-05
1.068496104e-05
1.066135824e-05
1.060635576e-05
1.05155778e-05
1.048266648e-05
1.023242376e-05
1.009422804e-05
9.96958404e-06
9.60135384e-06
9.13078296e-06
8.79225516e-06
8.29728588e-06
7.5603216e-06
6.33180912e-06
8.33401608e-06
8.78042724e-06
8.8525086e-06
8.92151364e-06
9.00112668e-06
9.22251564e-06
9.40481412e-06
9.62363064e-06
9.69931872e-06
9.88729248e-06
9.97836216e-06
1.019158296e-05
1.028827488e-05
1.024244832e-05
1.022473296e-05
1.02132498e-05
1.001962728e-05
9.78908892e-06
9.6984966e-06
9.40685616e-06
9.1017966e-06
8.75056572e-06
8.1534414e-06
7.55268384e-06
6.3585678e-06
8.29206144e-06
8.61984864e-06
8.75661228e-06
8.74306056e-06
8.74923972e-06
8.93548968e-06
8.97996372e-06
9.1682292e-06
9.25688556e-06
9.50946204e-06
9.71130576e-06
9.720243e-06
9.833616e-06
9.80757336e-06
9.75344604e-06
9.7231602e-06
9.72225852e-06
9.57873228e-06
9.57454212e-06
9.2345292e-06
8.99555748e-06
8.56736556e-06
7.93722384e-06
7.3830354e-06
6.30123156e-06
8.27241012e-06
8.5757724e-06
8.59717404e-06
8.65697664e-06
8.6166132e-06
8.647509e-06
8.73112656e-06
8.79315684e-06
8.93495928e-06
8.96513904e-06
9.150726e-06
9.20859264e-06
9.42398808e-06
9.46307856e-06
9.44740524e-06
9.362223e-06
9.35699856e-06
9.20140572e-06
9.03891768e-06
8.95134864e-06
8.70627732e-06
8.38082388e-06
8.00026188e-06
7.3863504e-06
6.3154728e-06
8.18611404e-06
8.50705908e-06
8.53074144e-06
8.45698932e-06
8.49592068e-06
8.42251332e-06
8.39631156e-06
8.48332368e-06
8.50650216e-06
8.6264256e-06
8.66689512e-06
8.69826828e-06
8.8208172e-06
9.05345064e-06
8.9214606e-06
8.94641592e-06
8.83123956e-06
8.79026616e-06
8.76918276e-06
8.58341016e-06
8.39647068e-06
8.14063224e-06
7.7195742e-06
7.22585136e-06
6.14744208e-06
8.06337948e-06
8.4789744e-06
8.57545416e-06
8.40768864e-06
8.34170688e-06
8.29418304e-06
8.28389328e-06
8.20112436e-06
8.21438436e-06
8.23263012e-06
8.27182668e-06
8.27978268e-06
8.33624376e-06
8.51191224e-06
8.5257822e-06
8.56269804e-06
8.43861096e-06
8.47242396e-06
8.33014416e-06
8.14821696e-06
7.9631604e-06
7.84824924e-06
7.44485352e-06
6.97110024e-06
6.02595396e-06
8.09042988e-06
8.4218238e-06
8.5008534e-06
8.35719456e-06
8.18404548e-06
8.12212128e-06
8.1301038e-06
7.98480072e-06
7.87076472e-06
7.83053388e-06
7.86630936e-06
7.88760492e-06
7.90341084e-06
7.98488028e-06
8.02219392e-06
7.99082076e-06
8.0032056e-06
8.00012928e-06
7.96506984e-06
7.77569052e-06
7.5974496e-06
7.47219564e-06
7.1992518e-06
6.68001672e-06
5.86659528e-06
8.15362704e-06
8.39098104e-06
8.35995264e-06
8.32547664e-06
8.1173742e-06
7.9227174e-06
7.76407476e-06
7.69695264e-06
7.6935846e-06
7.62850452e-06
7.56464436e-06
7.52314056e-06
7.58758416e-06
7.6223784e-06
7.52897496e-06
7.61161128e-06
7.56361008e-06
7.5169614e-06
7.495215e-06
7.24237332e-06
7.2337278e-06
7.13602812e-06
6.93582864e-06
6.54338568e-06