/*--------------------------------*- C++ -*----------------------------------*\
| =========                 |                                                 |
| \\      /  F ield         | OpenFOAM: The Open Source CFD Toolbox           |
|  \\    /   O peration     | Version:  v1706                                 |
|   \\  /    A nd           | Web:      www.OpenFOAM.com                      |
|    \\/     M anipulation  |                                                 |
\*---------------------------------------------------------------------------*/
FoamFile
{
    version     2.0;
    format      ascii;
    class       volScalarField;
    location    "0.003";
    object      rhoM_Ar;
}
// * * * * * * * * * * * * * * * * * * * * * * * * * * * * * * * * * * * * * //

dimensions      [1 -3 0 0 0 0 0];


internalField   nonuniform List<scalar> 
9720
(
6.66163836e-06
6.7078362e-06
6.81131724e-06
7.04580708e-06
7.99029036e-06
6.6451164e-06
6.66537768e-06
6.72340344e-06
6.95253624e-06
7.7454312e-06
6.6456468e-06
6.69367452e-06
6.7978716e-06
7.00051092e-06
7.58350008e-06
6.6640782e-06
6.68799924e-06
6.75984192e-06
6.92156088e-06
7.41674232e-06
6.64554072e-06
6.68261568e-06
6.74406252e-06
6.89673816e-06
7.33951608e-06
6.66760536e-06
6.70693452e-06
6.753318e-06
6.86679708e-06
7.26605568e-06
6.63999804e-06
6.66092232e-06
6.7004106e-06
6.79370796e-06
7.13783148e-06
6.64811316e-06
6.65256852e-06
6.71051472e-06
6.8113968e-06
7.18278288e-06
6.6411384e-06
6.68372952e-06
6.72754056e-06
6.85059336e-06
7.21089408e-06
6.64344564e-06
6.64145664e-06
6.67699344e-06
6.76875264e-06
7.14175644e-06
6.63737256e-06
6.66166488e-06
6.71955804e-06
6.7929654e-06
7.10224164e-06
6.63419016e-06
6.622707e-06
6.65723604e-06
6.74493768e-06
7.0772598e-06
6.64368432e-06
6.66283176e-06
6.70844616e-06
6.78490332e-06
7.12462452e-06
6.63591396e-06
6.663813e-06
6.71589828e-06
6.78691884e-06
7.102056e-06
6.64052844e-06
6.64434732e-06
6.66256656e-06
6.72698364e-06
7.04137824e-06
6.64623024e-06
6.6520116e-06
6.68709756e-06
6.76358124e-06
7.04177604e-06
6.62957568e-06
6.63007956e-06
6.6615588e-06
6.7139358e-06
7.0031364e-06
6.64957176e-06
6.64654848e-06
6.66187704e-06
6.69468228e-06
6.88262952e-06
6.6640782e-06
6.69871332e-06
6.80381208e-06
7.05967704e-06
7.8582738e-06
6.64779492e-06
6.69964152e-06
6.79179852e-06
7.05450564e-06
7.66743588e-06
6.66389256e-06
6.70192224e-06
6.76848744e-06
6.94696704e-06
7.43185872e-06
6.65980848e-06
6.71528832e-06
6.78880176e-06
6.95189976e-06
7.3349016e-06
6.63957372e-06
6.6404754e-06
6.70327476e-06
6.86679708e-06
7.23375432e-06
6.65060604e-06
6.70070232e-06
6.76612716e-06
6.89504088e-06
7.19811144e-06
6.6700452e-06
6.6972282e-06
6.74305476e-06
6.84791484e-06
7.10499972e-06
6.63541008e-06
6.67412928e-06
6.71555352e-06
6.82675188e-06
7.07922228e-06
6.63694824e-06
6.66291132e-06
6.68956392e-06
6.7728102e-06
7.01406264e-06
6.64097928e-06
6.66959436e-06
6.69081036e-06
6.77795508e-06
6.98263644e-06
6.63175032e-06
6.63904332e-06
6.6907308e-06
6.80760444e-06
7.05649464e-06
6.66315e-06
6.65514096e-06
6.68587764e-06
6.74400948e-06
6.95449872e-06
6.65752776e-06
6.67675476e-06
6.6826422e-06
6.78569892e-06
6.9756882e-06
6.62050584e-06
6.63135252e-06
6.6595698e-06
6.717516e-06
6.93479436e-06
6.64928004e-06
6.6626196e-06
6.6826422e-06
6.77681472e-06
6.94794828e-06
6.64333956e-06
6.66802968e-06
6.68959044e-06
6.74732448e-06
6.929013e-06
6.65946372e-06
6.68126316e-06
6.67755036e-06
6.69985368e-06
6.87233976e-06
6.61719084e-06
6.63387192e-06
6.66736668e-06
6.71823204e-06
6.8285022e-06
6.66821532e-06
6.72409296e-06
6.81123768e-06
7.01578644e-06
7.58278404e-06
6.66126708e-06
6.686355e-06
6.78148224e-06
6.97765068e-06
7.44063684e-06
6.6687192e-06
6.73112076e-06
6.7793076e-06
6.94906212e-06
7.31002584e-06
6.63501228e-06
6.66039192e-06
6.76557024e-06
6.89965536e-06
7.18156296e-06
6.65389452e-06
6.6782664e-06
6.74321388e-06
6.8511768e-06
7.059624e-06
6.65861508e-06
6.6871506e-06
6.73918284e-06
6.81956496e-06
7.013877e-06
6.64493076e-06
6.67328064e-06
6.72313824e-06
6.7961478e-06
6.97712028e-06
6.64901484e-06
6.63469404e-06
6.67871724e-06
6.78763488e-06
6.94404984e-06
6.64782144e-06
6.67683432e-06
6.70998432e-06
6.77721252e-06
6.91087332e-06
6.63692172e-06
6.6543984e-06
6.66479424e-06
6.72870744e-06
6.87599952e-06
6.63692172e-06
6.67211376e-06
6.70208136e-06
6.75114336e-06
6.88329252e-06
6.626685e-06
6.64872312e-06
6.6754818e-06
6.7468206e-06
6.90424332e-06
6.63986544e-06
6.6541332e-06
6.69149988e-06
6.76716144e-06
6.91739724e-06
6.646575e-06
6.65063256e-06
6.699615e-06
6.7767882e-06
6.89026728e-06
6.6510834e-06
6.65707692e-06
6.67646304e-06
6.70990476e-06
6.8550222e-06
6.64861704e-06
6.657846e-06
6.69693648e-06
6.7623348e-06
6.81733728e-06
6.64052844e-06
6.63652392e-06
6.65726256e-06
6.69632652e-06
6.79354884e-06
6.64002456e-06
6.67020432e-06
6.65994108e-06
6.7030626e-06
6.76050492e-06
6.65331108e-06
6.67426188e-06
6.7449642e-06
6.90875172e-06
7.3742838e-06
6.63137904e-06
6.6733602e-06
6.73517832e-06
6.8950674e-06
7.28695344e-06
6.6467076e-06
6.69807684e-06
6.76084968e-06
6.88968384e-06
7.15066716e-06
6.64819272e-06
6.66749928e-06
6.74361168e-06
6.88761528e-06
7.09110324e-06
6.66707496e-06
6.67749732e-06
6.74056188e-06
6.83810244e-06
6.97616556e-06
6.63859248e-06
6.67609176e-06
6.73133292e-06
6.79991364e-06
6.9254328e-06
6.65949024e-06
6.67911504e-06
6.70444164e-06
6.76753272e-06
6.90997164e-06
6.64798056e-06
6.68097144e-06
6.72289956e-06
6.7741362e-06
6.88642188e-06
6.6635478e-06
6.66304392e-06
6.69733428e-06
6.74941956e-06
6.85112376e-06
6.65922504e-06
6.6599676e-06
6.68959044e-06
6.73549656e-06
6.83229456e-06
6.63803556e-06
6.62777232e-06
6.66837444e-06
6.72411948e-06
6.7958826e-06
6.66227484e-06
6.69778512e-06
6.73745904e-06
6.77177592e-06
6.85125636e-06
6.64461252e-06
6.65752776e-06
6.67664868e-06
6.73772424e-06
6.79887936e-06
6.63787644e-06
6.65394756e-06
6.66704844e-06
6.707571e-06
6.79620084e-06
6.64840488e-06
6.6628848e-06
6.6838356e-06
6.73854636e-06
6.83693556e-06
6.63347412e-06
6.6429948e-06
6.66763188e-06
6.69569004e-06
6.7940262e-06
6.628674e-06
6.62506728e-06
6.63747864e-06
6.67755036e-06
6.72488856e-06
6.6184638e-06
6.6150162e-06
6.6257568e-06
6.65999412e-06
6.70340736e-06
6.6614262e-06
6.67038996e-06
6.72884004e-06
6.864039e-06
7.29859572e-06
6.65975544e-06
6.70019844e-06
6.7787772e-06
6.92771352e-06
7.24046388e-06
6.67598568e-06
6.72844224e-06
6.78922608e-06
6.91819284e-06
7.12120344e-06
6.6493596e-06
6.67802772e-06
6.7328976e-06
6.8359278e-06
7.0315128e-06
6.62289264e-06
6.65723604e-06
6.71282196e-06
6.7622022e-06
6.8670888e-06
6.65301936e-06
6.65283372e-06
6.70998432e-06
6.77418924e-06
6.87708684e-06
6.66200964e-06
6.69396624e-06
6.7270632e-06
6.77713296e-06
6.8762382e-06
6.64989e-06
6.66047148e-06
6.70375212e-06
6.75904632e-06
6.84353904e-06
6.6477684e-06
6.69958848e-06
6.71611044e-06
6.7359474e-06
6.78630888e-06
6.6284088e-06
6.6508182e-06
6.69386016e-06
6.74210004e-06
6.803043e-06
6.64681368e-06
6.65182596e-06
6.67121208e-06
6.68895396e-06
6.7509312e-06
6.66304392e-06
6.65482272e-06
6.65530008e-06
6.68982912e-06
6.7543788e-06
6.63350064e-06
6.61976328e-06
6.62525292e-06
6.67794816e-06
6.699615e-06
6.6307956e-06
6.63644436e-06
6.67630392e-06
6.67916808e-06
6.71003736e-06
6.64108536e-06
6.6455142e-06
6.64249092e-06
6.65097732e-06
6.69314412e-06
6.627348e-06
6.62830272e-06
6.62021412e-06
6.66227484e-06
6.69250764e-06
6.63472056e-06
6.66551028e-06
6.68457816e-06
6.6882114e-06
6.73668996e-06
6.65949024e-06
6.68107752e-06
6.69104904e-06
6.6791946e-06
6.67916808e-06
6.6488292e-06
6.69993324e-06
6.75726948e-06
6.84332688e-06
7.25475816e-06
6.65471664e-06
6.6939132e-06
6.75949716e-06
6.86024664e-06
7.16082432e-06
6.66094884e-06
6.69542484e-06
6.74957868e-06
6.84173568e-06
7.01806716e-06
6.67752384e-06
6.70104708e-06
6.7220244e-06
6.78601716e-06
6.92140176e-06
6.63787644e-06
6.67593264e-06
6.71308716e-06
6.79036644e-06
6.86202348e-06
6.63909636e-06
6.6543984e-06
6.66476772e-06
6.7704234e-06
6.8930784e-06
6.6368952e-06
6.68258916e-06
6.70171008e-06
6.71104512e-06
6.76758576e-06
6.61841076e-06
6.65522052e-06
6.68664672e-06
6.72756708e-06
6.790446e-06
6.64715844e-06
6.65145468e-06
6.67709952e-06
6.71242416e-06
6.77591304e-06
6.65474316e-06
6.6663324e-06
6.66601416e-06
6.69014736e-06
6.73340148e-06
6.61878204e-06
6.62803752e-06
6.65129556e-06
6.68028192e-06
6.70725276e-06
6.6268176e-06
6.66283176e-06
6.7134054e-06
6.7313064e-06
6.72815052e-06
6.65198508e-06
6.69208332e-06
6.6985542e-06
6.71706516e-06
6.73947456e-06
6.62750712e-06
6.60960612e-06
6.61416756e-06
6.65185248e-06
6.70247916e-06
6.62225616e-06
6.66161184e-06
6.6708408e-06
6.68208528e-06
6.72488856e-06
6.64190748e-06
6.6440556e-06
6.65145468e-06
6.70539636e-06
6.74066796e-06
6.6388842e-06
6.64705236e-06
6.65166684e-06
6.66383952e-06
6.6880788e-06
6.61093212e-06
6.60512424e-06
6.62697672e-06
6.6354366e-06
6.66590808e-06
6.65463708e-06
6.67744428e-06
6.72411948e-06
6.8326128e-06
7.22439276e-06
6.6614262e-06
6.6973608e-06
6.77050296e-06
6.8953326e-06
7.163052e-06
6.63652392e-06
6.65500836e-06
6.71351148e-06
6.78492984e-06
6.97802196e-06
6.63222768e-06
6.6502878e-06
6.67354584e-06
6.73281804e-06
6.83889804e-06
6.66312348e-06
6.67619784e-06
6.74507028e-06
6.82561152e-06
6.91440048e-06
6.63230724e-06
6.65524704e-06
6.69261372e-06
6.72258132e-06
6.77273064e-06
6.65272764e-06
6.6404754e-06
6.63116688e-06
6.70693452e-06
6.7608762e-06
6.63827424e-06
6.63426972e-06
6.64463904e-06
6.68359692e-06
6.76517244e-06
6.6329172e-06
6.62321088e-06
6.64103232e-06
6.67179552e-06
6.70932132e-06
6.64580592e-06
6.64739712e-06
6.66609372e-06
6.68746884e-06
6.74838528e-06
6.61811904e-06
6.6057342e-06
6.61782732e-06
6.6782664e-06
6.71255676e-06
6.63747864e-06
6.66277872e-06
6.64925352e-06
6.6736254e-06
6.72618804e-06
6.61655436e-06
6.61416756e-06
6.6188616e-06
6.64466556e-06
6.6732276e-06
6.65378844e-06
6.66232788e-06
6.67426188e-06
6.69054516e-06
6.69441708e-06
6.64227876e-06
6.64652196e-06
6.64729104e-06
6.65057952e-06
6.685692e-06
6.620718e-06
6.6212484e-06
6.661824e-06
6.7033278e-06
6.72165312e-06
6.63726648e-06
6.64071408e-06
6.63421668e-06
6.6036126e-06
6.61212552e-06
6.62636676e-06
6.63917592e-06
6.6396798e-06
6.6650064e-06
6.68526768e-06
6.64912092e-06
6.66086928e-06
6.7094274e-06
6.80800224e-06
7.17872532e-06
6.63655044e-06
6.67346628e-06
6.71682648e-06
6.79487484e-06
7.00682268e-06
6.65339064e-06
6.65747472e-06
6.6833052e-06
6.77822028e-06
6.96672444e-06
6.655194e-06
6.66105492e-06
6.6905982e-06
6.76795704e-06
6.87165024e-06
6.6451164e-06
6.67399668e-06
6.72138792e-06
6.77609868e-06
6.83510568e-06
6.63663e-06
6.64779492e-06
6.65354976e-06
6.6980238e-06
6.73968672e-06
6.65461056e-06
6.66840096e-06
6.66890484e-06
6.67526964e-06
6.74135748e-06
6.63387192e-06
6.67492488e-06
6.70507812e-06
6.68296044e-06
6.74504376e-06
6.66532464e-06
6.67227288e-06
6.67439448e-06
6.70791576e-06
6.76368732e-06
6.6367626e-06
6.64371084e-06
6.6402102e-06
6.63151164e-06
6.65336412e-06
6.63673608e-06
6.63644436e-06
6.63209508e-06
6.61212552e-06
6.63814164e-06
6.6460446e-06
6.65816424e-06
6.67105296e-06
6.68341128e-06
6.71133684e-06
6.64058148e-06
6.6231048e-06
6.6528072e-06
6.669117e-06
6.6811836e-06
6.63758472e-06
6.64689324e-06
6.67458012e-06
6.68394168e-06
6.72138792e-06
6.65057952e-06
6.66227484e-06
6.65646696e-06
6.66749928e-06
6.66113448e-06
6.61387584e-06
6.62233572e-06
6.62652588e-06
6.63777036e-06
6.64241136e-06
6.63307632e-06
6.63297024e-06
6.64503684e-06
6.6785316e-06
6.68282784e-06
6.61294764e-06
6.58674588e-06
6.58854924e-06
6.60923484e-06
6.6242982e-06
6.65914548e-06
6.6741558e-06
6.72525984e-06
6.81309408e-06
7.1614608e-06
6.63480012e-06
6.6622218e-06
6.71603088e-06
6.77755728e-06
7.030452e-06
6.64623024e-06
6.6490944e-06
6.70778316e-06
6.78882828e-06
6.9215874e-06
6.65535312e-06
6.68988216e-06
6.72197136e-06
6.7490748e-06
6.816966e-06
6.62687064e-06
6.63758472e-06
6.65962284e-06
6.69964152e-06
6.79988712e-06
6.64967784e-06
6.67420884e-06
6.7018692e-06
6.73668996e-06
6.7868658e-06
6.62885964e-06
6.64477164e-06
6.66810924e-06
6.71841768e-06
6.73684908e-06
6.65047344e-06
6.64442688e-06
6.63893724e-06
6.6734928e-06
6.69189768e-06
6.63599352e-06
6.66970044e-06
6.66800316e-06
6.68213832e-06
6.72133488e-06
6.65429232e-06
6.6630174e-06
6.69038604e-06
6.70645716e-06
6.7043886e-06
6.62697672e-06
6.651216e-06
6.67887636e-06
6.70141836e-06
6.73371972e-06
6.63511836e-06
6.64235832e-06
6.6441882e-06
6.66312348e-06
6.67696692e-06
6.62222964e-06
6.65206464e-06
6.63546312e-06
6.64135056e-06
6.68070624e-06
6.63307632e-06
6.64989e-06
6.63312936e-06
6.64705236e-06
6.68632848e-06
6.61695216e-06
6.61679304e-06
6.63164424e-06
6.64341912e-06
6.64832532e-06
6.64376388e-06
6.66429036e-06
6.64752972e-06
6.67529616e-06
6.6540006e-06
6.62156664e-06
6.62374128e-06
6.61257636e-06
6.60920832e-06
6.618729e-06
6.61917984e-06
6.64495728e-06
6.65052648e-06
6.63182988e-06
6.62286612e-06
6.65370888e-06
6.64821924e-06
6.67675476e-06
6.7856724e-06
7.12690524e-06
6.63660348e-06
6.63819468e-06
6.68319912e-06
6.7545114e-06
7.00573536e-06
6.64495728e-06
6.66307044e-06
6.68272176e-06
6.7773186e-06
6.91784808e-06
6.64713192e-06
6.67407624e-06
6.70285044e-06
6.75878112e-06
6.8652324e-06
6.6375582e-06
6.62504076e-06
6.67214028e-06
6.72677148e-06
6.773871e-06
6.64959828e-06
6.66171792e-06
6.64182792e-06
6.65935764e-06
6.68752188e-06
6.63029172e-06
6.6374256e-06
6.65776644e-06
6.64381692e-06
6.69423144e-06
6.63872508e-06
6.6323868e-06
6.648564e-06
6.67383756e-06
6.70353996e-06
6.618729e-06
6.61772124e-06
6.6155466e-06
6.6455142e-06
6.62817012e-06
6.61509576e-06
6.62702976e-06
6.60727236e-06
6.62368824e-06
6.66856008e-06
6.63551616e-06
6.6314586e-06
6.65569788e-06
6.67977804e-06
6.67784208e-06
6.64068756e-06
6.65089776e-06
6.67662216e-06
6.68709756e-06
6.71077992e-06
6.64177488e-06
6.68659368e-06
6.68723016e-06
6.68447208e-06
6.66304392e-06
6.62233572e-06
6.5940654e-06
6.59502012e-06
6.58772712e-06
6.6110382e-06
6.6228396e-06
6.62360868e-06
6.65781948e-06
6.63909636e-06
6.64628328e-06
6.64063452e-06
6.62647284e-06
6.6033474e-06
6.62718888e-06
6.67078776e-06
6.62506728e-06
6.65063256e-06
6.68062668e-06
6.66375996e-06
6.64572636e-06
6.64238484e-06
6.62026716e-06
6.61525488e-06
6.617403e-06
6.62657892e-06
6.6461772e-06
6.65882724e-06
6.69070428e-06
6.76315692e-06
7.08802692e-06
6.6395472e-06
6.6537354e-06
6.71165508e-06
6.79604172e-06
7.02774696e-06
6.64495728e-06
6.6480336e-06
6.68102448e-06
6.7445664e-06
6.9043494e-06
6.6387516e-06
6.6489618e-06
6.67656912e-06
6.73676952e-06
6.81131724e-06
6.63952068e-06
6.67532268e-06
6.70661628e-06
6.73997844e-06
6.80121312e-06
6.63453492e-06
6.63922896e-06
6.6774708e-06
6.697626e-06
6.75806508e-06
6.62899224e-06
6.64010412e-06
6.64363128e-06
6.68261568e-06
6.70308912e-06
6.64848444e-06
6.6748188e-06
6.68083884e-06
6.71462532e-06
6.7169856e-06
6.65882724e-06
6.68919264e-06
6.70950696e-06
6.71205288e-06
6.70380516e-06
6.64957176e-06
6.6475032e-06
6.64580592e-06
6.64638936e-06
6.65442492e-06
6.63453492e-06
6.64885572e-06
6.6736254e-06
6.67304196e-06
6.6626196e-06
6.63912288e-06
6.63230724e-06
6.61239072e-06
6.61146252e-06
6.61835772e-06
6.63792948e-06
6.62665848e-06
6.62291916e-06
6.64066104e-06
6.6612936e-06
6.63562224e-06
6.64209312e-06
6.63970632e-06
6.65278068e-06
6.66214224e-06
6.63541008e-06
6.62146056e-06
6.61756212e-06
6.64957176e-06
6.66118752e-06
6.6209832e-06
6.63644436e-06
6.64800708e-06
6.66124056e-06
6.68598372e-06
6.63188292e-06
6.64609764e-06
6.63334152e-06
6.65964936e-06
6.65487576e-06
6.62514684e-06
6.62878008e-06
6.65012868e-06
6.66630588e-06
6.67630392e-06
6.64214616e-06
6.6707082e-06
6.68553288e-06
6.77578044e-06
7.08365112e-06
6.65166684e-06
6.6746862e-06
6.71900112e-06
6.81327972e-06
7.01979096e-06
6.63400452e-06
6.63379236e-06
6.65503488e-06
6.7372734e-06
6.87294972e-06
6.63641784e-06
6.64214616e-06
6.64835184e-06
6.6928524e-06
6.74883612e-06
6.6502878e-06
6.65975544e-06
6.6688518e-06
6.70261176e-06
6.76482768e-06
6.63564876e-06
6.65707692e-06
6.66723408e-06
6.69248112e-06
6.7527876e-06
6.671769e-06
6.68876832e-06
6.71027604e-06
6.70422948e-06
6.73043124e-06
6.6268176e-06
6.62193792e-06
6.62318436e-06
6.65644044e-06
6.69118164e-06
6.6400776e-06
6.6237678e-06
6.63904332e-06
6.67129164e-06
6.70144488e-06
6.62819664e-06
6.62400648e-06
6.63403104e-06
6.65694432e-06
6.66177096e-06
6.63713388e-06
6.62925744e-06
6.655857e-06
6.65530008e-06
6.65768688e-06
6.601491e-06
6.60239268e-06
6.609447e-06
6.6192594e-06
6.64694628e-06
6.63143208e-06
6.6640782e-06
6.66073668e-06
6.67662216e-06
6.67277676e-06
6.62313132e-06
6.63193596e-06
6.65156076e-06
6.64959828e-06
6.65551224e-06
6.63697476e-06
6.6469728e-06
6.65344368e-06
6.64241136e-06
6.65349672e-06
6.6294696e-06
6.61817208e-06
6.60981828e-06
6.60005892e-06
6.5880984e-06
6.63747864e-06
6.64567332e-06
6.63511836e-06
6.63652392e-06
6.6274806e-06
6.63302328e-06
6.65007564e-06
6.63350064e-06
6.62832924e-06
6.63177684e-06
6.6278784e-06
6.65869464e-06
6.69478836e-06
6.77034384e-06
7.09195188e-06
6.63124644e-06
6.6395472e-06
6.67099992e-06
6.78068664e-06
6.97216104e-06
6.6489618e-06
6.69632652e-06
6.73035168e-06
6.799065e-06
6.93230148e-06
6.6248286e-06
6.61883508e-06
6.6801228e-06
6.72258132e-06
6.78506244e-06
6.62334348e-06
6.625359e-06
6.65219724e-06
6.70780968e-06
6.7557048e-06
6.62756016e-06
6.63986544e-06
6.62050584e-06
6.65270112e-06
6.68298696e-06
6.6272154e-06
6.64506336e-06
6.66336216e-06
6.67877028e-06
6.73549656e-06
6.64477164e-06
6.64676064e-06
6.64686672e-06
6.64320696e-06
6.66458208e-06
6.62347608e-06
6.62008152e-06
6.60104016e-06
6.61167468e-06
6.64994304e-06
6.633315e-06
6.66720756e-06
6.66055104e-06
6.6623544e-06
6.65328456e-06
6.6484314e-06
6.65792556e-06
6.672432e-06
6.68428644e-06
6.6802554e-06
6.647238e-06
6.6652716e-06
6.635304e-06
6.6374256e-06
6.64447992e-06
6.62379432e-06
6.60456732e-06
6.64440036e-06
6.66227484e-06
6.65694432e-06
6.60101364e-06
6.57685392e-06
6.56884488e-06
6.5806728e-06
6.61491012e-06
6.64877616e-06
6.66365388e-06
6.65010216e-06
6.67890288e-06
6.64994304e-06
6.60804144e-06
6.61562616e-06
6.62957568e-06
6.60512424e-06
6.6211158e-06
6.62753364e-06
6.5878332e-06
6.5806728e-06
6.5800098e-06
6.58632156e-06
6.63355368e-06
6.65063256e-06
6.68128968e-06
6.68484336e-06
6.6915264e-06
6.67617132e-06
6.6858246e-06
6.70046364e-06
6.75777336e-06
7.04721264e-06
6.65225028e-06
6.67572048e-06
6.68420688e-06
6.73547004e-06
6.9520854e-06
6.64158924e-06
6.655194e-06
6.66458208e-06
6.72024756e-06
6.85857588e-06
6.64967784e-06
6.64135056e-06
6.66211572e-06
6.6963e-06
6.76952172e-06
6.64209312e-06
6.64583244e-06
6.66463512e-06
6.67821336e-06
6.71573916e-06
6.655857e-06
6.6521442e-06
6.66137316e-06
6.67646304e-06
6.71682648e-06
6.64013064e-06
6.6546636e-06
6.65919852e-06
6.66370692e-06
6.66309696e-06
6.62246832e-06
6.63254592e-06
6.63771732e-06
6.6590394e-06
6.67736472e-06
6.64341912e-06
6.64209312e-06
6.65922504e-06
6.68601024e-06
6.70468032e-06
6.63220116e-06
6.6209832e-06
6.65365584e-06
6.66190356e-06
6.66094884e-06
6.59960808e-06
6.58149492e-06
6.55524012e-06
6.56619288e-06
6.58587072e-06
6.65410668e-06
6.64813968e-06
6.66397212e-06
6.62262744e-06
6.63718692e-06
6.59714172e-06
6.5792142e-06
6.58870836e-06
6.59178468e-06
6.59756604e-06
6.63365976e-06
6.6640782e-06
6.65673216e-06
6.65845596e-06
6.64893528e-06
6.61376976e-06
6.61636872e-06
6.61774776e-06
6.62965524e-06
6.62146056e-06
6.62623416e-06
6.6256242e-06
6.64124448e-06
6.6692496e-06
6.69184464e-06
6.63100776e-06
6.63586092e-06
6.64713192e-06
6.6236352e-06
6.60737844e-06
6.62573028e-06
6.60926136e-06
6.59157252e-06
6.5867724e-06
6.61167468e-06
6.62612808e-06
6.62519988e-06
6.65734212e-06
6.72167964e-06
7.03172496e-06
6.63904332e-06
6.64734408e-06
6.6821118e-06
6.74581284e-06
6.97314228e-06
6.6272154e-06
6.62687064e-06
6.66134664e-06
6.70719972e-06
6.80938128e-06
6.63867204e-06
6.65219724e-06
6.6838356e-06
6.74650236e-06
6.82696404e-06
6.63387192e-06
6.6415362e-06
6.65317848e-06
6.6822444e-06
6.71581872e-06
6.63047736e-06
6.6537354e-06
6.65156076e-06
6.66243396e-06
6.64782144e-06
6.633315e-06
6.65614872e-06
6.679725e-06
6.72332388e-06
6.76997256e-06
6.63824772e-06
6.65023476e-06
6.6577134e-06
6.659172e-06
6.67625088e-06
6.62464296e-06
6.59014044e-06
6.5896896e-06
6.60345348e-06
6.61244376e-06
6.65617524e-06
6.68272176e-06
6.68646108e-06
6.67436796e-06
6.65848248e-06
6.64052844e-06
6.63710736e-06
6.6400776e-06
6.67046952e-06
6.67635696e-06
6.63840684e-06
6.64132404e-06
6.62281308e-06
6.61005696e-06
6.61597092e-06
6.63819468e-06
6.6357018e-06
6.6579786e-06
6.65195856e-06
6.6540006e-06
6.63047736e-06
6.6597024e-06
6.6709734e-06
6.66996564e-06
6.66139968e-06
6.65198508e-06
6.63254592e-06
6.59610744e-06
6.58833708e-06
6.60462036e-06
6.61011e-06
6.60371868e-06
6.62634024e-06
6.65179944e-06
6.6732276e-06
6.6521442e-06
6.64638936e-06
6.62835576e-06
6.62183184e-06
6.62307828e-06
6.61947156e-06
6.61087908e-06
6.64638936e-06
6.6440556e-06
6.64994304e-06
6.6261546e-06
6.66497988e-06
6.69759948e-06
6.75811812e-06
7.06590924e-06
6.63660348e-06
6.64182792e-06
6.66561636e-06
6.74371776e-06
6.92081832e-06
6.64660152e-06
6.65153424e-06
6.6948414e-06
6.72568416e-06
6.83940192e-06
6.66551028e-06
6.6780012e-06
6.69754644e-06
6.71268936e-06
6.75215112e-06
6.63469404e-06
6.66853356e-06
6.72292608e-06
6.72735492e-06
6.77235936e-06
6.64864356e-06
6.63991848e-06
6.65203812e-06
6.6530724e-06
6.69929676e-06
6.62673804e-06
6.63e-06
6.64156272e-06
6.6895374e-06
6.69383364e-06
6.62968176e-06
6.63315588e-06
6.62618112e-06
6.60756408e-06
6.61225812e-06
6.6089166e-06
6.57168252e-06
6.56380608e-06
6.57780864e-06
6.63042432e-06
6.62718888e-06
6.63472056e-06
6.66662412e-06
6.66680976e-06
6.65742168e-06
6.64209312e-06
6.65773992e-06
6.64490424e-06
6.65712996e-06
6.63647088e-06
6.61684608e-06
6.60183576e-06
6.60446124e-06
6.63037128e-06
6.63708084e-06
6.63554268e-06
6.65654652e-06
6.65195856e-06
6.65827032e-06
6.66662412e-06
6.642597e-06
6.64546116e-06
6.67452708e-06
6.67359888e-06
6.67831944e-06
6.62763972e-06
6.6484314e-06
6.66150576e-06
6.65524704e-06
6.65044692e-06
6.64599156e-06
6.6285414e-06
6.63991848e-06
6.62241528e-06
6.6066624e-06
6.61252332e-06
6.62329044e-06
6.60647676e-06
6.61252332e-06
6.62928396e-06
6.62710932e-06
6.63705432e-06
6.64440036e-06
6.6360996e-06
6.60809448e-06
6.62925744e-06
6.60183576e-06
6.5947284e-06
6.66537768e-06
6.9758208e-06
6.63485316e-06
6.65755428e-06
6.65657304e-06
6.69083688e-06
6.8710668e-06
6.63365976e-06
6.65018172e-06
6.6687192e-06
6.71603088e-06
6.797739e-06
6.63148512e-06
6.63190944e-06
6.62817012e-06
6.65652e-06
6.7151292e-06
6.63259896e-06
6.64288872e-06
6.64901484e-06
6.685029e-06
6.72722232e-06
6.6555918e-06
6.66405168e-06
6.68956392e-06
6.70680192e-06
6.71796684e-06
6.65171988e-06
6.64389648e-06
6.62546508e-06
6.6215136e-06
6.62485512e-06
6.63151164e-06
6.6376908e-06
6.64588548e-06
6.6647412e-06
6.65975544e-06
6.62504076e-06
6.63243984e-06
6.66092232e-06
6.66877224e-06
6.6680562e-06
6.64699932e-06
6.6517464e-06
6.626022e-06
6.61644828e-06
6.60443472e-06
6.64999608e-06
6.65808468e-06
6.69203028e-06
6.68121012e-06
6.70449468e-06
6.61894116e-06
6.6223092e-06
6.6102426e-06
6.60552204e-06
6.62756016e-06
6.62514684e-06
6.6086514e-06
6.60424908e-06
6.61562616e-06
6.60390432e-06
6.6216462e-06
6.63042432e-06
6.64105884e-06
6.64005108e-06
6.62737452e-06
6.61186032e-06
6.58618896e-06
6.57332676e-06
6.57160296e-06
6.56295744e-06
6.63657696e-06
6.65503488e-06
6.639945e-06
6.64800708e-06
6.63167076e-06
6.62878008e-06
6.6090492e-06
6.60727236e-06
6.6109056e-06
6.61146252e-06
6.62262744e-06
6.63068952e-06
6.63949416e-06
6.64880268e-06
6.64996956e-06
6.63975936e-06
6.66105492e-06
6.68301348e-06
6.70444164e-06
6.91617732e-06
6.65309892e-06
6.63991848e-06
6.64625676e-06
6.70086144e-06
6.83205588e-06
6.64143012e-06
6.67784208e-06
6.70290348e-06
6.73220808e-06
6.7482792e-06
6.62766624e-06
6.62745408e-06
6.63814164e-06
6.64686672e-06
6.6904656e-06
6.6415362e-06
6.63904332e-06
6.65272764e-06
6.65487576e-06
6.68319912e-06
6.60735192e-06
6.59979372e-06
6.59960808e-06
6.61469796e-06
6.6305304e-06
6.62525292e-06
6.64660152e-06
6.63843336e-06
6.667791e-06
6.70245264e-06
6.63509184e-06
6.63527748e-06
6.65564484e-06
6.63957372e-06
6.66704844e-06
6.62883312e-06
6.64190748e-06
6.65110992e-06
6.65975544e-06
6.6404754e-06
6.62050584e-06
6.62994696e-06
6.62817012e-06
6.63124644e-06
6.6375582e-06
6.63045084e-06
6.62989392e-06
6.64585896e-06
6.65617524e-06
6.6536028e-06
6.63986544e-06
6.66198312e-06
6.64023672e-06
6.62968176e-06
6.62238876e-06
6.63723996e-06
6.62008152e-06
6.62411256e-06
6.620718e-06
6.63726648e-06
6.62427168e-06
6.6216462e-06
6.634641e-06
6.64691976e-06
6.6590394e-06
6.63670956e-06
6.63546312e-06
6.62559768e-06
6.61520184e-06
6.63029172e-06
6.64787448e-06
6.64996956e-06
6.63116688e-06
6.63838032e-06
6.6277458e-06
6.64384344e-06
6.64434732e-06
6.66816228e-06
6.66065712e-06
6.65858856e-06
6.62273352e-06
6.62832924e-06
6.6257568e-06
6.61761516e-06
6.63899028e-06
1.117574016e-05
1.261866684e-05
1.32236676e-05
1.353175044e-05
1.36043622e-05
1.368227796e-05
1.346356752e-05
1.351639536e-05
1.33643562e-05
1.32578784e-05
1.336923588e-05
1.322011392e-05
1.30377624e-05
1.29190854e-05
1.263521532e-05
1.239255732e-05
1.199470428e-05
1.160427684e-05
1.130213448e-05
1.067172756e-05
1.020067932e-05
9.43600164e-06
8.42808252e-06
7.357974e-06
5.63168112e-06
9.84788376e-06
1.130425608e-05
1.225600584e-05
1.26927372e-05
1.296684792e-05
1.309268532e-05
1.298482848e-05
1.28856702e-05
1.29977172e-05
1.276731144e-05
1.27778664e-05
1.262877096e-05
1.234025988e-05
1.219805964e-05
1.196905944e-05
1.177495956e-05
1.150312956e-05
1.112723508e-05
1.082779776e-05
1.0316943e-05
9.70122816e-06
9.05811816e-06
8.31500124e-06
7.2317388e-06
5.71712856e-06
9.20594064e-06
1.024051236e-05
1.106483352e-05
1.164196176e-05
1.200098952e-05
1.218087468e-05
1.24772622e-05
1.242114588e-05
1.235781612e-05
1.22896332e-05
1.22132556e-05
1.228241976e-05
1.216726992e-05
1.18992588e-05
1.171523652e-05
1.157751816e-05
1.116131328e-05
1.080003132e-05
1.047733596e-05
1.013140908e-05
9.55902792e-06
8.95148124e-06
8.26440108e-06
7.27966044e-06
5.88494712e-06
8.89072392e-06
9.7105632e-06
1.026851748e-05
1.071246228e-05
1.104900108e-05
1.14172578e-05
1.172043444e-05
1.187218188e-05
1.197075672e-05
1.196354328e-05
1.195497732e-05
1.193410608e-05
1.18167816e-05
1.16410866e-05
1.143863292e-05
1.12790886e-05
1.104870936e-05
1.066708656e-05
1.037504832e-05
9.91969992e-06
9.46729524e-06
8.91883512e-06
8.27824452e-06
7.33320432e-06
6.0645936e-06
8.68201152e-06
9.2206062e-06
9.73169964e-06
1.010287356e-05
1.039432836e-05
1.070259684e-05
1.105801788e-05
1.123888428e-05
1.144918788e-05
1.1530233e-05
1.142036064e-05
1.15643112e-05
1.151028996e-05
1.140049716e-05
1.122756024e-05
1.10260878e-05
1.062115392e-05
1.046935344e-05
1.022539596e-05
9.89180088e-06
9.38176824e-06
8.92376784e-06
8.27524776e-06
7.40860068e-06
6.1730604e-06
8.5086768e-06
9.07784904e-06
9.40934904e-06
9.61729236e-06
9.81444204e-06
1.012817364e-05
1.037976888e-05
1.068164604e-05
1.089399168e-05
1.10480994e-05
1.107756312e-05
1.115012184e-05
1.123901688e-05
1.104695904e-05
1.082779776e-05
1.072187688e-05
1.056363204e-05
1.033932588e-05
1.009595184e-05
9.71658324e-06
9.342333e-06
8.81540712e-06
8.238438e-06
7.44981276e-06
6.33570756e-06
8.33449344e-06
8.77411548e-06
9.09665172e-06
9.20530416e-06
9.36781872e-06
9.55152276e-06
9.8504562e-06
1.003323204e-05
1.028400516e-05
1.050184044e-05
1.062937512e-05
1.057309968e-05
1.068183168e-05
1.075157928e-05
1.0552308e-05
1.046540196e-05
1.02908208e-05
1.009274292e-05
9.91458156e-06
9.6080634e-06
9.20702796e-06
8.80349964e-06
8.17696464e-06
7.53112308e-06
6.49798344e-06
8.35337568e-06
8.78589036e-06
8.90602596e-06
9.01921332e-06
9.15279456e-06
9.2432808e-06
9.47633856e-06
9.68502444e-06
9.80383404e-06
9.94123416e-06
1.001946816e-05
1.017039348e-05
1.017670524e-05
1.034009496e-05
1.011122736e-05
1.026109188e-05
1.008977268e-05
9.86562564e-06
9.63174576e-06
9.31546824e-06
9.00308916e-06
8.66822112e-06
8.1481374e-06
7.46050032e-06
6.4818858e-06
8.40058128e-06
8.7460308e-06
8.79077004e-06
8.72616732e-06
8.77416852e-06
8.8803546e-06
8.99728128e-06
9.1777764e-06
9.24404988e-06
9.48190776e-06
9.61013196e-06
9.68741124e-06
9.78179592e-06
9.84358752e-06
9.81693492e-06
9.80847504e-06
9.7217016e-06
9.5482608e-06
9.41136456e-06
9.17292324e-06
8.92246836e-06
8.58078468e-06
8.04500112e-06
7.47341556e-06
6.44626944e-06
8.251035e-06
8.582535e-06
8.64196632e-06
8.69996556e-06
8.63220696e-06
8.59945476e-06
8.69118744e-06
8.74504956e-06
8.94127104e-06
8.96497992e-06
9.18658104e-06
9.2934036e-06
9.38720484e-06
9.40576884e-06
9.41550168e-06
9.29756724e-06
9.24834612e-06
9.17599956e-06
9.02915832e-06
8.9729094e-06
8.6022924e-06
8.29060284e-06
7.86296784e-06
7.34932848e-06
6.3837618e-06
8.17171368e-06
8.52442968e-06
8.54564568e-06
8.54471748e-06
8.46860508e-06
8.47430688e-06
8.4742008e-06
8.43953916e-06
8.55498072e-06
8.58985452e-06
8.61809832e-06
8.79872604e-06
8.95959636e-06
9.0051312e-06
8.92260096e-06
8.871603e-06
8.79578232e-06
8.72545128e-06
8.69277864e-06
8.46948024e-06
8.31351612e-06
7.96684668e-06
7.63036092e-06
7.1641128e-06
6.20918064e-06
8.15991228e-06
8.47595112e-06
8.50292196e-06
8.41047324e-06
8.2833894e-06
8.12050356e-06
8.1452202e-06
8.16070788e-06
8.14020792e-06
8.30829168e-06
8.27959704e-06
8.4574932e-06
8.48369496e-06
8.47629588e-06
8.45889876e-06
8.48735472e-06
8.42524488e-06
8.38989372e-06
8.18794392e-06
8.0811744e-06
8.00018232e-06
7.78112712e-06
7.35277608e-06
6.97486608e-06
6.0387366e-06
8.16853128e-06
8.490378e-06
8.4971406e-06
8.31354264e-06
8.11535868e-06
8.01357492e-06
8.0168634e-06
8.0310516e-06
7.94703624e-06
7.94295216e-06
7.89930024e-06
7.88277828e-06
7.99928064e-06
8.0668536e-06
7.96517592e-06
7.99225284e-06
7.90722972e-06
7.95284412e-06
7.89070776e-06
7.79483796e-06
7.60994052e-06
7.40647908e-06
7.13647896e-06
6.74544156e-06
5.84760696e-06
8.14983468e-06
8.42551008e-06
8.45966784e-06
8.27630856e-06
8.1342144e-06
7.99421532e-06
7.76060064e-06
7.72097976e-06
7.60946316e-06
7.57872648e-06
7.55827956e-06
7.45906824e-06
7.4822202e-06
7.4737338e-06
7.49884824e-06
7.42780116e-06
7.53064572e-06
7.53770004e-06
7.43880696e-06
7.43840916e-06
7.26844248e-06
7.128576e-06