/*--------------------------------*- C++ -*----------------------------------*\
| =========                 |                                                 |
| \\      /  F ield         | OpenFOAM: The Open Source CFD Toolbox           |
|  \\    /   O peration     | Version:  v1706                                 |
|   \\  /    A nd           | Web:      www.OpenFOAM.com                      |
|    \\/     M anipulation  |                                                 |
\*---------------------------------------------------------------------------*/
FoamFile
{
    version     2.0;
    format      ascii;
    class       volScalarField;
    location    "0.003";
    object      rhoN_Ar;
}
// * * * * * * * * * * * * * * * * * * * * * * * * * * * * * * * * * * * * * //

dimensions      [0 -3 0 0 0 0 0];


internalField   nonuniform List<scalar> 
9720
(
1.004772e+20
1.01174e+20
1.027348e+20
1.062716e+20
1.205172e+20
1.00228e+20
1.005336e+20
1.014088e+20
1.048648e+20
1.16824e+20
1.00236e+20
1.009604e+20
1.02532e+20
1.055884e+20
1.143816e+20
1.00514e+20
1.008748e+20
1.019584e+20
1.043976e+20
1.118664e+20
1.002344e+20
1.007936e+20
1.017204e+20
1.040232e+20
1.107016e+20
1.005672e+20
1.011604e+20
1.0186e+20
1.035716e+20
1.095936e+20
1.001508e+20
1.004664e+20
1.01062e+20
1.024692e+20
1.076596e+20
1.002732e+20
1.003404e+20
1.012144e+20
1.02736e+20
1.083376e+20
1.00168e+20
1.008104e+20
1.014712e+20
1.033272e+20
1.087616e+20
1.002028e+20
1.001728e+20
1.007088e+20
1.020928e+20
1.077188e+20
1.001112e+20
1.004776e+20
1.013508e+20
1.02458e+20
1.071228e+20
1.000632e+20
9.989e+19
1.004108e+20
1.017336e+20
1.06746e+20
1.002064e+20
1.004952e+20
1.011832e+20
1.023364e+20
1.074604e+20
1.000892e+20
1.0051e+20
1.012956e+20
1.023668e+20
1.0712e+20
1.001588e+20
1.002164e+20
1.004912e+20
1.014628e+20
1.062048e+20
1.002448e+20
1.00332e+20
1.008612e+20
1.020148e+20
1.062108e+20
9.99936e+19
1.000012e+20
1.00476e+20
1.01266e+20
1.05628e+20
1.002952e+20
1.002496e+20
1.004808e+20
1.009756e+20
1.038104e+20
1.00514e+20
1.010364e+20
1.026216e+20
1.064808e+20
1.18526e+20
1.002684e+20
1.010504e+20
1.024404e+20
1.064028e+20
1.156476e+20
1.005112e+20
1.010848e+20
1.020888e+20
1.047808e+20
1.120944e+20
1.004496e+20
1.012864e+20
1.023952e+20
1.048552e+20
1.10632e+20
1.001444e+20
1.00158e+20
1.011052e+20
1.035716e+20
1.091064e+20
1.003108e+20
1.010664e+20
1.020532e+20
1.039976e+20
1.085688e+20
1.00604e+20
1.01014e+20
1.017052e+20
1.032868e+20
1.071644e+20
1.000816e+20
1.006656e+20
1.012904e+20
1.029676e+20
1.067756e+20
1.001048e+20
1.004964e+20
1.008984e+20
1.02154e+20
1.057928e+20
1.001656e+20
1.005972e+20
1.009172e+20
1.022316e+20
1.053188e+20
1.000264e+20
1.001364e+20
1.00916e+20
1.026788e+20
1.064328e+20
1.005e+20
1.003792e+20
1.008428e+20
1.017196e+20
1.048944e+20
1.004152e+20
1.007052e+20
1.00794e+20
1.023484e+20
1.05214e+20
9.98568e+19
1.000204e+20
1.00446e+20
1.0132e+20
1.045972e+20
1.002908e+20
1.00492e+20
1.00794e+20
1.022144e+20
1.047956e+20
1.002012e+20
1.005736e+20
1.008988e+20
1.017696e+20
1.0451e+20
1.004444e+20
1.007732e+20
1.007172e+20
1.010536e+20
1.036552e+20
9.98068e+19
1.000584e+20
1.005636e+20
1.013308e+20
1.02994e+20
1.005764e+20
1.014192e+20
1.027336e+20
1.058188e+20
1.143708e+20
1.004716e+20
1.0085e+20
1.022848e+20
1.052436e+20
1.122268e+20
1.00584e+20
1.015252e+20
1.02252e+20
1.048124e+20
1.102568e+20
1.000756e+20
1.004584e+20
1.020448e+20
1.040672e+20
1.083192e+20
1.003604e+20
1.00728e+20
1.017076e+20
1.03336e+20
1.0648e+20
1.004316e+20
1.00862e+20
1.016468e+20
1.028592e+20
1.0579e+20
1.002252e+20
1.006528e+20
1.014048e+20
1.02506e+20
1.052356e+20
1.002868e+20
1.000708e+20
1.007348e+20
1.023776e+20
1.047368e+20
1.002688e+20
1.007064e+20
1.012064e+20
1.022204e+20
1.042364e+20
1.001044e+20
1.00368e+20
1.005248e+20
1.014888e+20
1.037104e+20
1.001044e+20
1.006352e+20
1.010872e+20
1.018272e+20
1.038204e+20
9.995e+19
1.002824e+20
1.00686e+20
1.01762e+20
1.041364e+20
1.001488e+20
1.00364e+20
1.009276e+20
1.020688e+20
1.043348e+20
1.0025e+20
1.003112e+20
1.0105e+20
1.02214e+20
1.039256e+20
1.00318e+20
1.004084e+20
1.007008e+20
1.012052e+20
1.03394e+20
1.002808e+20
1.0042e+20
1.010096e+20
1.01996e+20
1.028256e+20
1.001588e+20
1.000984e+20
1.004112e+20
1.010004e+20
1.024668e+20
1.001512e+20
1.006064e+20
1.004516e+20
1.01102e+20
1.019684e+20
1.003516e+20
1.006676e+20
1.01734e+20
1.042044e+20
1.11226e+20
1.000208e+20
1.00654e+20
1.015864e+20
1.03998e+20
1.099088e+20
1.00252e+20
1.010268e+20
1.019736e+20
1.039168e+20
1.078532e+20
1.002744e+20
1.005656e+20
1.017136e+20
1.038856e+20
1.069548e+20
1.005592e+20
1.007164e+20
1.016676e+20
1.031388e+20
1.052212e+20
1.001296e+20
1.006952e+20
1.015284e+20
1.025628e+20
1.04456e+20
1.004448e+20
1.007408e+20
1.011228e+20
1.020744e+20
1.042228e+20
1.002712e+20
1.007688e+20
1.014012e+20
1.02174e+20
1.038676e+20
1.00506e+20
1.004984e+20
1.010156e+20
1.018012e+20
1.033352e+20
1.004408e+20
1.00452e+20
1.008988e+20
1.015912e+20
1.030512e+20
1.001212e+20
9.99664e+19
1.005788e+20
1.014196e+20
1.02502e+20
1.004868e+20
1.010224e+20
1.016208e+20
1.021384e+20
1.033372e+20
1.002204e+20
1.004152e+20
1.007036e+20
1.016248e+20
1.025472e+20
1.001188e+20
1.003612e+20
1.005588e+20
1.0117e+20
1.025068e+20
1.002776e+20
1.00496e+20
1.00812e+20
1.016372e+20
1.031212e+20
1.000524e+20
1.00196e+20
1.005676e+20
1.009908e+20
1.02474e+20
9.998e+19
9.99256e+19
1.001128e+20
1.007172e+20
1.014312e+20
9.9826e+19
9.9774e+19
9.9936e+19
1.004524e+20
1.011072e+20
1.00474e+20
1.006092e+20
1.014908e+20
1.0353e+20
1.100844e+20
1.004488e+20
1.010588e+20
1.02244e+20
1.044904e+20
1.092076e+20
1.006936e+20
1.014848e+20
1.024016e+20
1.043468e+20
1.074088e+20
1.00292e+20
1.007244e+20
1.01552e+20
1.03106e+20
1.06056e+20
9.98928e+19
1.004108e+20
1.012492e+20
1.01994e+20
1.03576e+20
1.003472e+20
1.003444e+20
1.012064e+20
1.021748e+20
1.037268e+20
1.004828e+20
1.009648e+20
1.01464e+20
1.022192e+20
1.03714e+20
1.003e+20
1.004596e+20
1.011124e+20
1.019464e+20
1.032208e+20
1.00268e+20
1.010496e+20
1.012988e+20
1.01598e+20
1.023576e+20
9.9976e+19
1.00314e+20
1.009632e+20
1.016908e+20
1.0261e+20
1.002536e+20
1.003292e+20
1.006216e+20
1.008892e+20
1.01824e+20
1.004984e+20
1.003744e+20
1.003816e+20
1.009024e+20
1.01876e+20
1.000528e+20
9.98456e+19
9.99284e+19
1.007232e+20
1.0105e+20
1.00012e+20
1.000972e+20
1.006984e+20
1.007416e+20
1.012072e+20
1.001672e+20
1.00234e+20
1.001884e+20
1.003164e+20
1.009524e+20
9.996e+19
9.99744e+19
9.98524e+19
1.004868e+20
1.009428e+20
1.000712e+20
1.005356e+20
1.008232e+20
1.00878e+20
1.016092e+20
1.004448e+20
1.007704e+20
1.009208e+20
1.00742e+20
1.007416e+20
1.00284e+20
1.010548e+20
1.019196e+20
1.032176e+20
1.094232e+20
1.003728e+20
1.00964e+20
1.019532e+20
1.034728e+20
1.080064e+20
1.004668e+20
1.009868e+20
1.018036e+20
1.031936e+20
1.058532e+20
1.007168e+20
1.010716e+20
1.01388e+20
1.023532e+20
1.043952e+20
1.001188e+20
1.006928e+20
1.012532e+20
1.024188e+20
1.034996e+20
1.001372e+20
1.00368e+20
1.005244e+20
1.02118e+20
1.03968e+20
1.00104e+20
1.007932e+20
1.010816e+20
1.012224e+20
1.020752e+20
9.98252e+19
1.003804e+20
1.008544e+20
1.014716e+20
1.0242e+20
1.002588e+20
1.003236e+20
1.007104e+20
1.012432e+20
1.022008e+20
1.003732e+20
1.00548e+20
1.005432e+20
1.009072e+20
1.015596e+20
9.98308e+19
9.99704e+19
1.003212e+20
1.007584e+20
1.011652e+20
9.9952e+19
1.004952e+20
1.01258e+20
1.01528e+20
1.014804e+20
1.003316e+20
1.009364e+20
1.01034e+20
1.013132e+20
1.016512e+20
9.99624e+19
9.96924e+19
9.97612e+19
1.003296e+20
1.010932e+20
9.98832e+19
1.004768e+20
1.00616e+20
1.007856e+20
1.014312e+20
1.001796e+20
1.00212e+20
1.003236e+20
1.011372e+20
1.016692e+20
1.00134e+20
1.002572e+20
1.003268e+20
1.005104e+20
1.00876e+20
9.97124e+19
9.96248e+19
9.99544e+19
1.00082e+20
1.005416e+20
1.003716e+20
1.007156e+20
1.014196e+20
1.03056e+20
1.089652e+20
1.00474e+20
1.01016e+20
1.021192e+20
1.04002e+20
1.0804e+20
1.000984e+20
1.003772e+20
1.012596e+20
1.023368e+20
1.052492e+20
1.000336e+20
1.00306e+20
1.006568e+20
1.015508e+20
1.031508e+20
1.004996e+20
1.006968e+20
1.017356e+20
1.029504e+20
1.042896e+20
1.000348e+20
1.003808e+20
1.009444e+20
1.013964e+20
1.021528e+20
1.003428e+20
1.00158e+20
1.000176e+20
1.011604e+20
1.01974e+20
1.001248e+20
1.000644e+20
1.002208e+20
1.008084e+20
1.020388e+20
1.00044e+20
9.98976e+19
1.001664e+20
1.006304e+20
1.011964e+20
1.002384e+20
1.002624e+20
1.005444e+20
1.008668e+20
1.017856e+20
9.98208e+19
9.9634e+19
9.98164e+19
1.00728e+20
1.012452e+20
1.001128e+20
1.004944e+20
1.002904e+20
1.00658e+20
1.014508e+20
9.97972e+19
9.97612e+19
9.9832e+19
1.002212e+20
1.00652e+20
1.003588e+20
1.004876e+20
1.006676e+20
1.009132e+20
1.009716e+20
1.001852e+20
1.002492e+20
1.002608e+20
1.003104e+20
1.0084e+20
9.986e+19
9.9868e+19
1.0048e+20
1.01106e+20
1.013824e+20
1.001096e+20
1.001616e+20
1.000636e+20
9.9602e+19
9.97304e+19
9.99452e+19
1.001384e+20
1.00146e+20
1.00528e+20
1.008336e+20
1.002884e+20
1.004656e+20
1.01198e+20
1.026848e+20
1.082764e+20
1.000988e+20
1.006556e+20
1.013096e+20
1.024868e+20
1.056836e+20
1.003528e+20
1.004144e+20
1.00804e+20
1.022356e+20
1.050788e+20
1.0038e+20
1.004684e+20
1.00914e+20
1.020808e+20
1.036448e+20
1.00228e+20
1.006636e+20
1.013784e+20
1.022036e+20
1.030936e+20
1.001e+20
1.002684e+20
1.003552e+20
1.01026e+20
1.016544e+20
1.003712e+20
1.005792e+20
1.005868e+20
1.006828e+20
1.016796e+20
1.000584e+20
1.006776e+20
1.011324e+20
1.007988e+20
1.017352e+20
1.005328e+20
1.006376e+20
1.006696e+20
1.011752e+20
1.020164e+20
1.00102e+20
1.002068e+20
1.00154e+20
1.000228e+20
1.003524e+20
1.001016e+20
1.000972e+20
1.000316e+20
9.97304e+19
1.001228e+20
1.00242e+20
1.004248e+20
1.006192e+20
1.008056e+20
1.012268e+20
1.001596e+20
9.9896e+19
1.00344e+20
1.0059e+20
1.00772e+20
1.001144e+20
1.002548e+20
1.006724e+20
1.008136e+20
1.013784e+20
1.003104e+20
1.004868e+20
1.003992e+20
1.005656e+20
1.004696e+20
9.97568e+19
9.98844e+19
9.99476e+19
1.001172e+20
1.001872e+20
1.000464e+20
1.000448e+20
1.002268e+20
1.00732e+20
1.007968e+20
9.97428e+19
9.93476e+19
9.93748e+19
9.96868e+19
9.9914e+19
1.004396e+20
1.00666e+20
1.014368e+20
1.027616e+20
1.08016e+20
1.000724e+20
1.00486e+20
1.012976e+20
1.022256e+20
1.0604e+20
1.002448e+20
1.00288e+20
1.011732e+20
1.023956e+20
1.04398e+20
1.003824e+20
1.009032e+20
1.013872e+20
1.01796e+20
1.0282e+20
9.99528e+19
1.001144e+20
1.004468e+20
1.010504e+20
1.025624e+20
1.002968e+20
1.006668e+20
1.01084e+20
1.016092e+20
1.02366e+20
9.99828e+19
1.002228e+20
1.005748e+20
1.013336e+20
1.016116e+20
1.003088e+20
1.002176e+20
1.001348e+20
1.00656e+20
1.009336e+20
1.000904e+20
1.005988e+20
1.005732e+20
1.007864e+20
1.013776e+20
1.003664e+20
1.00498e+20
1.009108e+20
1.011532e+20
1.01122e+20
9.99544e+19
1.0032e+20
1.007372e+20
1.010772e+20
1.015644e+20
1.000772e+20
1.001864e+20
1.00214e+20
1.004996e+20
1.007084e+20
9.98828e+19
1.003328e+20
1.000824e+20
1.001712e+20
1.007648e+20
1.000464e+20
1.003e+20
1.000472e+20
1.002572e+20
1.008496e+20
9.98032e+19
9.98008e+19
1.000248e+20
1.002024e+20
1.002764e+20
1.002076e+20
1.005172e+20
1.002644e+20
1.006832e+20
1.00362e+20
9.98728e+19
9.99056e+19
9.97372e+19
9.96864e+19
9.983e+19
9.98368e+19
1.002256e+20
1.003096e+20
1.000276e+20
9.98924e+19
1.003576e+20
1.002748e+20
1.007052e+20
1.02348e+20
1.074948e+20
1.000996e+20
1.001236e+20
1.008024e+20
1.01878e+20
1.056672e+20
1.002256e+20
1.004988e+20
1.007952e+20
1.02222e+20
1.043416e+20
1.002584e+20
1.006648e+20
1.010988e+20
1.019424e+20
1.03548e+20
1.00114e+20
9.99252e+19
1.006356e+20
1.014596e+20
1.0217e+20
1.002956e+20
1.004784e+20
1.001784e+20
1.004428e+20
1.008676e+20
1.000044e+20
1.00112e+20
1.004188e+20
1.002084e+20
1.009688e+20
1.001316e+20
1.00036e+20
1.0028e+20
1.006612e+20
1.011092e+20
9.983e+19
9.98148e+19
9.9782e+19
1.00234e+20
9.99724e+19
9.97752e+19
9.99552e+19
9.96572e+19
9.99048e+19
1.005816e+20
1.000832e+20
1.00022e+20
1.003876e+20
1.007508e+20
1.007216e+20
1.001612e+20
1.003152e+20
1.007032e+20
1.008612e+20
1.012184e+20
1.001776e+20
1.008536e+20
1.008632e+20
1.008216e+20
1.004984e+20
9.98844e+19
9.9458e+19
9.94724e+19
9.93624e+19
9.9714e+19
9.9892e+19
9.99036e+19
1.004196e+20
1.001372e+20
1.002456e+20
1.001604e+20
9.99468e+19
9.9598e+19
9.99576e+19
1.006152e+20
9.99256e+19
1.003112e+20
1.007636e+20
1.005092e+20
1.002372e+20
1.001868e+20
9.98532e+19
9.97776e+19
9.981e+19
9.99484e+19
1.00244e+20
1.004348e+20
1.009156e+20
1.020084e+20
1.069084e+20
1.00144e+20
1.00358e+20
1.012316e+20
1.025044e+20
1.059992e+20
1.002256e+20
1.00272e+20
1.007696e+20
1.01728e+20
1.04138e+20
1.00132e+20
1.00286e+20
1.007024e+20
1.016104e+20
1.027348e+20
1.001436e+20
1.006836e+20
1.011556e+20
1.016588e+20
1.025824e+20
1.000684e+20
1.001392e+20
1.00716e+20
1.0102e+20
1.019316e+20
9.99848e+19
1.001524e+20
1.002056e+20
1.007936e+20
1.011024e+20
1.002788e+20
1.00676e+20
1.007668e+20
1.012764e+20
1.01312e+20
1.004348e+20
1.008928e+20
1.011992e+20
1.012376e+20
1.011132e+20
1.002952e+20
1.00264e+20
1.002384e+20
1.002472e+20
1.003684e+20
1.000684e+20
1.002844e+20
1.00658e+20
1.006492e+20
1.00492e+20
1.001376e+20
1.000348e+20
9.97344e+19
9.97204e+19
9.98244e+19
1.001196e+20
9.99496e+19
9.98932e+19
1.001608e+20
1.00472e+20
1.000848e+20
1.001824e+20
1.001464e+20
1.003436e+20
1.004848e+20
1.000816e+20
9.98712e+19
9.98124e+19
1.002952e+20
1.004704e+20
9.9864e+19
1.000972e+20
1.002716e+20
1.004712e+20
1.008444e+20
1.000284e+20
1.002428e+20
1.000504e+20
1.004472e+20
1.003752e+20
9.99268e+19
9.99816e+19
1.003036e+20
1.005476e+20
1.006984e+20
1.001832e+20
1.00614e+20
1.008376e+20
1.021988e+20
1.068424e+20
1.003268e+20
1.00674e+20
1.013424e+20
1.027644e+20
1.058792e+20
1.000604e+20
1.000572e+20
1.003776e+20
1.01618e+20
1.036644e+20
1.000968e+20
1.001832e+20
1.002768e+20
1.00948e+20
1.017924e+20
1.00306e+20
1.004488e+20
1.00586e+20
1.010952e+20
1.020336e+20
1.000852e+20
1.004084e+20
1.005616e+20
1.009424e+20
1.01852e+20
1.0063e+20
1.008864e+20
1.012108e+20
1.011196e+20
1.015148e+20
9.9952e+19
9.98784e+19
9.98972e+19
1.003988e+20
1.009228e+20
1.00152e+20
9.9906e+19
1.001364e+20
1.006228e+20
1.010776e+20
9.99728e+19
9.99096e+19
1.000608e+20
1.004064e+20
1.004792e+20
1.001076e+20
9.99888e+19
1.0039e+20
1.003816e+20
1.004176e+20
9.957e+19
9.95836e+19
9.969e+19
9.9838e+19
1.002556e+20
1.000216e+20
1.00514e+20
1.004636e+20
1.007032e+20
1.006452e+20
9.98964e+19
1.000292e+20
1.003252e+20
1.002956e+20
1.003848e+20
1.001052e+20
1.00256e+20
1.003536e+20
1.001872e+20
1.003544e+20
9.9992e+19
9.98216e+19
9.96956e+19
9.95484e+19
9.9368e+19
1.001128e+20
1.002364e+20
1.000772e+20
1.000984e+20
9.9962e+19
1.000456e+20
1.003028e+20
1.000528e+20
9.99748e+19
1.000268e+20
9.9968e+19
1.004328e+20
1.009772e+20
1.021168e+20
1.069676e+20
1.000188e+20
1.00144e+20
1.006184e+20
1.022728e+20
1.051608e+20
1.00286e+20
1.010004e+20
1.015136e+20
1.0255e+20
1.045596e+20
9.9922e+19
9.98316e+19
1.00756e+20
1.013964e+20
1.023388e+20
9.98996e+19
9.993e+19
1.003348e+20
1.011736e+20
1.01896e+20
9.99632e+19
1.001488e+20
9.98568e+19
1.003424e+20
1.007992e+20
9.9958e+19
1.002272e+20
1.005032e+20
1.007356e+20
1.015912e+20
1.002228e+20
1.002528e+20
1.002544e+20
1.001992e+20
1.005216e+20
9.99016e+19
9.98504e+19
9.95632e+19
9.97236e+19
1.003008e+20
1.0005e+20
1.005612e+20
1.004608e+20
1.00488e+20
1.003512e+20
1.00278e+20
1.004212e+20
1.0064e+20
1.008188e+20
1.00758e+20
1.0026e+20
1.00532e+20
1.0008e+20
1.00112e+20
1.002184e+20
9.99064e+19
9.96164e+19
1.002172e+20
1.004868e+20
1.004064e+20
9.95628e+19
9.91984e+19
9.90776e+19
9.9256e+19
9.97724e+19
1.002832e+20
1.005076e+20
1.003032e+20
1.007376e+20
1.003008e+20
9.96688e+19
9.97832e+19
9.99936e+19
9.96248e+19
9.9866e+19
9.99628e+19
9.9364e+19
9.9256e+19
9.9246e+19
9.93412e+19
1.000536e+20
1.003112e+20
1.007736e+20
1.008272e+20
1.00928e+20
1.006964e+20
1.00842e+20
1.010628e+20
1.019272e+20
1.062928e+20
1.003356e+20
1.006896e+20
1.008176e+20
1.015908e+20
1.04858e+20
1.001748e+20
1.0038e+20
1.005216e+20
1.013612e+20
1.034476e+20
1.002968e+20
1.001712e+20
1.004844e+20
1.01e+20
1.021044e+20
1.001824e+20
1.002388e+20
1.005224e+20
1.007272e+20
1.012932e+20
1.0039e+20
1.00334e+20
1.004732e+20
1.007008e+20
1.013096e+20
1.001528e+20
1.00372e+20
1.004404e+20
1.005084e+20
1.004992e+20
9.98864e+19
1.000384e+20
1.001164e+20
1.00438e+20
1.007144e+20
1.002024e+20
1.001824e+20
1.004408e+20
1.008448e+20
1.011264e+20
1.000332e+20
9.9864e+19
1.003568e+20
1.004812e+20
1.004668e+20
9.95416e+19
9.92684e+19
9.88724e+19
9.90376e+19
9.93344e+19
1.003636e+20
1.002736e+20
1.005124e+20
9.98888e+19
1.001084e+20
9.95044e+19
9.9234e+19
9.93772e+19
9.94236e+19
9.95108e+19
1.000552e+20
1.00514e+20
1.004032e+20
1.004292e+20
1.002856e+20
9.97552e+19
9.97944e+19
9.98152e+19
9.99948e+19
9.98712e+19
9.99432e+19
9.9934e+19
1.001696e+20
1.00592e+20
1.009328e+20
1.000152e+20
1.000884e+20
1.002584e+20
9.9904e+19
9.96588e+19
9.99356e+19
9.96872e+19
9.94204e+19
9.9348e+19
9.97236e+19
9.99416e+19
9.99276e+19
1.004124e+20
1.013828e+20
1.060592e+20
1.001364e+20
1.002616e+20
1.00786e+20
1.017468e+20
1.051756e+20
9.9958e+19
9.99528e+19
1.004728e+20
1.011644e+20
1.027056e+20
1.001308e+20
1.003348e+20
1.00812e+20
1.017572e+20
1.029708e+20
1.000584e+20
1.00174e+20
1.003496e+20
1.00788e+20
1.012944e+20
1.000072e+20
1.00358e+20
1.003252e+20
1.004892e+20
1.002688e+20
1.0005e+20
1.003944e+20
1.0075e+20
1.014076e+20
1.021112e+20
1.001244e+20
1.003052e+20
1.00418e+20
1.0044e+20
1.006976e+20
9.99192e+19
9.93988e+19
9.9392e+19
9.95996e+19
9.97352e+19
1.003948e+20
1.007952e+20
1.008516e+20
1.006692e+20
1.004296e+20
1.001588e+20
1.001072e+20
1.00152e+20
1.006104e+20
1.006992e+20
1.001268e+20
1.001708e+20
9.98916e+19
9.96992e+19
9.97884e+19
1.001236e+20
1.00086e+20
1.00422e+20
1.003312e+20
1.00362e+20
1.000072e+20
1.00448e+20
1.00618e+20
1.006028e+20
1.004736e+20
1.003316e+20
1.000384e+20
9.94888e+19
9.93716e+19
9.96172e+19
9.97e+19
9.96036e+19
9.99448e+19
1.003288e+20
1.00652e+20
1.00334e+20
1.002472e+20
9.99752e+19
9.98768e+19
9.98956e+19
9.98412e+19
9.97116e+19
1.002472e+20
1.00212e+20
1.003008e+20
9.9942e+19
1.005276e+20
1.010196e+20
1.019324e+20
1.065748e+20
1.000996e+20
1.001784e+20
1.005372e+20
1.017152e+20
1.043864e+20
1.002504e+20
1.003248e+20
1.00978e+20
1.014432e+20
1.031584e+20
1.005356e+20
1.00724e+20
1.010188e+20
1.012472e+20
1.018424e+20
1.000708e+20
1.005812e+20
1.014016e+20
1.014684e+20
1.021472e+20
1.002812e+20
1.001496e+20
1.003324e+20
1.00348e+20
1.010452e+20
9.99508e+19
1e+20
1.001744e+20
1.00898e+20
1.009628e+20
9.99952e+19
1.000476e+20
9.99424e+19
9.96616e+19
9.97324e+19
9.9682e+19
9.91204e+19
9.90016e+19
9.92128e+19
1.000064e+20
9.99576e+19
1.000712e+20
1.005524e+20
1.005552e+20
1.004136e+20
1.001824e+20
1.004184e+20
1.002248e+20
1.004092e+20
1.000976e+20
9.98016e+19
9.95752e+19
9.96148e+19
1.000056e+20
1.001068e+20
1.000836e+20
1.004004e+20
1.003312e+20
1.004264e+20
1.005524e+20
1.0019e+20
1.002332e+20
1.006716e+20
1.006576e+20
1.007288e+20
9.99644e+19
1.00278e+20
1.004752e+20
1.003808e+20
1.003084e+20
1.002412e+20
9.9978e+19
1.001496e+20
9.98856e+19
9.9648e+19
9.97364e+19
9.98988e+19
9.96452e+19
9.97364e+19
9.99892e+19
9.99564e+19
1.001064e+20
1.002172e+20
1.00092e+20
9.96696e+19
9.99888e+19
9.95752e+19
9.9468e+19
1.005336e+20
1.05216e+20
1.000732e+20
1.004156e+20
1.004008e+20
1.009176e+20
1.03636e+20
1.000552e+20
1.003044e+20
1.00584e+20
1.012976e+20
1.0253e+20
1.000224e+20
1.000288e+20
9.99724e+19
1.004e+20
1.01284e+20
1.000392e+20
1.001944e+20
1.002868e+20
1.0083e+20
1.014664e+20
1.00386e+20
1.005136e+20
1.008984e+20
1.011584e+20
1.013268e+20
1.003276e+20
1.002096e+20
9.99316e+19
9.9872e+19
9.99224e+19
1.000228e+20
1.00116e+20
1.002396e+20
1.00524e+20
1.004488e+20
9.99252e+19
1.000368e+20
1.004664e+20
1.005848e+20
1.00574e+20
1.002564e+20
1.00328e+20
9.994e+19
9.97956e+19
9.96144e+19
1.003016e+20
1.004236e+20
1.009356e+20
1.007724e+20
1.011236e+20
9.98332e+19
9.9884e+19
9.9702e+19
9.96308e+19
9.99632e+19
9.99268e+19
9.9678e+19
9.96116e+19
9.97832e+19
9.96064e+19
9.9874e+19
1.000064e+20
1.001668e+20
1.001516e+20
9.99604e+19
9.97264e+19
9.93392e+19
9.91452e+19
9.91192e+19
9.89888e+19
1.000992e+20
1.003776e+20
1.0015e+20
1.002716e+20
1.000252e+20
9.99816e+19
9.9684e+19
9.96572e+19
9.9712e+19
9.97204e+19
9.98888e+19
1.000104e+20
1.001432e+20
1.002836e+20
1.003012e+20
1.001472e+20
1.004684e+20
1.007996e+20
1.011228e+20
1.043164e+20
1.003484e+20
1.001496e+20
1.002452e+20
1.010688e+20
1.030476e+20
1.001724e+20
1.007216e+20
1.010996e+20
1.015416e+20
1.01784e+20
9.99648e+19
9.99616e+19
1.001228e+20
1.002544e+20
1.00912e+20
1.00174e+20
1.001364e+20
1.003428e+20
1.003752e+20
1.008024e+20
9.96584e+19
9.95444e+19
9.95416e+19
9.97692e+19
1.00008e+20
9.99284e+19
1.002504e+20
1.001272e+20
1.0057e+20
1.010928e+20
1.000768e+20
1.000796e+20
1.003868e+20
1.001444e+20
1.005588e+20
9.99824e+19
1.001796e+20
1.003184e+20
1.004488e+20
1.00158e+20
9.98568e+19
9.99992e+19
9.99724e+19
1.000188e+20
1.00114e+20
1.000068e+20
9.99984e+19
1.002392e+20
1.003948e+20
1.00356e+20
1.001488e+20
1.004824e+20
1.001544e+20
9.99952e+19
9.98852e+19
1.001092e+20
9.98504e+19
9.99112e+19
9.986e+19
1.001096e+20
9.99136e+19
9.9874e+19
1.0007e+20
1.002552e+20
1.00438e+20
1.001012e+20
1.000824e+20
9.99336e+19
9.97768e+19
1.000044e+20
1.002696e+20
1.003012e+20
1.000176e+20
1.001264e+20
9.9966e+19
1.002088e+20
1.002164e+20
1.005756e+20
1.004624e+20
1.004312e+20
9.98904e+19
9.99748e+19
9.9936e+19
9.98132e+19
1.001356e+20
1.685632e+20
1.903268e+20
1.99452e+20
2.040988e+20
2.05194e+20
2.063692e+20
2.030704e+20
2.038672e+20
2.01574e+20
1.99968e+20
2.016476e+20
1.993984e+20
1.96648e+20
1.94858e+20
1.905764e+20
1.869164e+20
1.809156e+20
1.750268e+20
1.704696e+20
1.609612e+20
1.538564e+20
1.423228e+20
1.271204e+20
1.1098e+20
8.49424e+19
1.485352e+20
1.705016e+20
1.848568e+20
1.91444e+20
1.955784e+20
1.974764e+20
1.958496e+20
1.94354e+20
1.96044e+20
1.925688e+20
1.92728e+20
1.904792e+20
1.861276e+20
1.839828e+20
1.805288e+20
1.776012e+20
1.735012e+20
1.678316e+20
1.633152e+20
1.5561e+20
1.463232e+20
1.366232e+20
1.254148e+20
1.09076e+20
8.62312e+19
1.388528e+20
1.544572e+20
1.668904e+20
1.755952e+20
1.810104e+20
1.837236e+20
1.88194e+20
1.873476e+20
1.863924e+20
1.85364e+20
1.84212e+20
1.852552e+20
1.835184e+20
1.79476e+20
1.767004e+20
1.746232e+20
1.683456e+20
1.628964e+20
1.580292e+20
1.528116e+20
1.441784e+20
1.350148e+20
1.246516e+20
1.097988e+20
8.87624e+19
1.340984e+20
1.46464e+20
1.548796e+20
1.615756e+20
1.666516e+20
1.72206e+20
1.767788e+20
1.790676e+20
1.805544e+20
1.804456e+20
1.803164e+20
1.800016e+20
1.78232e+20
1.75582e+20
1.725284e+20
1.70122e+20
1.666472e+20
1.608912e+20
1.564864e+20
1.496184e+20
1.427948e+20
1.345224e+20
1.248604e+20
1.106064e+20
9.1472e+19
1.309504e+20
1.39074e+20
1.467828e+20
1.523812e+20
1.567772e+20
1.614268e+20
1.667876e+20
1.695156e+20
1.726876e+20
1.7391e+20
1.722528e+20
1.74424e+20
1.736092e+20
1.719532e+20
1.693448e+20
1.66306e+20
1.601984e+20
1.579088e+20
1.542292e+20
1.491976e+20
1.415048e+20
1.345968e+20
1.248152e+20
1.117436e+20
9.3108e+19
1.28336e+20
1.369208e+20
1.419208e+20
1.450572e+20
1.480308e+20
1.527628e+20
1.565576e+20
1.611108e+20
1.643136e+20
1.66638e+20
1.670824e+20
1.681768e+20
1.695176e+20
1.666208e+20
1.633152e+20
1.617176e+20
1.593308e+20
1.559476e+20
1.522768e+20
1.465548e+20
1.4091e+20
1.329624e+20
1.2426e+20
1.123652e+20
9.55612e+19
1.257088e+20
1.323396e+20
1.372044e+20
1.388432e+20
1.412944e+20
1.440652e+20
1.48574e+20
1.513308e+20
1.551132e+20
1.583988e+20
1.603224e+20
1.594736e+20
1.611136e+20
1.621656e+20
1.5916e+20
1.578492e+20
1.55216e+20
1.522284e+20
1.495412e+20
1.44918e+20
1.388692e+20
1.327828e+20
1.233328e+20
1.135916e+20
9.80088e+19
1.259936e+20
1.325172e+20
1.343292e+20
1.360364e+20
1.380512e+20
1.39416e+20
1.429312e+20
1.460788e+20
1.478708e+20
1.499432e+20
1.511232e+20
1.533996e+20
1.534948e+20
1.559592e+20
1.525072e+20
1.547676e+20
1.521836e+20
1.488028e+20
1.452752e+20
1.405048e+20
1.357932e+20
1.307424e+20
1.22898e+20
1.125264e+20
9.7766e+19
1.267056e+20
1.31916e+20
1.325908e+20
1.316164e+20
1.323404e+20
1.33942e+20
1.357056e+20
1.38428e+20
1.394276e+20
1.430152e+20
1.449492e+20
1.461148e+20
1.475384e+20
1.484704e+20
1.480684e+20
1.479408e+20
1.46632e+20
1.44016e+20
1.419512e+20
1.383548e+20
1.345772e+20
1.294236e+20
1.213424e+20
1.127212e+20
9.72288e+19
1.2445e+20
1.2945e+20
1.303464e+20
1.312212e+20
1.301992e+20
1.297052e+20
1.310888e+20
1.319012e+20
1.348608e+20
1.352184e+20
1.385608e+20
1.40172e+20
1.415868e+20
1.418668e+20
1.420136e+20
1.402348e+20
1.394924e+20
1.384012e+20
1.361864e+20
1.35338e+20
1.29748e+20
1.250468e+20
1.185968e+20
1.108496e+20
9.6286e+19
1.232536e+20
1.285736e+20
1.288936e+20
1.288796e+20
1.277316e+20
1.278176e+20
1.27816e+20
1.272932e+20
1.290344e+20
1.295604e+20
1.299864e+20
1.327108e+20
1.351372e+20
1.35824e+20
1.345792e+20
1.3381e+20
1.326664e+20
1.316056e+20
1.311128e+20
1.277448e+20
1.253924e+20
1.201636e+20
1.150884e+20
1.08056e+20
9.36528e+19
1.230756e+20
1.278424e+20
1.282492e+20
1.268548e+20
1.24938e+20
1.224812e+20
1.22854e+20
1.230876e+20
1.227784e+20
1.253136e+20
1.248808e+20
1.27564e+20
1.279592e+20
1.278476e+20
1.275852e+20
1.280144e+20
1.270776e+20
1.265444e+20
1.234984e+20
1.21888e+20
1.206664e+20
1.173624e+20
1.109016e+20
1.052016e+20
9.1082e+19
1.232056e+20
1.2806e+20
1.28162e+20
1.253928e+20
1.224036e+20
1.208684e+20
1.20918e+20
1.21132e+20
1.198648e+20
1.198032e+20
1.191448e+20
1.188956e+20
1.206528e+20
1.21672e+20
1.201384e+20
1.205468e+20
1.192644e+20
1.199524e+20
1.190152e+20
1.175692e+20
1.147804e+20
1.117116e+20
1.076392e+20
1.017412e+20
8.81992e+19
1.229236e+20
1.270816e+20
1.275968e+20
1.248312e+20
1.22688e+20
1.205764e+20
1.170528e+20
1.164552e+20
1.147732e+20
1.143096e+20
1.140012e+20
1.125048e+20
1.12854e+20
1.12726e+20
1.131048e+20
1.120332e+20
1.135844e+20
1.136908e+20
1.121992e+20
1.121932e+20
1.096296e+20
1.0752e+20
1.027076e+20
9.758e+19
8.56172e+19
1.219036e+20
1.254092e+20
1.24608e+20
1.224848e+20
1.192628e+20
1.178032e+20
1.1368e+20
1.116584e+20
1.1012e+20
1.07816e+20
1.071908e+20
1.057908e+20
1.079248e+20
1.067304e+20
1.063088e+20
1.076492e+20
1.07374e+20
1.072476e+20
1.054476e+20
1.06128e+20
1.033292e+20
1.023072e+20
9.8516e+19
9.39888e+19
8.17224e+19
1.213428e+20
1.2427e+20
1.230352e+20
1.196616e+20
1.169396e+20
1.132532e+20
1.096224e+20
1.0733e+20
1.0568e+20
1.037108e+20
1.024112e+20
1.0216e+20
1.011564e+20
1.012324e+20
1.009788e+20
1.010068e+20
1.012456e+20
1.00494e+20
1.007716e+20
1.00792e+20
9.97712e+19
9.74272e+19
9.45184e+19
8.99584e+19
8.13496e+19
1.200452e+20
1.223828e+20
1.199948e+20
1.156104e+20
1.1171e+20
1.076552e+20
1.042372e+20
1.020652e+20
9.95968e+19
9.77172e+19
9.7096e+19
9.71812e+19
9.63748e+19
9.6566e+19
9.56408e+19
9.61136e+19
9.58312e+19
9.60372e+19
9.72312e+19
9.5846e+19
9.54264e+19
9.45312e+19
9.19852e+19
8.91136e+19
7.8756e+19
1.14832e+20
1.152376e+20
1.117872e+20
1.086084e+20
1.051388e+20
1.029388e+20
1.000016e+20
9.89648e+19
9.77268e+19
9.75296e+19
9.57416e+19
9.65944e+19
9.6614e+19
9.65436e+19
9.74156e+19
9.5668e+19
9.72408e+19
9.71716e+19
9.82532e+19
9.76876e+19
9.64088e+19
9.67324e+19
9.52152e+19
9.3118e+19
8.68556e+19
1.486868e+20
1.699968e+20
1.829424e+20
1.912744e+20
1.939572e+20
1.961488e+20
1.959404e+20
1.937344e+20
1.937256e+20
1.922436e+20
1.918804e+20
1.908624e+20
1.89086e+20
1.852128e+20
1.812388e+20
1.792164e+20
1.73782e+20
1.678032e+20
1.614756e+20
1.55386e+20
1.480196e+20
1.37808e+20
1.237864e+20
1.092112e+20
8.71872e+19
1.327304e+20
1.54192e+20
1.71276e+20
1.828844e+20
1.878576e+20
1.892912e+20
1.892128e+20
1.8663e+20
1.837124e+20
1.83566e+20
1.803244e+20
1.79166e+20
1.75746e+20
1.72726e+20
1.7142e+20
1.674012e+20
1.634992e+20
1.598012e+20
1.541148e+20
1.487504e+20
1.416216e+20
1.313708e+20
1.19944e+20
1.067584e+20
8.63816e+19
1.248736e+20
1.402652e+20
1.57128e+20
1.703124e+20
1.779004e+20
1.813792e+20
1.834884e+20
1.832384e+20
1.804608e+20
1.7834e+20
1.74608e+20
1.73628e+20
1.710084e+20
1.675864e+20
1.65832e+20
1.618564e+20
1.593996e+20
1.548724e+20
1.494032e+20
1.437832e+20
1.371536e+20
1.283508e+20
1.18242e+20
1.055432e+20
8.77728e+19
1.205192e+20
1.331868e+20
1.467568e+20
1.57398e+20
1.660292e+20
1.715736e+20
1.739552e+20
1.75136e+20
1.748976e+20
1.74904e+20
1.732184e+20
1.716632e+20
1.686496e+20
1.657444e+20
1.640196e+20
1.60684e+20
1.57192e+20
1.51854e+20
1.472352e+20
1.422496e+20
1.362892e+20
1.29392e+20
1.191196e+20
1.066484e+20
9.1364e+19
1.178768e+20
1.298952e+20
1.415056e+20
1.50054e+20
1.56988e+20
1.626248e+20
1.677508e+20
1.70182e+20
1.703504e+20
1.702444e+20
1.682344e+20
1.682568e+20
1.653944e+20
1.636504e+20
1.60854e+20
1.590412e+20
1.538768e+20
1.5086e+20
1.465356e+20
1.397596e+20
1.357332e+20
1.266116e+20
1.193032e+20
1.085696e+20
9.48008e+19
1.16858e+20
1.267204e+20
1.3606e+20
1.443128e+20
1.515052e+20
1.566868e+20
1.589208e+20
1.617496e+20
1.645596e+20
1.6579e+20
1.646744e+20
1.638892e+20
1.615248e+20
1.606484e+20
1.58584e+20
1.563728e+20
1.52474e+20
1.486844e+20
1.44044e+20
1.388628e+20
1.340132e+20
1.281544e+20
1.203672e+20
1.090492e+20
9.45024e+19
1.154092e+20
1.25262e+20
1.338144e+20
1.409968e+20
1.459088e+20
1.505836e+20
1.531208e+20
1.564972e+20
1.579528e+20
1.588588e+20
1.594904e+20
1.579868e+20
1.582264e+20
1.568744e+20
1.549128e+20
1.514216e+20
1.491144e+20
1.467684e+20
1.434196e+20
1.377312e+20
1.34512e+20
1.281824e+20
1.206196e+20
1.106636e+20
9.5518e+19
1.142552e+20
1.2319e+20
1.307204e+20
1.374004e+20
1.421556e+20
1.448436e+20
1.489264e+20
1.501652e+20
1.508512e+20
1.525988e+20
1.536052e+20
1.535908e+20
1.524904e+20
1.512132e+20
1.5025e+20
1.48704e+20
1.458584e+20
1.438816e+20
1.400572e+20
1.365188e+20
1.32022e+20
1.261568e+20
1.18862e+20
1.09708e+20
9.6456e+19
1.131888e+20
1.214604e+20
1.285728e+20
1.34522e+20
1.389188e+20
1.418984e+20
1.444104e+20
1.454836e+20
1.467144e+20
1.474376e+20
1.479752e+20
1.480656e+20
1.48916e+20
1.464828e+20
1.458988e+20
1.441532e+20
1.426704e+20
1.405256e+20
1.380632e+20
1.347276e+20
1.297392e+20
1.24446e+20
1.178588e+20
1.095488e+20
9.604e+19
1.120904e+20
1.202944e+20
1.266996e+20
1.332228e+20
1.362476e+20
1.389192e+20
1.400344e+20
1.411808e+20
1.408836e+20
1.409744e+20
1.41814e+20
1.415348e+20
1.411616e+20
1.410932e+20
1.418916e+20
1.3949e+20
1.375676e+20
1.356936e+20