/*--------------------------------*- C++ -*----------------------------------*\
| =========                 |                                                 |
| \\      /  F ield         | OpenFOAM: The Open Source CFD Toolbox           |
|  \\    /   O peration     | Version:  v1706                                 |
|   \\  /    A nd           | Web:      www.OpenFOAM.com                      |
|    \\/     M anipulation  |                                                 |
\*---------------------------------------------------------------------------*/
FoamFile
{
    version     2.0;
    format      ascii;
    class       volScalarField;
    location    "0.003";
    object      rhoN_Ar;
}
// * * * * * * * * * * * * * * * * * * * * * * * * * * * * * * * * * * * * * //

dimensions      [0 -3 0 0 0 0 0];


internalField   nonuniform List<scalar> 
9720
(
1.006124e+20
1.013044e+20
1.02242e+20
1.055048e+20
1.197136e+20
1.004256e+20
1.010684e+20
1.024916e+20
1.062244e+20
1.1716e+20
1.00516e+20
1.011812e+20
1.022896e+20
1.05354e+20
1.137132e+20
1.00394e+20
1.010536e+20
1.021864e+20
1.045832e+20
1.118412e+20
1.003384e+20
1.011772e+20
1.021564e+20
1.046924e+20
1.109608e+20
1.003724e+20
1.007012e+20
1.019224e+20
1.03564e+20
1.095072e+20
1.000812e+20
1.0011e+20
1.005836e+20
1.023064e+20
1.0842e+20
1.002296e+20
1.008148e+20
1.011068e+20
1.02502e+20
1.082388e+20
1.00268e+20
1.004368e+20
1.012148e+20
1.02622e+20
1.073348e+20
1.003492e+20
1.004984e+20
1.009124e+20
1.021924e+20
1.072232e+20
1.0024e+20
1.0061e+20
1.007068e+20
1.021152e+20
1.070496e+20
9.98768e+19
9.98576e+19
1.005024e+20
1.015756e+20
1.065964e+20
1.002576e+20
1.004112e+20
1.0106e+20
1.019836e+20
1.069e+20
1.004216e+20
1.007216e+20
1.011964e+20
1.021436e+20
1.065872e+20
1.000268e+20
1.000152e+20
9.99936e+19
1.010668e+20
1.061288e+20
9.99724e+19
1.001508e+20
1.007024e+20
1.019788e+20
1.068328e+20
1.000848e+20
1.001488e+20
1.00766e+20
1.01238e+20
1.0496e+20
9.98804e+19
1.002052e+20
1.002784e+20
1.003824e+20
1.029876e+20
1.00572e+20
1.009892e+20
1.026328e+20
1.063896e+20
1.178896e+20
1.005844e+20
1.01128e+20
1.024824e+20
1.062736e+20
1.144588e+20
1.006564e+20
1.009844e+20
1.022912e+20
1.052728e+20
1.123084e+20
1.002612e+20
1.011876e+20
1.027768e+20
1.047568e+20
1.107004e+20
1.007796e+20
1.006816e+20
1.01774e+20
1.035976e+20
1.091388e+20
1.003288e+20
1.009588e+20
1.01866e+20
1.034012e+20
1.076148e+20
1.005628e+20
1.009704e+20
1.01504e+20
1.030156e+20
1.072864e+20
1.001884e+20
1.00626e+20
1.01206e+20
1.024568e+20
1.06352e+20
1.00396e+20
1.006256e+20
1.00776e+20
1.024792e+20
1.064548e+20
1.002064e+20
1.00632e+20
1.0158e+20
1.024768e+20
1.059868e+20
1.004224e+20
1.005016e+20
1.011744e+20
1.02784e+20
1.058304e+20
1.004988e+20
1.007744e+20
1.010072e+20
1.024268e+20
1.053092e+20
1.001636e+20
1.00602e+20
1.01498e+20
1.02528e+20
1.058984e+20
1.000828e+20
1.003572e+20
1.0046e+20
1.019228e+20
1.052876e+20
1.003636e+20
1.007072e+20
1.014408e+20
1.023948e+20
1.057872e+20
1.002592e+20
1.00956e+20
1.011176e+20
1.025684e+20
1.05232e+20
9.99904e+19
1.0035e+20
1.005752e+20
1.013716e+20
1.043424e+20
1.001544e+20
1.000648e+20
1.000572e+20
1.006128e+20
1.0263e+20
1.0046e+20
1.009212e+20
1.022916e+20
1.053248e+20
1.148376e+20
1.001476e+20
1.011072e+20
1.023248e+20
1.051524e+20
1.12208e+20
1.004016e+20
1.01238e+20
1.020408e+20
1.043536e+20
1.090732e+20
1.004384e+20
1.006576e+20
1.023004e+20
1.045628e+20
1.084872e+20
1.003968e+20
1.012156e+20
1.017116e+20
1.033428e+20
1.067832e+20
1.0045e+20
1.010592e+20
1.016448e+20
1.02938e+20
1.063632e+20
1.000804e+20
1.004912e+20
1.012464e+20
1.028896e+20
1.058316e+20
1.001904e+20
1.003252e+20
1.011676e+20
1.02558e+20
1.048336e+20
1.002268e+20
1.008528e+20
1.01528e+20
1.026608e+20
1.047884e+20
1.000688e+20
1.00042e+20
1.003612e+20
1.016412e+20
1.037972e+20
1.000044e+20
1.003632e+20
1.010164e+20
1.020076e+20
1.040352e+20
1.00088e+20
1.001796e+20
1.008716e+20
1.01716e+20
1.04076e+20
1.001636e+20
1.001236e+20
1.009604e+20
1.019728e+20
1.039176e+20
1.000792e+20
1.00172e+20
1.006872e+20
1.011796e+20
1.029376e+20
1.001468e+20
1.002856e+20
1.001464e+20
1.00968e+20
1.022604e+20
9.99256e+19
1.000424e+20
1.007528e+20
1.01038e+20
1.026396e+20
1.002384e+20
1.002596e+20
1.009452e+20
1.016088e+20
1.029372e+20
9.98076e+19
9.99848e+19
1.005776e+20
1.01238e+20
1.017848e+20
1.003084e+20
1.010124e+20
1.020492e+20
1.051468e+20
1.12936e+20
1.004832e+20
1.011248e+20
1.02026e+20
1.04512e+20
1.102552e+20
1.00192e+20
1.005144e+20
1.016288e+20
1.039236e+20
1.078156e+20
1.004396e+20
1.010244e+20
1.024548e+20
1.040532e+20
1.069436e+20
1.000436e+20
1.005792e+20
1.011716e+20
1.026092e+20
1.058916e+20
1.000168e+20
1.006416e+20
1.016256e+20
1.031936e+20
1.046908e+20
1.004296e+20
1.009272e+20
1.01482e+20
1.017108e+20
1.036408e+20
1.002324e+20
1.005196e+20
1.00826e+20
1.015168e+20
1.029196e+20
1.0038e+20
1.006376e+20
1.011704e+20
1.02568e+20
1.038352e+20
1.001412e+20
1.005236e+20
1.009832e+20
1.018528e+20
1.036148e+20
1.004328e+20
1.008888e+20
1.014888e+20
1.018144e+20
1.02714e+20
1.00102e+20
1.001912e+20
1.006144e+20
1.011404e+20
1.028192e+20
1.001848e+20
1.005204e+20
1.00902e+20
1.0169e+20
1.028152e+20
1.000008e+20
1.000504e+20
1.0026e+20
1.008324e+20
1.021652e+20
9.9962e+19
1.003944e+20
1.011792e+20
1.021032e+20
1.026956e+20
1.000704e+20
9.98872e+19
9.97788e+19
1.004716e+20
1.017076e+20
1.003372e+20
1.006208e+20
1.006372e+20
1.013264e+20
1.01758e+20
1.001544e+20
9.9926e+19
9.9832e+19
9.99608e+19
1.00854e+20
1.00598e+20
1.010412e+20
1.021592e+20
1.039024e+20
1.110132e+20
1.002788e+20
1.007132e+20
1.018588e+20
1.03912e+20
1.09018e+20
1.001236e+20
1.004668e+20
1.010716e+20
1.031664e+20
1.065008e+20
1.00312e+20
1.009824e+20
1.018356e+20
1.027188e+20
1.049184e+20
1.002404e+20
1.006976e+20
1.016052e+20
1.026116e+20
1.045784e+20
1.004936e+20
1.006576e+20
1.013316e+20
1.027752e+20
1.043968e+20
1.002336e+20
1.002112e+20
1.00646e+20
1.01772e+20
1.03418e+20
1.002436e+20
1.007368e+20
1.009908e+20
1.017596e+20
1.029048e+20
1.002556e+20
1.002296e+20
1.00636e+20
1.011256e+20
1.02312e+20
1.001132e+20
1.003744e+20
1.00502e+20
1.016864e+20
1.022556e+20
1.001596e+20
1.005528e+20
1.007884e+20
1.013376e+20
1.020572e+20
1.000824e+20
1.003048e+20
1.005236e+20
1.010968e+20
1.018268e+20
1.002404e+20
1.002132e+20
1.000976e+20
1.006184e+20
1.012448e+20
1.000748e+20
1.00136e+20
1.001068e+20
1.005812e+20
1.015992e+20
1.00266e+20
1.004308e+20
1.0063e+20
1.009508e+20
1.015608e+20
1.003028e+20
1.00986e+20
1.013392e+20
1.015804e+20
1.022316e+20
9.99984e+19
1.001548e+20
1.004512e+20
1.004588e+20
1.012308e+20
9.99872e+19
1.000028e+20
1.002188e+20
1.004492e+20
1.001884e+20
1.002872e+20
1.0096e+20
1.017928e+20
1.037052e+20
1.0989e+20
1.003684e+20
1.008644e+20
1.019044e+20
1.043544e+20
1.089012e+20
1.002592e+20
1.004068e+20
1.017228e+20
1.03278e+20
1.061132e+20
1.0015e+20
1.009784e+20
1.014892e+20
1.028696e+20
1.051836e+20
1.00222e+20
1.003456e+20
1.011532e+20
1.022964e+20
1.036984e+20
1.003648e+20
1.007412e+20
1.012376e+20
1.018136e+20
1.034056e+20
1.001536e+20
1.002672e+20
1.00772e+20
1.014772e+20
1.023548e+20
1.001264e+20
1.000244e+20
1.002932e+20
1.011956e+20
1.024428e+20
9.98964e+19
9.99916e+19
1.000924e+20
1.00514e+20
1.01136e+20
9.99428e+19
1.00278e+20
1.007172e+20
1.010884e+20
1.021152e+20
1.000908e+20
9.98976e+19
9.99236e+19
1.007004e+20
1.01054e+20
1.00354e+20
1.008664e+20
1.013012e+20
1.016008e+20
1.019996e+20
1.003088e+20
1.007252e+20
1.011048e+20
1.01574e+20
1.022724e+20
1.002948e+20
1.00348e+20
1.003592e+20
1.007388e+20
1.01394e+20
9.98912e+19
9.99624e+19
1.003216e+20
1.004368e+20
1.00766e+20
9.9754e+19
9.97424e+19
1.00018e+20
1.002928e+20
1.010544e+20
1.003544e+20
1.005452e+20
1.00604e+20
1.007876e+20
1.009464e+20
9.99412e+19
9.98588e+19
9.97196e+19
1.001672e+20
1.0077e+20
9.99876e+19
1.003252e+20
1.007992e+20
1.026596e+20
1.089812e+20
1.002568e+20
1.006676e+20
1.01702e+20
1.029936e+20
1.069212e+20
1.006804e+20
1.01148e+20
1.0143e+20
1.026196e+20
1.05802e+20
1.001248e+20
1.0032e+20
1.008228e+20
1.023604e+20
1.042396e+20
1.002108e+20
1.008604e+20
1.017084e+20
1.019132e+20
1.031464e+20
1.002208e+20
1.005272e+20
1.012268e+20
1.01826e+20
1.030472e+20
1.001776e+20
1.007044e+20
1.00986e+20
1.010336e+20
1.019524e+20
1.001112e+20
1.001884e+20
1.006356e+20
1.009456e+20
1.012476e+20
1.002244e+20
1.006416e+20
1.005028e+20
1.013844e+20
1.017704e+20
1.003424e+20
1.008476e+20
1.013412e+20
1.014736e+20
1.015804e+20
9.98572e+19
9.9892e+19
1.000472e+20
1.003604e+20
1.0113e+20
1.003588e+20
1.003484e+20
1.006456e+20
1.00618e+20
1.011868e+20
1.000816e+20
9.99904e+19
1.00342e+20
1.00762e+20
1.010004e+20
9.99384e+19
1.00364e+20
1.007632e+20
1.010484e+20
1.01032e+20
9.98208e+19
9.9882e+19
1.000536e+20
1.006616e+20
1.012208e+20
1.00152e+20
1.004492e+20
1.0048e+20
1.00306e+20
1.00518e+20
9.99976e+19
9.99696e+19
9.97764e+19
9.98548e+19
1.005272e+20
9.99312e+19
1.000336e+20
1.004604e+20
1.005228e+20
1.005152e+20
1.006312e+20
1.011328e+20
1.015804e+20
1.03116e+20
1.09126e+20
1.000564e+20
1.001724e+20
1.00794e+20
1.028232e+20
1.072312e+20
1.001836e+20
1.004796e+20
1.011672e+20
1.025988e+20
1.04782e+20
1.000768e+20
1.004188e+20
1.010688e+20
1.01766e+20
1.037148e+20
1.00048e+20
1.003236e+20
1.009112e+20
1.018996e+20
1.030844e+20
1.001696e+20
1.003236e+20
1.005492e+20
1.010484e+20
1.019968e+20
9.99912e+19
1.004484e+20
1.0088e+20
1.013268e+20
1.021652e+20
1.002172e+20
1.001616e+20
1.001548e+20
1.00664e+20
1.011432e+20
1.001736e+20
1.004124e+20
1.006588e+20
1.007296e+20
1.007148e+20
9.9982e+19
1.000832e+20
1.000732e+20
1.00332e+20
1.00798e+20
9.99984e+19
1.000332e+20
1.000628e+20
1.003256e+20
1.005452e+20
1.002148e+20
1.005532e+20
1.011064e+20
1.012252e+20
1.008348e+20
1.001236e+20
1.001352e+20
1.00178e+20
1.007128e+20
1.009656e+20
9.99504e+19
9.98916e+19
9.9848e+19
1.000216e+20
1.00454e+20
1.001156e+20
1.002264e+20
1.002276e+20
1.00212e+20
1.005584e+20
1.001836e+20
1.005856e+20
1.004864e+20
1.005828e+20
1.006728e+20
9.986e+19
9.99144e+19
1.00088e+20
1.00116e+20
1.002296e+20
1.000708e+20
1.00108e+20
9.99916e+19
1.003412e+20
1.00222e+20
1.001456e+20
1.003628e+20
1.012812e+20
1.029248e+20
1.079552e+20
1.004252e+20
1.00828e+20
1.014508e+20
1.0286e+20
1.065324e+20
9.98724e+19
1.001528e+20
1.005068e+20
1.015072e+20
1.045192e+20
1.006496e+20
1.011104e+20
1.010324e+20
1.01742e+20
1.034412e+20
1.002696e+20
1.001188e+20
1.004632e+20
1.011708e+20
1.023556e+20
1.000104e+20
1.0031e+20
1.005804e+20
1.013264e+20
1.020252e+20
1.000772e+20
1.002548e+20
1.006352e+20
1.009864e+20
1.015568e+20
1.002588e+20
1.005628e+20
1.00596e+20
1.009764e+20
1.018832e+20
1.00164e+20
1.004668e+20
1.00684e+20
1.005652e+20
1.007116e+20
1.002168e+20
1.000964e+20
1.003732e+20
1.006012e+20
1.013184e+20
1.00152e+20
9.99828e+19
1.001304e+20
1.005172e+20
1.00456e+20
9.98304e+19
9.99768e+19
9.98772e+19
1.00388e+20
1.00644e+20
1.002592e+20
9.9994e+19
9.99696e+19
1.003772e+20
1.011488e+20
1.00186e+20
1.004504e+20
1.005984e+20
1.005468e+20
1.00754e+20
9.9936e+19
9.99728e+19
1.002868e+20
1.000748e+20
1.003168e+20
9.99964e+19
1.001624e+20
1.003232e+20
1.006268e+20
1.00942e+20
1.00164e+20
1.001652e+20
9.99916e+19
1.00248e+20
1.003148e+20
1.00072e+20
1.000404e+20
1.000832e+20
9.99424e+19
9.99448e+19
1.003048e+20
1.0067e+20
1.01108e+20
1.024068e+20
1.073968e+20
1.00162e+20
1.001404e+20
1.007124e+20
1.021016e+20
1.060676e+20
1.002444e+20
1.007008e+20
1.015488e+20
1.026456e+20
1.048028e+20
1.001164e+20
1.008308e+20
1.013956e+20
1.020864e+20
1.033068e+20
9.99352e+19
1.002076e+20
1.006004e+20
1.011796e+20
1.021448e+20
1.00096e+20
1.002728e+20
1.005604e+20
1.011888e+20
1.01626e+20
1.000296e+20
1.00022e+20
1.004228e+20
1.003868e+20
1.011332e+20
1.003376e+20
1.002668e+20
1.008816e+20
1.010884e+20
1.013992e+20
1.003568e+20
1.00376e+20
1.003728e+20
1.009164e+20
1.011432e+20
9.98436e+19
1.00184e+20
1.000808e+20
1.002616e+20
1.0011e+20
1.00142e+20
1.00226e+20
9.99916e+19
9.99104e+19
1.001412e+20
1.001164e+20
1.002152e+20
1.003932e+20
1.005264e+20
1.001788e+20
9.99752e+19
1.002368e+20
1.007416e+20
1.00842e+20
1.012508e+20
1.000812e+20
1.000144e+20
1.002172e+20
1.005032e+20
1.00336e+20
9.9856e+19
9.9642e+19
9.94048e+19
9.95704e+19
1.00002e+20
1.001884e+20
1.002264e+20
1.001624e+20
1.00176e+20
1.001776e+20
1.00308e+20
1.004072e+20
1.002412e+20
1.004076e+20
1.004408e+20
9.97676e+19
9.93536e+19
9.95632e+19
9.94788e+19
9.9502e+19
1.002416e+20
1.002368e+20
1.0072e+20
1.023772e+20
1.071308e+20
1.002948e+20
1.00802e+20
1.015276e+20
1.02628e+20
1.063292e+20
1.001012e+20
1.005968e+20
1.00856e+20
1.01796e+20
1.039316e+20
1.001788e+20
1.00218e+20
1.003052e+20
1.009532e+20
1.024304e+20
1.001248e+20
9.9856e+19
1.002808e+20
1.01234e+20
1.02388e+20
1.003972e+20
1.00574e+20
1.007316e+20
1.01086e+20
1.021704e+20
1.000176e+20
1.00076e+20
1.004936e+20
1.009416e+20
1.01418e+20
1.002108e+20
1.002364e+20
1.002816e+20
1.006676e+20
1.005584e+20
1.001416e+20
1.001804e+20
1.001332e+20
1.00122e+20
1.005856e+20
1.000548e+20
1.004244e+20
1.00746e+20
1.009408e+20
1.01396e+20
1.001312e+20
1.001312e+20
1.00154e+20
9.99996e+19
1.001592e+20
1.003204e+20
1.003208e+20
9.98864e+19
9.95772e+19
9.982e+19
1.002412e+20
1.00138e+20
1.00078e+20
1.001496e+20
1.000516e+20
9.99588e+19
1.000412e+20
1.001668e+20
1.00442e+20
1.006952e+20
9.97116e+19
1.000612e+20
1.001764e+20
1.000052e+20
9.98508e+19
1.002e+20
1.000572e+20
1.003148e+20
1.002788e+20
1.004288e+20
9.97576e+19
9.97452e+19
9.97072e+19
9.97952e+19
1.005204e+20
1.001808e+20
1.003136e+20
1.006392e+20
1.005888e+20
1.00396e+20
1.00292e+20
1.006832e+20
1.009732e+20
1.017492e+20
1.067284e+20
9.99756e+19
1.005364e+20
1.009996e+20
1.023528e+20
1.05452e+20
1.003088e+20
1.003592e+20
1.009096e+20
1.022896e+20
1.040436e+20
9.99156e+19
1.00072e+20
1.002768e+20
1.006572e+20
1.015212e+20
1.00044e+20
1.003412e+20
1.004828e+20
1.01112e+20
1.021108e+20
1.00134e+20
1.002236e+20
1.001384e+20
1.004436e+20
1.008792e+20
1.00164e+20
1.003588e+20
1.007612e+20
1.012972e+20
1.017068e+20
1.000916e+20
1.00304e+20
1.009024e+20
1.008692e+20
1.012068e+20
9.98676e+19
9.94752e+19
9.94948e+19
9.97332e+19
1.000432e+20
1.0011e+20
1.000176e+20
1.000816e+20
1.005e+20
1.00604e+20
1.0023e+20
1.000632e+20
1.005328e+20
1.010688e+20
1.008676e+20
9.99e+19
9.99416e+19
1.002452e+20
9.99812e+19
9.98472e+19
9.9896e+19
9.9908e+19
1.001724e+20
1.004468e+20
1.006952e+20
1.000776e+20
1.003604e+20
1.0018e+20
1.00248e+20
1.005352e+20
1.000144e+20
9.99444e+19
1.000268e+20
1.002396e+20
1.000868e+20
1.00174e+20
1.001444e+20
1.004708e+20
1.001504e+20
1.00596e+20
9.98328e+19
9.9922e+19
1.001012e+20
1.003208e+20
9.9776e+19
1.000044e+20
9.99444e+19
9.9916e+19
9.97768e+19
9.9636e+19
9.98512e+19
1.000636e+20
1.0082e+20
1.021364e+20
1.075268e+20
1.002024e+20
9.99636e+19
1.001484e+20
1.016192e+20
1.053856e+20
1.003128e+20
1.009224e+20
1.016032e+20
1.026248e+20
1.045504e+20
1.003516e+20
1.005424e+20
1.012524e+20
1.017504e+20
1.031264e+20
1.00114e+20
1.004552e+20
1.007232e+20
1.012772e+20
1.022256e+20
9.99328e+19
1.002036e+20
1.004772e+20
1.008616e+20
1.013108e+20
1.0032e+20
1.001616e+20
9.99904e+19
1.004044e+20
1.007768e+20
1.00004e+20
9.98504e+19
9.98208e+19
9.99736e+19
1.00428e+20
1.001908e+20
1.003484e+20
1.009364e+20
1.008608e+20
1.007548e+20
1.000236e+20
1.004436e+20
1.007692e+20
1.009544e+20
1.009272e+20
1.0001e+20
1.000832e+20
1.000304e+20
9.9698e+19
9.97492e+19
9.97224e+19
9.95304e+19
9.96496e+19
9.998e+19
9.99512e+19
1.002784e+20
1.000048e+20
9.9758e+19
9.9878e+19
1.004e+20
9.98664e+19
9.98244e+19
1.001848e+20
1.00094e+20
9.995e+19
1.001672e+20
1.004488e+20
1.00524e+20
1.006984e+20
1.003648e+20
1.000504e+20
1.001076e+20
1.001e+20
1.001428e+20
1.00384e+20
9.9956e+19
1.001572e+20
1.00126e+20
9.99252e+19
1.000216e+20
1.00006e+20
9.99268e+19
9.98492e+19
1.002448e+20
1.00156e+20
1.00362e+20
1.005456e+20
1.01102e+20
1.020316e+20
1.067668e+20
1.000032e+20
1.006324e+20
1.008464e+20
1.018436e+20
1.046672e+20
1.002196e+20
1.002704e+20
1.008804e+20
1.019988e+20
1.034472e+20
1.00362e+20
1.00382e+20
1.005296e+20
1.011752e+20
1.02318e+20
1.000684e+20
9.988e+19
1.007432e+20
1.0122e+20
1.017312e+20
1.002344e+20
1.003448e+20
1.005716e+20
1.007136e+20
1.009304e+20
1.00168e+20
1.001756e+20
1.007908e+20
1.00868e+20
1.011592e+20
9.98308e+19
1.002348e+20
1.003592e+20
1.003972e+20
1.006376e+20
1.001896e+20
1.004756e+20
1.003404e+20
1.006276e+20
1.008228e+20
9.9912e+19
9.93796e+19
9.93664e+19
9.93972e+19
9.98044e+19
1.000164e+20
1.001524e+20
1.002016e+20
1.00508e+20
1.006932e+20
1.004112e+20
1.00988e+20
1.00996e+20
1.011452e+20
1.01e+20
1.000552e+20
9.98724e+19
1.00036e+20
1.002096e+20
1.00044e+20
9.9916e+19
1.002304e+20
1.002364e+20
1.001972e+20
1.003752e+20
1.00386e+20
9.98244e+19
9.97076e+19
1.0018e+20
1.00054e+20
1.00178e+20
1.004792e+20
1.002796e+20
1.005516e+20
1.007488e+20
9.99392e+19
9.98468e+19
9.98932e+19
9.95692e+19
9.96032e+19
1.0002e+20
9.99888e+19
9.97836e+19
9.98484e+19
1.001344e+20
1.000124e+20
1.002832e+20
1.007516e+20
1.01852e+20
1.062444e+20
1.001868e+20
1.000256e+20
1.006632e+20
1.017576e+20
1.047844e+20
1.000152e+20
1.004164e+20
1.009128e+20
1.01712e+20
1.036448e+20
1.00016e+20
1.00078e+20
1.003196e+20
1.006e+20
1.017272e+20
1.00244e+20
1.009084e+20
1.010308e+20
1.012892e+20
1.01694e+20
1.001884e+20
1.000744e+20
9.99792e+19
1.006128e+20
1.01002e+20
1.000456e+20
9.97912e+19
1.00272e+20
1.005808e+20
1.009376e+20
1.002224e+20
1.004584e+20
1.000412e+20
1.000788e+20
9.98316e+19
1.001356e+20
1.001172e+20
1.00354e+20
1.003744e+20
1.007272e+20
9.99896e+19
1.00266e+20
1.003756e+20
1.001276e+20
1.000524e+20
1.001136e+20
9.95712e+19
9.96728e+19
9.94932e+19
9.96952e+19
1.000256e+20
9.97528e+19
9.9636e+19
9.97244e+19
1.000324e+20
1.000504e+20
1.004072e+20
1.005132e+20
1.003944e+20
1.00798e+20
1.001992e+20
9.98864e+19
9.97064e+19
9.95076e+19
9.95972e+19
9.97792e+19
9.97068e+19
9.98456e+19
1.000964e+20
1.00364e+20
1.002232e+20
1.00176e+20
1.001456e+20
1.00092e+20
9.99308e+19
1.00078e+20
9.98116e+19
1.000024e+20
1.002616e+20
1.003196e+20
9.99096e+19
1.0003e+20
9.99164e+19
1.001332e+20
1.000612e+20
1.001356e+20
1.006152e+20
1.008648e+20
1.019136e+20
1.061856e+20
1.001668e+20
1.002716e+20
1.003552e+20
1.010836e+20
1.041708e+20
1.000888e+20
1.00236e+20
1.008088e+20
1.017764e+20
1.031464e+20
1.0007e+20
1.00328e+20
1.005e+20
1.006284e+20
1.017268e+20
1.000792e+20
9.988e+19
9.9618e+19
1.005584e+20
1.010668e+20
9.97104e+19
9.99304e+19
1.005428e+20
1.005632e+20
1.012072e+20
1.000672e+20
1.002208e+20
1.003448e+20
1.004244e+20
1.009968e+20
1.005304e+20
1.003132e+20
1.001204e+20
1.002588e+20
1.002464e+20
9.98192e+19
1.0011e+20
1.00238e+20
1.005724e+20
1.010196e+20
9.99088e+19
9.9976e+19
1.001868e+20
1.005372e+20
1.00482e+20
1.004472e+20
1.008672e+20
1.007388e+20
1.007656e+20
1.010488e+20
9.98072e+19
1.001652e+20
1.001376e+20
1.002276e+20
1.00542e+20
1.0007e+20
9.98452e+19
1.001752e+20
1.00508e+20
1.000996e+20
9.99032e+19
9.99328e+19
1.00216e+20
1.003228e+20
1.00204e+20
9.99196e+19
1.00198e+20
1.001052e+20
1.001496e+20
1.001444e+20
9.9902e+19
9.96436e+19
9.944e+19
9.92424e+19
9.93336e+19
9.97168e+19
9.99308e+19
9.99364e+19
1.001888e+20
9.98232e+19
1.0021e+20
1.002296e+20
9.99196e+19
9.96452e+19
9.96368e+19
1.000632e+20
1.000156e+20
1.004588e+20
1.013324e+20
1.055168e+20
1.000368e+20
1.005824e+20
1.0051e+20
1.01286e+20
1.037988e+20
1.002624e+20
1.004468e+20
1.006048e+20
1.009792e+20
1.029752e+20
9.9976e+19
9.99192e+19
1.004592e+20
1.009764e+20
1.020308e+20
1.00444e+20
1.007288e+20
1.00814e+20
1.010328e+20
1.012512e+20
1.001884e+20
1.000896e+20
1.001944e+20
1.000524e+20
1.004636e+20
1.000832e+20
1.005388e+20
1.008652e+20
1.011616e+20
1.013448e+20
9.9912e+19
9.98584e+19
9.99628e+19
9.99728e+19
1.004008e+20
1.002712e+20
1.00166e+20
1.007424e+20
1.008536e+20
1.01108e+20
1.001084e+20
1.002208e+20
1.006396e+20
1.00826e+20
1.006836e+20
9.9776e+19
9.9666e+19
9.978e+19
9.9758e+19
9.974e+19
1.004592e+20
1.00462e+20
1.005692e+20
1.00458e+20
1.003008e+20
1.000696e+20
9.99924e+19
9.98852e+19
1.00018e+20
1.00516e+20
1.002292e+20
1.003604e+20
1.002624e+20
1.0018e+20
9.9542e+19
1.003964e+20
1.00216e+20
1.002276e+20
9.9942e+19
1.002332e+20
9.95264e+19
9.94084e+19
9.94236e+19
9.91984e+19
9.90596e+19
1.001884e+20
1.002468e+20
1.000848e+20
1.00184e+20
1.003372e+20
1.000388e+20
1.003216e+20
1.007608e+20
1.006668e+20
1.004288e+20
9.9674e+19
9.97072e+19
9.9992e+19
1.00732e+20
1.037392e+20
1.00214e+20
1.0005e+20
1.003232e+20
1.006264e+20
1.01856e+20
1.00158e+20
1.0026e+20
1.003576e+20
1.007396e+20
1.015712e+20
9.99876e+19
9.989e+19
1.001536e+20
1.007304e+20
1.014316e+20
1.001864e+20
1.002304e+20
1.000148e+20
1.00246e+20
1.006612e+20
9.97232e+19
9.95616e+19
9.9868e+19
1.003892e+20
1.007088e+20
1.002084e+20
1.001216e+20
1.000216e+20
1.001944e+20
1.003068e+20
9.99816e+19
9.97764e+19
9.9712e+19
9.9872e+19
1.001488e+20
1.001636e+20
9.99812e+19
9.98168e+19
9.97288e+19
9.94312e+19
9.97692e+19
9.9528e+19
9.93768e+19
9.9566e+19
1.001316e+20
1.001336e+20
9.99592e+19
9.96268e+19
9.94188e+19
9.9168e+19
9.99292e+19
1.001088e+20
9.99396e+19
1.00186e+20
1.003696e+20
1.000144e+20
9.99424e+19
9.99644e+19
9.993e+19
9.979e+19
9.98356e+19
9.99256e+19
1.001492e+20
1.0024e+20
1.006028e+20
9.99972e+19
1.0038e+20
1.005368e+20
1.004196e+20
1.0036e+20
9.99916e+19
9.99792e+19
1.000992e+20
1.002344e+20
1.007944e+20
9.99596e+19
1.000344e+20
1.00276e+20
1.00228e+20
1.00272e+20
1.00068e+20
9.99788e+19
9.99008e+19
1.001728e+20
1.002848e+20
1.67608e+20
1.901652e+20
1.9595e+20
2.003776e+20
2.004228e+20
2.044176e+20
2.062348e+20
2.043488e+20
2.047672e+20
2.037052e+20
2.001472e+20
2.000988e+20
1.98056e+20
1.94222e+20
1.914924e+20
1.8754e+20
1.83686e+20
1.751404e+20
1.688776e+20
1.612204e+20
1.51806e+20
1.410528e+20
1.285476e+20
1.121288e+20
8.64824e+19
1.481904e+20
1.704256e+20
1.817072e+20
1.90248e+20
1.93592e+20
1.94882e+20
1.954956e+20
1.938068e+20
1.947436e+20
1.938092e+20
1.916808e+20
1.8762e+20
1.88838e+20
1.840632e+20
1.828664e+20
1.802776e+20
1.739164e+20
1.70656e+20
1.633368e+20
1.55868e+20
1.477052e+20
1.368852e+20
1.252428e+20
1.100824e+20
8.75852e+19
1.40164e+20
1.559432e+20
1.659284e+20
1.740068e+20
1.813908e+20
1.845628e+20
1.860348e+20
1.8867e+20
1.886716e+20
1.874796e+20
1.859016e+20
1.840104e+20
1.831012e+20
1.791412e+20
1.761244e+20
1.74982e+20
1.688496e+20
1.65542e+20
1.587048e+20
1.53078e+20
1.439372e+20
1.339616e+20
1.236208e+20
1.108756e+20
9.01536e+19
1.343532e+20
1.467004e+20
1.555724e+20
1.606588e+20
1.681724e+20
1.730552e+20
1.757476e+20
1.7785e+20
1.80458e+20
1.799904e+20
1.813764e+20
1.804668e+20
1.784008e+20
1.769096e+20
1.726552e+20
1.698432e+20
1.651316e+20
1.608772e+20
1.554732e+20
1.494216e+20
1.419828e+20
1.334548e+20
1.238768e+20
1.115416e+20
9.18308e+19
1.323904e+20
1.404024e+20
1.46642e+20
1.519116e+20
1.569384e+20
1.611908e+20
1.64858e+20
1.679668e+20
1.718944e+20
1.736112e+20
1.74594e+20
1.7452e+20
1.73804e+20
1.728912e+20
1.693248e+20
1.662116e+20
1.62576e+20
1.580944e+20
1.522312e+20
1.477844e+20
1.416368e+20
1.330164e+20
1.246096e+20
1.119248e+20
9.435e+19
1.28128e+20
1.360376e+20
1.419112e+20
1.459288e+20
1.485868e+20
1.522656e+20
1.563268e+20
1.614488e+20
1.646e+20
1.669788e+20
1.685532e+20
1.676928e+20
1.677416e+20
1.659092e+20
1.630608e+20
1.615392e+20
1.58864e+20
1.5429e+20
1.521796e+20
1.467228e+20
1.387188e+20
1.322384e+20
1.257932e+20
1.135816e+20
9.5068e+19
1.266928e+20
1.331632e+20
1.366404e+20
1.393864e+20
1.418124e+20
1.43398e+20
1.48508e+20
1.526344e+20
1.548524e+20
1.58222e+20
1.597248e+20
1.611608e+20
1.608048e+20
1.599752e+20
1.58606e+20
1.581096e+20
1.543352e+20
1.522508e+20
1.503708e+20
1.448168e+20
1.377192e+20
1.326132e+20
1.251476e+20
1.14032e+20
9.55024e+19
1.257016e+20
1.324348e+20
1.33522e+20
1.345628e+20
1.357636e+20
1.391028e+20
1.418524e+20
1.451528e+20
1.462944e+20
1.491296e+20
1.505032e+20
1.537192e+20
1.551776e+20
1.544864e+20
1.542192e+20
1.54046e+20
1.511256e+20
1.476484e+20
1.46282e+20
1.418832e+20
1.37282e+20
1.319844e+20
1.22978e+20
1.139168e+20
9.5906e+19
1.250688e+20
1.300128e+20
1.320756e+20
1.318712e+20
1.319644e+20
1.347736e+20
1.354444e+20
1.38284e+20
1.396212e+20
1.434308e+20
1.464752e+20
1.4661e+20
1.4832e+20
1.479272e+20
1.471108e+20
1.46654e+20
1.466404e+20
1.444756e+20
1.444124e+20
1.39284e+20
1.356796e+20
1.292212e+20
1.197168e+20
1.11358e+20
9.50412e+19
1.247724e+20
1.29348e+20
1.296708e+20
1.305728e+20
1.29964e+20
1.3043e+20
1.316912e+20
1.326268e+20
1.347656e+20
1.352208e+20
1.3802e+20
1.388928e+20
1.421416e+20
1.427312e+20
1.424948e+20
1.4121e+20
1.411312e+20
1.387844e+20
1.363336e+20
1.350128e+20
1.313164e+20
1.264076e+20
1.206676e+20
1.11408e+20
9.5256e+19
1.234708e+20
1.283116e+20
1.286688e+20
1.275564e+20
1.281436e+20
1.270364e+20
1.266412e+20
1.279536e+20
1.283032e+20
1.30112e+20
1.307224e+20
1.311956e+20
1.33044e+20
1.365528e+20
1.34562e+20
1.349384e+20
1.332012e+20
1.325832e+20
1.322652e+20
1.294632e+20
1.266436e+20
1.227848e+20
1.16434e+20
1.089872e+20
9.27216e+19
1.216196e+20
1.27888e+20
1.293432e+20
1.268128e+20
1.258176e+20
1.251008e+20
1.249456e+20
1.236972e+20
1.238972e+20
1.241724e+20
1.247636e+20
1.248836e+20
1.257352e+20
1.283848e+20
1.28594e+20
1.291508e+20
1.272792e+20
1.277892e+20
1.256432e+20
1.228992e+20
1.20108e+20
1.183748e+20
1.122904e+20
1.051448e+20
9.08892e+19
1.220276e+20
1.27026e+20
1.28218e+20
1.260512e+20
1.234396e+20
1.225056e+20
1.22626e+20
1.204344e+20
1.187144e+20
1.181076e+20
1.186472e+20
1.189684e+20
1.192068e+20
1.204356e+20
1.209984e+20
1.205252e+20
1.20712e+20
1.206656e+20
1.201368e+20
1.172804e+20
1.14592e+20
1.127028e+20
1.08586e+20
1.007544e+20
8.84856e+19
1.229808e+20
1.265608e+20
1.260928e+20
1.255728e+20
1.22434e+20
1.19498e+20
1.171052e+20
1.160928e+20
1.16042e+20
1.150604e+20
1.140972e+20
1.134712e+20
1.144432e+20
1.14968e+20
1.135592e+20
1.148056e+20
1.140816e+20
1.13378e+20
1.1305e+20
1.092364e+20
1.09106e+20
1.076324e+20
1.046128e+20
9.86936e+19
8.533e+19
1.216988e+20
1.260756e+20
1.266688e+20
1.230488e+20
1.199768e+20
1.15864e+20
1.143444e+20
1.111404e+20
1.093512e+20
1.086736e+20
1.078856e+20
1.075544e+20
1.056432e+20
1.057652e+20
1.061564e+20
1.0596e+20
1.050372e+20
1.062396e+20
1.074644e+20
1.056736e+20
1.03416e+20
1.031708e+20
9.89852e+19
9.43832e+19
8.28196e+19
1.220272e+20
1.251556e+20
1.230864e+20
1.197652e+20
1.155136e+20
1.12252e+20
1.096908e+20
1.065176e+20
1.05018e+20
1.035824e+20
1.016476e+20
1.006284e+20
1.004972e+20
1.010908e+20
1.003508e+20
1.015416e+20
1.013164e+20
1.013384e+20
9.9288e+19
1.002916e+20
9.88028e+19
9.79976e+19
9.49468e+19
9.0268e+19
8.06228e+19
1.192232e+20
1.221456e+20
1.19844e+20
1.149828e+20
1.107904e+20
1.070696e+20
1.039524e+20
1.019324e+20
1.003088e+20
9.84616e+19
9.60304e+19
9.47872e+19
9.67412e+19
9.58828e+19
9.57156e+19
9.63156e+19
9.7106e+19
9.67908e+19
9.57704e+19
9.56108e+19
9.56932e+19
9.56688e+19
9.29956e+19
8.88684e+19
8.02636e+19
1.135584e+20
1.148652e+20
1.113268e+20
1.071372e+20
1.038212e+20
1.023236e+20
1.002304e+20
9.98444e+19
9.7998e+19
9.85428e+19
9.7264e+19
9.74396e+19
9.65464e+19
9.65168e+19
9.70056e+19
9.72284e+19
9.68624e+19
9.64136e+19
9.79524e+19
9.77912e+19
9.81644e+19
9.76512e+19
9.554e+19
9.38992e+19
8.64164e+19
1.490084e+20
1.696788e+20
1.83006e+20
1.899676e+20
1.921568e+20
1.937572e+20
1.956164e+20
1.966348e+20
1.948224e+20
1.922404e+20
1.903556e+20
1.888036e+20
1.870172e+20
1.839932e+20
1.800288e+20
1.779984e+20
1.741852e+20
1.6681e+20
1.642168e+20
1.560648e+20
1.468604e+20
1.361136e+20
1.258152e+20
1.11696e+20
8.70712e+19
1.331756e+20
1.537528e+20
1.703224e+20
1.829132e+20
1.877596e+20
1.892376e+20
1.882852e+20
1.860164e+20
1.841124e+20
1.828708e+20
1.805708e+20
1.787528e+20
1.764252e+20
1.745468e+20
1.719956e+20
1.678776e+20
1.640676e+20
1.607812e+20
1.5621e+20
1.48354e+20
1.415144e+20
1.330236e+20
1.213744e+20
1.062312e+20
8.6134e+19
1.253296e+20
1.41622e+20
1.57188e+20
1.688676e+20
1.769832e+20
1.806964e+20
1.828824e+20
1.82582e+20
1.818992e+20
1.776304e+20
1.7662e+20
1.732852e+20
1.72282e+20
1.707796e+20
1.668428e+20
1.639744e+20
1.592516e+20
1.56328e+20
1.513232e+20
1.426196e+20
1.365252e+20
1.304708e+20
1.18972e+20
1.06676e+20
8.83248e+19
1.215096e+20
1.352736e+20
1.469764e+20
1.577404e+20
1.670148e+20
1.724216e+20
1.756236e+20
1.757984e+20
1.766604e+20
1.753612e+20
1.727996e+20
1.712232e+20
1.69746e+20
1.665584e+20
1.639852e+20
1.595304e+20
1.575664e+20
1.5252e+20
1.477932e+20
1.422528e+20
1.354868e+20
1.283484e+20
1.194616e+20
1.067248e+20
9.05532e+19
1.188384e+20
1.304384e+20
1.409604e+20
1.504092e+20
1.579868e+20
1.633176e+20
1.662844e+20
1.691028e+20
1.71116e+20
1.696076e+20
1.69924e+20
1.685452e+20
1.658024e+20
1.63216e+20
1.601604e+20
1.579548e+20
1.533488e+20
1.4909e+20
1.460004e+20
1.414176e+20
1.366376e+20
1.281664e+20
1.186632e+20
1.078e+20
9.38048e+19
1.166996e+20
1.270312e+20
1.361792e+20
1.455336e+20
1.518152e+20
1.568844e+20
1.607584e+20
1.619116e+20
1.651548e+20
1.65656e+20
1.647212e+20
1.638724e+20
1.61444e+20
1.614812e+20
1.566304e+20
1.54498e+20
1.508912e+20
1.467188e+20
1.435284e+20
1.403312e+20
1.354276e+20
1.2792e+20
1.187712e+20
1.091732e+20
9.42908e+19
1.151208e+20
1.233968e+20
1.329428e+20
1.408204e+20
1.458348e+20
1.501468e+20
1.538288e+20
1.554792e+20
1.56664e+20
1.588132e+20
1.586912e+20
1.584224e+20
1.57638e+20
1.566444e+20
1.542072e+20
1.511096e+20
1.491356e+20
1.451952e+20
1.41302e+20
1.38092e+20
1.32194e+20
1.270476e+20
1.205236e+20
1.104092e+20
9.56212e+19
1.137816e+20
1.227108e+20
1.297104e+20
1.369216e+20
1.414112e+20
1.458596e+20
1.486168e+20
1.512496e+20
1.520824e+20
1.525608e+20
1.518132e+20
1.534584e+20
1.521544e+20
1.513568e+20
1.500756e+20
1.487232e+20
1.46186e+20
1.41678e+20
1.3955e+20
1.358384e+20
1.309536e+20
1.27144e+20
1.191324e+20
1.091272e+20
9.63504e+19
1.1395e+20
1.217816e+20
1.29012e+20
1.352048e+20
1.39052e+20
1.418536e+20
1.434128e+20
1.449648e+20
1.472452e+20
1.482556e+20
1.469368e+20
1.479344e+20
1.47986e+20
1.477524e+20
1.45332e+20
1.436212e+20
1.421156e+20
1.390392e+20
1.3694e+20
1.335116e+20
1.300756e+20
1.243864e+20
1.180672e+20
1.098956e+20
9.56908e+19
1.134312e+20
1.214064e+20
1.287052e+20
1.33566e+20
1.367448e+20
1.383868e+20
1.401232e+20
1.407808e+20
1.416756e+20
1.428864e+20
1.425428e+20
1.414944e+20
1.423972e+20
1.4182e+20
1.397648e+20
1.394784e+20
1.371596e+20