/*--------------------------------*- C++ -*----------------------------------*\
| =========                 |                                                 |
| \\      /  F ield         | OpenFOAM: The Open Source CFD Toolbox           |
|  \\    /   O peration     | Version:  v1706                                 |
|   \\  /    A nd           | Web:      www.OpenFOAM.com                      |
|    \\/     M anipulation  |                                                 |
\*---------------------------------------------------------------------------*/
FoamFile
{
    version     2.0;
    format      ascii;
    class       volScalarField;
    location    "0.003";
    object      SOFP_Ar;
}
// * * * * * * * * * * * * * * * * * * * * * * * * * * * * * * * * * * * * * //

dimensions      [0 0 0 0 0 0 0];


internalField   nonuniform List<scalar> 
9720
(
0.2360836164
0.2301536472
0.2172619333
0.1939343882
0.1788769748
0.2420692832
0.2275339178
0.2146345497
0.1945959922
0.1806095684
0.2411416272
0.2289516083
0.2184795261
0.2004805553
0.1818370961
0.23789398
0.2301076381
0.2201454659
0.2022877177
0.1850176146
0.2441843335
0.2315107846
0.2241277383
0.2092586909
0.1860787026
0.2424712886
0.2338240209
0.2274911987
0.2111248918
0.1881650064
0.2432988423
0.2365750588
0.2279345818
0.2116983539
0.1894670084
0.2469607088
0.2365814996
0.2310084956
0.2145913827
0.191006769
0.2456660684
0.2412952301
0.2342193954
0.2188069389
0.1966480552
0.2439397638
0.2381584483
0.2306142075
0.2169848802
0.1935122711
0.2461898758
0.2412578922
0.2343836684
0.2182465274
0.1910363313
0.2426864562
0.2406756238
0.2328273772
0.2187325831
0.1952256543
0.2469056625
0.2425987409
0.2383337404
0.2237140827
0.1957990016
0.2470946231
0.2435353263
0.2370465566
0.2246177302
0.1954402406
0.2452161219
0.2429624393
0.2345217204
0.2230423305
0.1964495664
0.2492680473
0.2437059172
0.2357598666
0.2278884311
0.1990189145
0.2489235553
0.2417800766
0.2403960607
0.2282643965
0.1988625151
0.2449682876
0.2452979118
0.2429274376
0.2323031506
0.2066031468
0.2396117046
0.2282247742
0.2143407621
0.1952835349
0.1811018335
0.2392320034
0.2329469753
0.2170658709
0.1983189841
0.1829244696
0.2394277774
0.2283069146
0.2180788004
0.1990562332
0.1850177731
0.2400775195
0.233512967
0.2217873971
0.2010701188
0.1862960145
0.2407920453
0.2360023043
0.2237910097
0.2061219013
0.1922222489
0.2424194181
0.2415169601
0.2258316593
0.2102563245
0.1943849253
0.2412984684
0.236740698
0.2274376248
0.2150111657
0.19559456
0.2450502699
0.2367121736
0.2276333657
0.2111196259
0.1990858872
0.2430396165
0.2367952035
0.2283409141
0.2148815367
0.1977980751
0.2420752302
0.2411310536
0.2306607702
0.216575333
0.197275759
0.2434961827
0.2397324401
0.233400773
0.2180179171
0.1987286194
0.24429417
0.240626507
0.2304030898
0.215120745
0.1964261278
0.2470001651
0.2382093978
0.2282033556
0.2185255878
0.1988114773
0.2448760805
0.2399243895
0.2346768283
0.2150651156
0.2004296059
0.2448061067
0.2401040263
0.2374902243
0.2226863503
0.2035807828
0.2459396817
0.2424768911
0.235522902
0.2222688055
0.2034354325
0.2446182819
0.2416489145
0.2378578766
0.2246088869
0.2072970552
0.2461112291
0.2423786803
0.2414861576
0.2291287082
0.2144987612
0.2398391711
0.232618025
0.2171078593
0.1996817524
0.1827960292
0.2414271062
0.2294134978
0.2177975431
0.1995614433
0.1859568761
0.2448480653
0.2331026813
0.2210103295
0.2026266319
0.1879570226
0.2429152422
0.2339639702
0.2222999108
0.206071626
0.194609567
0.2398630306
0.2369585637
0.2244000103
0.210781344
0.1959475185
0.2427106247
0.2337565345
0.2234136891
0.2116445867
0.1973700372
0.2394759267
0.2349447009
0.226668445
0.2150247452
0.2015997449
0.2412367848
0.2355967339
0.2302721464
0.2175482354
0.2053512444
0.2415929483
0.2381698622
0.2326461898
0.218841887
0.2031999303
0.2448451116
0.2410006934
0.2315211128
0.2204524245
0.2081204029
0.2425847256
0.2401033544
0.2336275654
0.2232614285
0.2074873324
0.2450533573
0.2381533445
0.2342657897
0.2229886598
0.2082976519
0.2442880428
0.2407708135
0.2344017653
0.2237685379
0.211374792
0.2471151503
0.2432668444
0.2343687706
0.2238179672
0.2101781062
0.2461960563
0.2422835605
0.2332031914
0.2238336991
0.2099087875
0.2465050548
0.2413647387
0.2376570788
0.2290209029
0.213039083
0.2476174944
0.241750901
0.2372486405
0.230348645
0.2177177775
0.2463665045
0.2458809565
0.2392689397
0.2324506923
0.2229262452
0.2402835982
0.2304049508
0.2193954223
0.2023574329
0.1866481997
0.2399224029
0.2314587277
0.2167173005
0.2006613864
0.1880961822
0.24236192
0.2332909744
0.2202872277
0.2067749644
0.1926927698
0.2401802275
0.2303995151
0.2202659119
0.2091361252
0.2008889956
0.2420070992
0.2353233766
0.2248063226
0.2143941912
0.2038119094
0.2436140162
0.2346925399
0.2243004009
0.2157940921
0.2058574582
0.2444499157
0.2357406929
0.2344999328
0.2223299824
0.2103835854
0.2463576511
0.24117766
0.2329854551
0.2213922521
0.2133127063
0.2441300782
0.2375561948
0.2311576266
0.221429502
0.215138694
0.2454881254
0.2390003095
0.2337077383
0.225010601
0.2177628887
0.2444771096
0.2387740039
0.2340340581
0.2266715388
0.2165957077
0.24619234
0.2409384469
0.2378462221
0.2276070371
0.2179770927
0.245824214
0.2430861551
0.2337944472
0.2293470336
0.2189037555
0.2458180399
0.242684726
0.2343727542
0.2286494182
0.2172048478
0.2484843911
0.241238951
0.2390069307
0.23429948
0.2256594054
0.2479692365
0.2456931607
0.2375445624
0.2328507906
0.2253212823
0.2448961574
0.2437259192
0.2399414733
0.2323849093
0.2274019297
0.2429570819
0.2437682394
0.2384618804
0.24016216
0.2312608462
0.2384141033
0.2343060497
0.221583856
0.2082612177
0.1852033873
0.2392577323
0.2311128072
0.2248729616
0.2075314597
0.1923086632
0.240204757
0.2333904026
0.2243575603
0.2103889215
0.1995082717
0.2411807373
0.2330294611
0.2252172243
0.213599142
0.2060731264
0.2400069271
0.2340627714
0.2257808947
0.2172817631
0.2043703809
0.2412027248
0.2359366176
0.2273357909
0.2211584721
0.2081500895
0.2436351985
0.2378814338
0.2323339789
0.226980383
0.2192408712
0.2454022301
0.2364870614
0.2324911721
0.223287184
0.2212088261
0.2427275497
0.2397786006
0.2342980814
0.2293935862
0.2186044284
0.2457607937
0.2412976386
0.2350502559
0.2299203682
0.2214502538
0.2483875351
0.2412595324
0.2355340444
0.2331941171
0.222244022
0.2433644641
0.2385230993
0.2373576435
0.230659716
0.2236646972
0.2471485931
0.2425176246
0.2384029954
0.2286398734
0.2242819352
0.2447340165
0.2403574069
0.238449664
0.2331496071
0.2272667089
0.2475905869
0.239927239
0.2383949944
0.233963305
0.2271157685
0.2465879988
0.2429330457
0.2399142505
0.2345564626
0.2289134214
0.2497146046
0.2460292085
0.2406161987
0.2377255437
0.2329544418
0.2477615504
0.2464157992
0.2445720765
0.2417178156
0.2348155445
0.2428675352
0.2348987887
0.2237521825
0.2101580887
0.1889001653
0.2400959864
0.2306818694
0.2239095413
0.208897591
0.193403894
0.2406300953
0.2371035358
0.2270569212
0.21560423
0.2027378248
0.2460503659
0.236945532
0.2291753504
0.2161703091
0.2083618858
0.2411216082
0.2359937816
0.2278628974
0.220325335
0.2111764853
0.2426907796
0.2360749362
0.2315030654
0.2261935418
0.2186961168
0.2418009488
0.2401914929
0.2363053764
0.228644893
0.2192448245
0.2431642422
0.2402970261
0.2329038171
0.2290050906
0.2236485445
0.2424072902
0.2408728736
0.2360391879
0.2326454723
0.2268795136
0.246154636
0.2457540807
0.2356319425
0.2318132535
0.2265266367
0.2416052025
0.2425527252
0.2400074789
0.2327928808
0.2268903102
0.2469419206
0.2407030186
0.2436404333
0.2362098842
0.2316020891
0.2471417707
0.2443042463
0.2446602911
0.2377856531
0.2343491349
0.2469378761
0.2395712512
0.2400946742
0.2335400241
0.2328356735
0.2452466522
0.2454920879
0.2432464778
0.2385775462
0.2317583123
0.247119663
0.2462784757
0.2410525106
0.2430771859
0.2362897658
0.2475417407
0.2446226152
0.2426965685
0.2403880771
0.2371645014
0.247663582
0.2475671705
0.2444877927
0.2410938795
0.2411729023
0.2419338597
0.2365969859
0.226804121
0.2133382699
0.1894721929
0.2416661056
0.2370317108
0.2277153058
0.2143409225
0.196148543
0.2418035801
0.234828496
0.2297453893
0.2160911953
0.2013206155
0.244285125
0.2387950463
0.2273083748
0.21976987
0.2074366129
0.245480179
0.2406220495
0.2326285404
0.2233201918
0.2156802097
0.2434027196
0.2367552485
0.2325973867
0.2293631719
0.2166666912
0.2466295492
0.2406052079
0.2352344543
0.230092452
0.2242660976
0.2457790109
0.2430387372
0.2361101385
0.2324514698
0.2277705479
0.2447479987
0.2424115822
0.2409058519
0.2352716908
0.2285080836
0.2463123333
0.243185774
0.2405489266
0.2362220375
0.2304565558
0.245078986
0.2433557381
0.2412342268
0.2371651308
0.2318504562
0.2477142668
0.2474308814
0.2414561608
0.2351306024
0.2338517386
0.245692594
0.2438816319
0.2391179786
0.2400834064
0.2357447866
0.2486961229
0.2478363233
0.2449062576
0.2386642443
0.2387820156
0.2483383213
0.246770371
0.2427502422
0.2397811771
0.2375965999
0.2479613825
0.2459066949
0.2455821401
0.2428499766
0.2388481861
0.2479966268
0.2466734111
0.2428312879
0.2410699358
0.2392147152
0.2468734319
0.2456228569
0.2432440904
0.2435472829
0.2423230422
0.241539907
0.23581923
0.2265060685
0.2139325383
0.1924750265
0.2413036688
0.2366342592
0.2270587957
0.2118189721
0.1945323382
0.2412466568
0.2373738863
0.2259240963
0.2198169887
0.2066944144
0.2424156203
0.2390417197
0.2324321024
0.2225133328
0.2128218962
0.2455816463
0.2424864205
0.2344534642
0.2273041581
0.2218671185
0.2414031964
0.2407698156
0.2341195467
0.2274431485
0.2229262075
0.2442077019
0.2412730053
0.2364969102
0.2335532065
0.2266175627
0.2452511411
0.2412813835
0.2386302191
0.2376416047
0.2328900603
0.2478417277
0.2427794538
0.24047385
0.235264815
0.2362667253
0.2457214672
0.2398672775
0.2378059259
0.2367549861
0.232147265
0.2459001959
0.2443105794
0.2418320822
0.2387303715
0.2351580274
0.2456641953
0.2437507991
0.2427418611
0.2414783831
0.2394991161
0.2507884617
0.2460309001
0.2433462821
0.241131111
0.2389000204
0.2500316404
0.245999469
0.2451768832
0.2431513196
0.2431209636
0.2507373643
0.2476615267
0.2442735871
0.2427369266
0.2381105202
0.2473547615
0.2475724452
0.2456262007
0.2430092927
0.2410266459
0.2466461568
0.2466033207
0.2446501646
0.2451299775
0.2430132387
0.2477741586
0.2457473505
0.2425763213
0.2403092551
0.2432003417
0.2420698288
0.2386693267
0.2286935472
0.2178474382
0.1933633386
0.2433490677
0.2425322298
0.2269106229
0.2149677813
0.1970820972
0.2428668905
0.2381269665
0.2295757534
0.2168289305
0.20656056
0.24660857
0.2386340113
0.2353014104
0.223788195
0.2136786497
0.2428864505
0.2411129447
0.235983413
0.2279961268
0.2188093984
0.2440114586
0.2435589633
0.2407791198
0.2346147522
0.2239412925
0.2483282644
0.240911133
0.2396655672
0.2342003445
0.2298013745
0.2465999707
0.2451259596
0.2413956367
0.2377931546
0.232566283
0.2470961056
0.2428192765
0.2394810306
0.2377010775
0.2348355329
0.2487344596
0.2463020502
0.244633516
0.23955852
0.237795383
0.2448254125
0.2431728465
0.2449670887
0.2422351225
0.2398572523
0.2469065971
0.2467592372
0.2428810973
0.2444998596
0.2375464541
0.248744402
0.2472762776
0.2413290919
0.2397473796
0.2407313543
0.2461926767
0.2457482596
0.2461212557
0.242860244
0.2420919394
0.2491612116
0.2467115266
0.2469457655
0.2454823251
0.2388192131
0.2481407049
0.2452637263
0.2426500194
0.2415201291
0.2406451752
0.2475165085
0.2433977309
0.245507247
0.2440209868
0.2425259667
0.2478325463
0.2496838746
0.2480779012
0.2442767058
0.2476255389
0.2448368226
0.2424377886
0.2354964608
0.219215784
0.1950742227
0.2414930641
0.2379324783
0.2308065687
0.2146497182
0.1965791885
0.2453153477
0.2401543607
0.2315270502
0.2200779491
0.2092205959
0.2426684945
0.2402943841
0.2334287092
0.2266235883
0.2181034907
0.2420896589
0.2407747498
0.2361405821
0.2302192582
0.2228926714
0.2472469181
0.2445833481
0.2370429042
0.2324420464
0.2261750073
0.2437978544
0.2432543924
0.2395164526
0.2339770732
0.2302894922
0.2473352014
0.2439047466
0.2423022419
0.2359883108
0.2347094215
0.2464255268
0.2455236882
0.2421798383
0.2384937455
0.237597161
0.2426400596
0.2439546647
0.2392720394
0.2384633166
0.2384099227
0.2470185781
0.2463174038
0.2475328247
0.2402700427
0.2403916015
0.2494883358
0.2464203016
0.2443945764
0.2440780175
0.2404447745
0.2487277931
0.2493276982
0.2465721829
0.2464058367
0.2419527993
0.2475715321
0.2445974918
0.2433089801
0.2430249244
0.2428639951
0.2471732256
0.2474421018
0.2494713032
0.2436152845
0.2445410705
0.2505577888
0.2492875438
0.2454318182
0.2447220897
0.2446981231
0.2492320672
0.2490980383
0.2502343727
0.2470203569
0.2438605415
0.2461148405
0.2480012739
0.2444799288
0.243882728
0.245372213
0.2448769805
0.2387131287
0.2319608225
0.2182345787
0.1943952527
0.2449772974
0.2396092256
0.2337965139
0.2173229008
0.199739502
0.2454399688
0.2397316299
0.2327390969
0.2212751222
0.2070611649
0.2440611905
0.2371183602
0.233029651
0.2260148899
0.2166917493
0.2437235262
0.2454280046
0.2350647529
0.2311200558
0.2238636484
0.2470692779
0.2423229808
0.2376285019
0.2345695744
0.2294020279
0.2457741102
0.244119641
0.2405495566
0.2373315168
0.2343405989
0.2487783611
0.2444340861
0.2437576417
0.2391052895
0.2374684593
0.2487874399
0.2474908537
0.2461870001
0.2411066477
0.2377100636
0.2461706245
0.2461184615
0.2432547989
0.2398570675
0.2407723531
0.2470925628
0.246933494
0.2450948883
0.2450510325
0.2435135697
0.2483005808
0.2464381901
0.2400745529
0.2416534168
0.2386707477
0.2455980526
0.2457041503
0.2437669965
0.2440483943
0.2426835653
0.2461040666
0.2461663989
0.247065364
0.2444334869
0.2415605842
0.247934973
0.2459467355
0.2460636739
0.2458110186
0.2447175489
0.2472596948
0.2465333652
0.2465320472
0.2425305857
0.2440281489
0.2499957218
0.2462704256
0.2485746688
0.2486346952
0.2446208083
0.248112718
0.2478754141
0.247047117
0.2464311895
0.2460803747
0.2476625418
0.2395105574
0.2340489345
0.2212507785
0.1939776072
0.2475553805
0.2417548346
0.2326905177
0.2205291151
0.201234379
0.244889187
0.2421322442
0.229577907
0.2197784601
0.2091776228
0.2462826016
0.2411270629
0.2348728918
0.22720046
0.2132650024
0.2430359407
0.2391726769
0.2388080156
0.2296754277
0.2253421244
0.2452268027
0.2434269386
0.2405540787
0.2344093089
0.2312635836
0.2477432516
0.2457646541
0.2410645389
0.238993842
0.2320757466
0.2451056101
0.2428326937
0.2413362516
0.2406846051
0.2386658103
0.2467094691
0.2442842556
0.2413839362
0.2405060705
0.2404713575
0.2492522072
0.2446898477
0.2422683453
0.2411503026
0.241538942
0.2477124322
0.2495233223
0.2439022299
0.2415790167
0.2413516709
0.2455418251
0.2477547609
0.2451840681
0.2445746797
0.2413091708
0.2492530437
0.2466113545
0.2436860325
0.247478296
0.2437249586
0.2491242082
0.2459797239
0.2506839176
0.2452947255
0.2431669887
0.2498011351
0.2484803767
0.2470990362
0.2450916862
0.2464195389
0.2468867227
0.2469193344
0.2445276957
0.2465232379
0.2455648118
0.2497292929
0.2442901813
0.2447181242
0.2494440667
0.2458907076
0.2488685697
0.2475873268
0.2509106249
0.2475964185
0.2461584711
0.2457227441
0.242945149
0.2335516223
0.2233134841
0.1950304696
0.2447203008
0.2428507789
0.2342249214
0.2171399525
0.2012143637
0.2453234621
0.2436527145
0.2367066764
0.2262884989
0.2157654652
0.245290172
0.2421372568
0.2387540087
0.2299643449
0.21803212
0.2445148018
0.2430226792
0.2363398279
0.2309061738
0.22731619
0.2465027397
0.2420760778
0.2386919573
0.2338517096
0.2299636217
0.2473340249
0.24566332
0.2429831493
0.2417647582
0.2335067299
0.2453569182
0.2457926853
0.2439408645
0.2422887736
0.2368130668
0.2455254282
0.247826846
0.2413080397
0.2424246756
0.2395983117
0.2450851111
0.2488378604
0.246255004
0.2459526345
0.2416750687
0.2481194574
0.2470116487
0.2492031499
0.2444620898
0.2470169678
0.2458230676
0.2442001345
0.2442161423
0.2463040378
0.2417037023
0.247102123
0.2463896657
0.2476907483
0.2444067935
0.2467717311
0.2473866924
0.244655763
0.2456256787
0.2439400458
0.2434101849
0.2496417793
0.2460054318
0.2462142532
0.2479693367
0.2452385733
0.2506038562
0.2449803045
0.2460403446
0.2452118482
0.2417993267
0.2466953039
0.247099174
0.2446078491
0.2451111725
0.2442006341
0.2477120401
0.2476656065
0.2508762789
0.2486657775
0.2484818407
0.243981333
0.2419971972
0.2346369045
0.2232850192
0.1964716242
0.24176816
0.241908236
0.2348860924
0.2182926742
0.2050191988
0.2441218077
0.2397683123
0.2332307189
0.2253078576
0.2099764677
0.2465133379
0.2455869291
0.236591562
0.2292526805
0.2215432159
0.2427214161
0.2437196119
0.2368789351
0.2338823118
0.2309001133
0.2485548763
0.2409890788
0.2424473938
0.234818529
0.2348685431
0.2466997133
0.2490603524
0.2438940746
0.238332997
0.2367364791
0.2462896829
0.2434066239
0.2441024027
0.2379044203
0.2422895594
0.2458246577
0.2444481687
0.2461831654
0.2454955066
0.243704182
0.2458471349
0.2464560655
0.2425162819
0.2444760131
0.2414780888
0.2454135471
0.2480101855
0.2422298749
0.2438218061
0.2439590898
0.2476306494
0.2478000206
0.244051185
0.2460757315
0.246353599
0.2466998445
0.2444171242
0.2464015336
0.243117855
0.2405287944
0.2465107986
0.2489355988
0.2479726514
0.2502028178
0.2478818723
0.2483714845
0.2501318839
0.2485443485
0.2438723277
0.2427425848
0.2464587242
0.2476754695
0.2486425209
0.2509448733
0.2471454378
0.2491859129
0.2466769933
0.2459120868
0.2491435268
0.2475426882
0.2480677346
0.2480063009
0.2463470343
0.2465637663
0.2454046661
0.2419291287
0.2414508846
0.2395785119
0.2211310464
0.1959637218
0.2428902686
0.2434755686
0.2375726866
0.222777395
0.2011747318
0.242369376
0.2454711166
0.2374573088
0.2291730694
0.2118020163
0.2433960578
0.2439079925
0.2415018185
0.2324526867
0.2247104073
0.2430547806
0.2414429589
0.2359001366
0.2359665854
0.2301584306
0.246606325
0.2464080677
0.2425612473
0.2390929623
0.2338517693
0.2486504444
0.2460832526
0.2469206261
0.2438488151
0.2444344327
0.2469239371
0.246599481
0.2457352769
0.2430130964
0.239016182
0.2470124051
0.2474261611
0.2443492232
0.2440831798
0.2383915624
0.247595601
0.2475192122
0.2461809241
0.244874858
0.2416340336
0.2478961204
0.2489793036
0.2481223496
0.2459387203
0.2434483575
0.2489478547
0.2445841516
0.2457095605
0.2440547906
0.2455300714
0.2495611912
0.2494183767
0.2476408835
0.2464933557
0.2495543699
0.2484287987
0.248343923
0.2463876199
0.2484802098
0.2475831173
0.2504224376
0.2466927551
0.2453112486
0.2438536951
0.2451855741
0.2492659109
0.2465229133
0.2489645867
0.2467989516
0.2478376189
0.2507536414
0.2483253954
0.2478895036
0.2478687434
0.2441766735
0.2491363996
0.2457140702
0.2483131774
0.2509536592
0.2486023239
0.2481509417
0.241830967
0.2373345174
0.2282487931
0.1995461632
0.2450541713
0.2419476111
0.23788097
0.2276701498
0.2052430845
0.2479798096
0.2449179623
0.2383481365
0.2299975584
0.2178226277
0.2466051624
0.2456707689
0.2388260625
0.2339894516
0.227778114
0.2440516277
0.2447398385
0.24383616
0.2364644427
0.2332726688
0.2459639989
0.2432470727
0.2407255807
0.2389256642
0.2362745378
0.2465472065
0.2463784752
0.2440230993
0.2441995503
0.242448405
0.2489720628
0.2484673364
0.2454136791
0.2411297933
0.2383130387
0.2465550634
0.242552461
0.243415818
0.2425627479
0.2420289116
0.2485949831
0.2466111355
0.2482420968
0.2475691028
0.2426252216
0.2468717188
0.2496811827
0.2492521904
0.2492630026
0.2445665704
0.2490239397
0.24724875
0.2470013788
0.2495445049
0.2437937172
0.2469733442
0.2466029862
0.2469129461
0.2484689036
0.2462530274
0.248094191
0.246966014
0.2496545554
0.2469560562
0.2486022556
0.2479696867
0.2485246474
0.2485192488
0.2441763843
0.2487856605
0.2489223765
0.2480298569
0.2492149608
0.2481572628
0.2442433738
0.2478045452
0.2484124893
0.2468345469
0.2472429624
0.2485510802
0.2480919084
0.2486503002
0.248238999
0.2475084818
0.2458766698
0.2463328236
0.2404450129
0.2396043493
0.2263445543
0.198596782
0.2443176564
0.2419056607
0.2376144917
0.2241598024
0.2044044113
0.2463302106
0.2422954981
0.2362372369
0.2290440711
0.2181879317
0.2448667298
0.2427199691
0.2407728936
0.2349791236
0.2282976249
0.2477612831
0.2453783582
0.2410546861
0.240995015
0.2344632688
0.248126766
0.2455998983
0.2463128775
0.2429667381
0.2400455606
0.2455798826
0.2461362279
0.2408487926
0.2436776894
0.2387281431
0.2471987342
0.2460694291
0.2441848728
0.246087972
0.2418503488
0.2469971839
0.2462249712
0.2449067858
0.2458381483
0.2447212751
0.2478322833
0.2484962405
0.244793318
0.2457154406
0.2456133067
0.2467257223
0.2465868562
0.2477621843
0.2488824516
0.2498222995
0.2473449078
0.2465226769
0.2462148311
0.2467563951
0.2479702401
0.2482812294
0.2454681139
0.2479131888
0.2463251502
0.2458180584
0.246964611
0.2489893865
0.2452159702
0.2482895249
0.2502980135
0.244545274
0.2470686414
0.2441603034
0.2441460982
0.2427851838
0.2459031453
0.2468023499
0.2485503282
0.2501634528
0.2509235635
0.2459917143
0.2473558969
0.247269331
0.2474078433
0.2464482429
0.2465202217
0.249925999
0.2478315761
0.2495217548
0.2502846763
0.2462106183
0.245886837
0.2456392997
0.234565356
0.2064183806
0.2507568419
0.2417523823
0.2398206994
0.2303045028
0.2136760639
0.250109752
0.2466415226
0.2409631521
0.2360689066
0.2267244741
0.2498753342
0.2467203507
0.2410768866
0.2358622271
0.2316370897
0.2510695364
0.2430014072
0.2417937952
0.2383576301
0.2340691903
0.2430452529
0.2411995871
0.2444321716
0.2405764773
0.2395490073
0.2494506173
0.2450273685
0.2457981421
0.2446604401
0.2426801741
0.2468224575
0.2456687787
0.2464575275
0.2458208625
0.2427648971
0.2498061202
0.2470217974
0.2481061797
0.2437964715
0.2435380676
0.2519661288
0.2486169585
0.2454819287
0.2465033446
0.245306959
0.2488195253
0.2494835492
0.2487680883
0.2465523924
0.2490212366
0.2484226695
0.2467713192
0.2471423845
0.2467220587
0.2462945588
0.24951712
0.248941373
0.2460992838
0.2476001026
0.2501420125
0.2471921497
0.2485932967
0.2457906311
0.2466290813
0.2512694014
0.2503044218
0.2494745283
0.250291634
0.2497136184
0.2473124509
0.249180794
0.2473143706
0.2475713682
0.2481910048
0.247878358
0.249058457
0.2477459702
0.2525061848
0.2465043577
0.246986597
0.2460987683
0.2499367406
0.2471357531
0.2465788843
0.2480780577
0.2222130791
0.2539122096
0.270799794
0.2826501794
0.2907730576
0.2984431957
0.2983591567
0.3055702933
0.3052616989
0.3050484804
0.3125150586
0.3101390178
0.3077614815
0.3086355993
0.3016539452
0.2972216336
0.2890804761
0.2797401128
0.2736244735
0.2577464383
0.2486325222
0.2296219874
0.2031038218
0.1791759551
0.1386973035
0.2015043046
0.2281224355
0.2476424451
0.2589509126
0.2686931251
0.2743986022
0.2764241162
0.2789740137
0.2840297367
0.2825535698
0.2864313719
0.2871291172
0.2813244719
0.2810195843
0.2761256363
0.2725954493
0.268950204
0.261067579
0.2557174117
0.2450976199
0.229453908
0.2125315303
0.1993047541
0.1712133561
0.13848798
0.1929920044
0.2093954632
0.2238109167
0.2365589484
0.2453847423
0.2520089742
0.2582627703
0.2627842864
0.262916471
0.2652993771
0.2657447261
0.2709944937
0.268457425
0.2665136165
0.2641795588
0.2637276063
0.256626715
0.249357694
0.2421315525
0.2351189621
0.2230484294
0.2077090616
0.1932342069
0.1712053747
0.1404364178
0.1900110271
0.20002145
0.2091580608
0.2178089488
0.225694089
0.2334490253
0.2426190706
0.2475368466
0.252215036
0.2543293101
0.2559013831
0.25885507
0.2589830457
0.2555896161
0.2535965359
0.2513423702
0.2494399189
0.2415659049
0.2367531044
0.2269187601
0.2170756243
0.2045422202
0.1911906379
0.168818535
0.1431569068
0.1867013602
0.1924178396
0.1983011143
0.205432876
0.2118872584
0.218886793
0.2266567571
0.2320463312
0.2392525982
0.2420741557
0.242252288
0.2483684587
0.249042864
0.2478916604
0.2465905926
0.2447240017
0.2365069364
0.2321394582
0.228546153
0.2210627068
0.2117124199
0.2044599608
0.190108735
0.1706862925
0.1444775447
0.1876037499
0.1911011603
0.1952144305
0.196981524
0.2011511581
0.2061900435
0.2125505085
0.2192531912
0.2255043537
0.2316516321
0.233224362
0.2368890382
0.2421634312
0.2363602269
0.2338072869
0.2331857536
0.2329426286
0.2291758069
0.2240565531
0.2170332464
0.21008695
0.1986243998
0.1865575557
0.1698852822
0.1446346424
0.1830159011
0.1870792318
0.1905145062
0.1888685893
0.1915692079
0.1948198988
0.2013291971
0.2062002772
0.2109281735
0.2190942111
0.2213261546
0.224342303
0.2269817698
0.2305423423
0.2270170829
0.2260820504
0.2242202408
0.2205306846
0.217290622
0.2141484564
0.2058582143
0.1947540831
0.1837989952
0.1714110635
0.1471685368
0.1855943976
0.187233275
0.1861217781
0.1861720935
0.188034785
0.1872617536
0.192670115
0.1998189991
0.2016439129
0.2062330701
0.2086399392
0.2133011685
0.2139418049
0.220183097
0.2154905731
0.2211808053
0.218375437
0.2149427888
0.209557865
0.2041597873
0.1988368933
0.193674557
0.1817142042
0.1664769887
0.1486850418
0.186659368
0.1879421879
0.1841864919
0.1796092441
0.1801723941
0.1808447043
0.1847889238
0.187215631
0.1890876824
0.1970357616
0.2003907821
0.2011175325
0.206720288
0.2075765605
0.2097443256
0.2094047191
0.2096761607
0.2054705008
0.2051823962
0.2010811554
0.1947814338
0.1886060025
0.1786631415
0.1652789116
0.145530996
0.1843917077
0.1850379939
0.1816195432
0.1817130911
0.1772755268
0.1751252445
0.17802117
0.1784435508
0.1836910159
0.1836830677
0.1899694479
0.1921648111
0.1955561483
0.1973564893
0.1989136002
0.1981148937
0.1977028292
0.1978167934
0.1947396418
0.195931505
0.187058157
0.1827251706
0.1720809142
0.1626811821
0.1434628368
0.1846360512
0.1841923787
0.1803146705
0.178482483
0.1752700289
0.1733466117
0.1733698749
0.1727848873
0.1760609359
0.1778185649
0.1781112329
0.1830873287
0.1864474894
0.1890228425
0.1862368024
0.1879863921
0.1851862035
0.1856343119
0.1858502841
0.1848713454
0.1819928296
0.1745408434
0.1668155579
0.1565704686
0.1380413868
0.1822522489
0.1838273075
0.1807734665
0.1762472465
0.171025052
0.1670793002
0.1666148006
0.1670992666
0.166350693
0.1712670662
0.1716991424
0.17440969
0.1753583062
0.1762977536
0.1779897807
0.1794425103
0.1792353097
0.17954309
0.1750021289
0.1732879806
0.1727176275
0.1689641925
0.16117816
0.1522647463
0.1355044746
0.185887474
0.1846266427
0.1796820643
0.1760301161
0.1694631154
0.1656771028
0.1654700558
0.1644845264
0.1635593352
0.1623889805
0.1643679555
0.163005343
0.1667790618
0.1696062578
0.1670392724
0.1684485202
0.1675943917
0.1684160616
0.1680686972
0.1674815273
0.1631469885
0.1599926989
0.154782244
0.1468507263
0.1294908197
0.185150788
0.1852602708
0.1813839104
0.1749115964
0.1712390955
0.1645217962
0.1611181544
0.1583448878
0.1582158415
0.1566086793
0.1573702133
0.1549176863
0.1565773456
0.1563927148
0.1566087406
0.1556364537
0.1588594816
0.1599164939
0.1584991564
0.1584178904
0.1561865843
0.1519535197
0.1468145918
0.1387227893
0.1256568418
0.1839066603
0.1797926776
0.177544275
0.1703453903
0.1660277481
0.1618779997
0.1561431465
0.1538365307
0.1507272976
0.1485687487
0.1463159452
0.1466102877
0.1483038232
0.1474935807
0.145577392
0.1491134071
0.1508033097
0.1506263191
0.1487243834
0.1478727932
0.1460528238
0.1455080131
0.1393372266
0.134425513
0.119995311
0.1835458131
0.1833574627
0.1760895857
0.1703098294
0.1647770242
0.1576543995
0.1525798066
0.1485836218
0.14411156
0.1432124391
0.1411689301
0.140435904
0.1388074326
0.1394028663
0.1391535511
0.1410546422
0.1400394312
0.1384011835
0.1419747216
0.14097587
0.1396587208
0.1368988431
0.1345315525
0.1267726451
0.1180891099
0.1830982393
0.1795108318
0.1726469521
0.1655687213
0.1570438894
0.1500611718
0.1434997677
0.1414650808
0.135872297
0.1348030682
0.1341230586
0.1346557121
0.1326899749
0.1340818918
0.1312179845
0.1330401941
0.1328527798
0.1318195222
0.1338081526
0.1315162506
0.1313032603
0.1309794302
0.1273083453
0.1243227283
0.1143392565
0.1844593402
0.175876427
0.1675649742
0.162342297
0.1537558908
0.1491389697
0.143592746
0.1421497509
0.13851043
0.1373936497
0.13454594
0.1345659569
0.1330276907
0.133038856
0.1347423459
0.1321051794
0.1329575485
0.1343197562
0.1362951992
0.1339052285
0.1332796648
0.1355649471
0.1332197956
0.1304577839
0.1251840485
0.2028175377
0.2265930437
0.2461384015
0.2596532194
0.2656396321
0.2723223206
0.2764479932
0.2762257215
0.2798247492
0.2814138291
0.284669667
0.2857740647
0.2857313734
0.2824050798
0.2771430464
0.2741715532
0.2682000192
0.2610398646
0.2519590473
0.2430936253
0.2314887678
0.2160624149
0.1950541984
0.1742498776
0.1399858626
0.19092864
0.2126439542
0.2347106633
0.2500971911
0.2554149095
0.2585368626
0.2600929482
0.2580939016
0.2553777831
0.2594234507
0.2568550601
0.2583944364
0.2544740354
0.2511357939
0.2537915689
0.2483344064
0.2444229564
0.242449765
0.2327631671
0.2265332097
0.2159548747
0.2032928522
0.1850286562
0.1668596907
0.1384428009
0.1877980219
0.1999991026
0.219306016
0.2341855451
0.2451794903
0.2489277916
0.2520143941
0.2516807265
0.2483259774
0.2480393596
0.244714191
0.246501858
0.2437985713
0.2411605663
0.2398229239
0.2347279774
0.2325744932
0.2279949704
0.2224386873
0.2144494914
0.2044557601
0.1952784768
0.1811500494
0.163995732
0.1392980495
0.1840698172
0.1957566807
0.2076813325
0.2206276942
0.2287802763
0.2363640928
0.2394632858
0.2405558779
0.2403780126
0.2419544946
0.2400794527
0.2391499193
0.2378241306
0.2335452027
0.2332612803
0.2298614198
0.226708476
0.2204580868
0.2155349606
0.2096996032
0.2021703972
0.1926418417
0.1800909999
0.1632525775
0.1412738759
0.1852663227
0.1943006385
0.205392302
0.2131757008
0.2208139684
0.2250101958
0.2315316274
0.2337432068
0.2346665561
0.2350089123
0.2332935421
0.234111739
0.2290557729
0.2304939431
0.2274780448
0.2272372862
0.2195624901
0.217140525
0.211460251
0.2030006004
0.1981725654
0.1870366115
0.1774947053
0.1650406757
0.146600803
0.1873436535
0.1925643658
0.1999823806
0.2077586746
0.2151304881
0.2203689862
0.2207237171
0.2246468638
0.2275456864
0.2290367683
0.2285909671
0.2276039808
0.224810832
0.224601235
0.2222061318
0.2210115831
0.2168905776
0.2124422612
0.2077647674
0.202289101
0.1950850148
0.1884373085
0.1773610389
0.1636399398
0.1454168607
0.1876403579
0.1921112239
0.200458446
0.207105981
0.2095484979
0.2112506889
0.214434268
0.2180786837
0.2181612682
0.2191800776
0.2218898156
0.2177313549
0.2207426502
0.2193003342
0.2185353979
0.2123483742
0.211156254
0.2093096823
0.2055656764
0.1995502997
0.1956562811
0.187146728
0.1770836506
0.1660793637
0.1457721342
0.1876154616
0.1920860288
0.1972461744
0.2015476633
0.2069535476
0.2066146811
0.2094046758
0.2095283062
0.2092729252
0.2111901082
0.2128403414
0.2134412154
0.2109549821
0.2111254832
0.2097980572
0.2089661797
0.2051717651