/*--------------------------------*- C++ -*----------------------------------*\
| =========                 |                                                 |
| \\      /  F ield         | OpenFOAM: The Open Source CFD Toolbox           |
|  \\    /   O peration     | Version:  v1706                                 |
|   \\  /    A nd           | Web:      www.OpenFOAM.com                      |
|    \\/     M anipulation  |                                                 |
\*---------------------------------------------------------------------------*/
FoamFile
{
    version     2.0;
    format      ascii;
    class       volScalarField;
    location    "0.003";
    object      surfaceHeatTransfer_Ar;
}
// * * * * * * * * * * * * * * * * * * * * * * * * * * * * * * * * * * * * * //

dimensions      [1 0 -3 0 0 0 0];


internalField   uniform 0;

boundaryField
{
    flow
    {
        type            calculated;
        value           uniform 0;
    }
    entrance
    {
        type            symmetry;
    }
    walls
    {
        type            calculated;
        value           nonuniform List<scalar> 
900
(
1407.354682
1450.013208
1405.464231
1324.292304
1310.039976
1241.399381
1240.727923
1227.399848
1205.904553
1197.276376
1168.026937
1172.422848
1204.719749
1148.532985
1164.486986
1106.210365
1105.567708
1116.068193
1482.193012
1631.54918
1545.326405
1478.428506
1370.6583
1336.384795
1299.556073
1344.490441
1282.402997
1279.454318
1252.181942
1243.541742
1208.23009
1202.535009
1221.484533
1248.02779
1160.247442
1114.535117
1427.993521
1763.952953
1704.233988
1645.141437
1484.747919
1450.777098
1407.490473
1352.02355
1313.471121
1330.84993
1311.513815
1248.516923
1244.755765
1243.471605
1278.629923
1180.515257
1215.316036
1133.592017
1320.847584
1762.127496
1751.105102
1691.300276
1570.895731
1525.44992
1425.311464
1372.536816
1378.625169
1306.554236
1269.15038
1344.107768
1292.278711
1259.058711
1227.458548
1237.318549
1180.422397
1105.542661
1205.081517
1717.959699
1752.226194
1734.412517
1624.873071
1565.627438
1472.530404
1465.026506
1370.833814
1398.260182
1360.27201
1300.423721
1279.196797
1228.454627
1241.537095
1171.337706
1164.838334
1167.04418
1129.566641
1585.853263
1777.914061
1748.009395
1714.191214
1592.746716
1575.656861
1440.792385
1448.061218
1393.738496
1311.947665
1314.043291
1282.378046
1222.794688
1211.548254
1148.319235
1154.086705
1130.949024
1029.985945
1498.32561
1666.250487
1765.442571
1731.995686
1713.144801
1571.909525
1490.463755
1440.699794
1383.790104
1323.872009
1309.601893
1270.660143
1259.408177
1167.408161
1155.028434
1112.694431
1101.464853
922.1743804
1364.417977
1642.69342
1693.947124
1723.140341
1636.399883
1587.476188
1506.506325
1441.654603
1372.474956
1349.687465
1309.008564
1303.878354
1203.553362
1190.078196
1154.16819
1153.687907
1127.031948
828.9027682
1292.269501
1550.206421
1664.183165
1679.049707
1652.213785
1611.221151
1506.879678
1495.123171
1458.532165
1369.750773
1298.268514
1276.634012
1193.448278
1222.100826
1162.02328
1109.575332
1141.333532
774.5796891
1203.708791
1421.678828
1584.306601
1599.293466
1647.876189
1612.230683
1529.647122
1489.124857
1350.838214
1411.124648
1295.444495
1253.485458
1221.5495
1182.410324
1115.205566
1115.227157
1129.746765
727.8970838
1080.982008
1340.561876
1482.385484
1555.888967
1617.403743
1600.860217
1541.609125
1454.682309
1397.75291
1324.105424
1330.260096
1223.72861
1187.104528
1165.497532
1118.376
1072.985292
1163.666524
633.8014317
980.3565922
1231.217149
1411.81891
1423.416289
1525.437064
1523.743921
1507.936129
1445.252651
1450.809314
1374.57641
1257.767667
1259.330772
1205.189361
1146.721282
1102.207252
1108.210494
1160.840752
671.4188572
902.1757066
1186.375642
1301.088114
1464.471478
1516.373694
1540.568389
1497.56764
1447.229649
1382.47528
1332.487658
1311.615986
1248.365268
1203.247969
1135.510744
1094.571587
1076.550961
1158.431962
591.8334388
870.4787034
1097.920071
1242.68386
1371.336895
1447.248757
1446.766954
1414.120224
1420.588289
1396.679162
1293.339049
1261.039044
1256.542517
1169.215338
1179.874771
1070.010675
1080.637873
1150.556861
541.4478937
822.6098916
1030.25727
1169.040645
1299.994004
1360.893051
1431.103814
1430.020574
1366.520448
1377.561776
1296.228408
1300.655679
1224.912426
1152.660747
1111.681615
1116.239046
1077.879321
1208.835654
493.8235506
783.0149676
899.3934024
1085.057718
1228.893774
1295.609842
1332.093914
1339.991724
1412.616138
1346.21071
1325.290544
1276.992828
1209.441813
1171.330877
1133.880276
1082.462055
1056.091299
1211.890912
489.160882
693.0107396
878.6849874
1056.653246
1154.762297
1218.971766
1298.112803
1321.252836
1295.213812
1296.909057
1276.699326
1196.086376
1188.584179
1139.475258
1078.206131
1069.654445
1065.91809
1171.044548
443.6439421
672.5873352
832.3638522
959.145449
1093.222076
1212.843023
1225.157321
1262.767665
1271.207875
1227.336159
1268.95402
1258.043802
1131.186496
1135.883952
1126.48317
1119.698778
1089.52523
1207.512849
423.5715411
628.02469
788.6367968
923.9006514
999.4713984
1121.593224
1164.463808
1207.208679
1196.571185
1217.652536
1214.355173
1201.027933
1135.629831
1133.911386
1064.769783
1060.206904
1097.016632
1160.747003
383.1250354
577.816904
727.9800516
855.7327663
968.3903977
1074.434814
1126.550192
1157.346669
1211.604273
1244.279962
1172.326284
1129.861872
1132.721131
1077.649883
1072.349024
1074.227082
1118.497341
1164.1997
366.776192
528.168323
644.7833567
832.086034
887.1558543
1008.016424
1045.113346
1100.889023
1145.422592
1128.539186
1084.779033
1141.044143
1091.661426
1025.207188
1038.861053
1061.050514
1054.396015
1205.463621
368.9740221
503.9984967
645.6845478
767.8723961
895.8505246
939.4746366
990.3406181
1057.208028
1034.692531
1099.134416
1110.923241
1071.840784
1031.709569
1039.909403
1021.276327
1029.6494
1028.740737
1196.728101
337.3696013
499.3974258
577.8637886
727.1469919
788.8327975
880.1486529
926.2820721
1002.231123
1036.25492
1042.967743
1059.77976
997.1640647
1041.816322
996.803521
967.3712243
1010.119946
1043.818064
1200.140927
298.0202411
454.5969936
557.2939214
685.0578442
759.6912856
859.126773
882.364517
965.6028001
997.9215893
998.7174701
1022.903732
994.7716234
999.7589207
996.8846936
998.4342996
975.1051615
1008.280521
1194.969346
316.4690617
447.6549051
543.4318728
647.9532069
727.9227572
781.5774622
854.0915261
887.6285747
901.0103935
973.5538793
987.8275293
988.1746837
934.4019511
982.8963769
940.3468409
957.5078882
1021.349242
1163.186371
1416.465629
1404.977849
1407.428905
1347.406226
1285.330296
1271.826756
1246.473847
1204.793106
1205.043368
1221.19634
1230.030996
1133.880081
1132.204526
1199.589669
1161.036317
1174.59202
1151.851259
1086.013973
1476.69748
1681.043907
1566.48235
1496.450081
1360.477397
1368.419234
1297.191829
1266.975117
1240.717986
1312.358155
1269.621631
1233.392416
1242.650786
1217.512721
1178.210637
1251.325437
1175.618518
1183.497434
1386.748333
1730.432431
1667.675778
1623.197163
1548.156959
1472.890896
1412.984034
1362.152619
1333.707109
1310.317528
1261.725674
1275.602944
1276.833593
1236.128701
1251.684528
1246.429665
1199.14888
1135.624489
1318.270879
1750.599333
1749.583116
1707.796001
1598.614891
1552.188765
1414.725754
1369.387206
1341.190739
1349.446771
1292.667779
1294.395103
1282.14157
1278.765763
1222.390758
1199.415179
1194.865912
1107.990725
1197.791982
1718.140095
1787.924765
1755.879471
1645.224954
1572.2355
1517.870938
1435.900292
1424.476129
1350.684519
1306.461595
1288.968882
1297.923473
1288.447518
1297.61819
1230.843905
1159.669654
1150.729581
1114.604655
1595.608027
1747.75698
1726.086397
1701.946128
1617.401838
1482.09299
1469.058167
1456.369924
1313.78441
1359.955051
1288.194393
1296.491684
1256.636937
1181.496735
1154.674471
1144.054338
1155.008022
1035.190412
1478.514894
1723.192138
1724.793582
1679.91687
1646.730492
1539.910051
1508.672891
1356.766806
1390.098156
1304.482275
1298.675877
1309.002882
1254.378094
1211.909406
1185.418389
1127.930288
1135.801194
909.9239163
1368.592867
1573.564798
1676.746036
1708.855547
1662.34592
1591.601609
1564.558417
1451.88187
1395.825046
1338.990594
1358.371672
1263.464447
1264.360454
1186.922484
1171.209519
1113.659372
1138.39907
841.3317806
1246.407886
1531.999872
1651.185778
1696.854422
1709.909792
1587.81953
1550.359722
1439.447455
1409.426667
1321.667312
1356.062345
1294.812666
1214.422069
1132.597828
1147.359731
1108.37472
1150.993149
764.1131124
1194.056681
1431.773063
1593.531977
1629.003857
1679.586968
1608.663395
1503.14637
1484.86476
1369.699996
1372.828222
1307.842087
1193.107178
1242.732351
1153.492846
1143.419441
1110.133094
1172.412809
744.4547502
1089.682223
1379.743098
1500.304475
1562.323604
1568.23929
1539.63659
1495.118293
1472.727486
1446.520601
1364.966071
1271.50118
1230.29983
1208.000188
1161.330288
1096.675813
1092.189753
1147.867889
678.5091913
987.6708427
1257.288992
1466.631362
1486.632659
1539.988239
1573.191857
1501.047942
1438.798177
1371.708873
1319.986443
1291.992535
1227.269917
1203.909512
1123.087043
1108.421154
1075.548715
1175.158718
637.7559066
888.9996222
1161.214279
1314.461809
1435.815679
1503.146278
1479.302295
1478.381745
1432.190033
1384.81084
1330.476753
1259.230899
1227.505962
1198.6177
1101.54768
1066.126824
1063.684277
1154.103626
566.4875479
868.005228
1079.231951
1261.073207
1385.541105
1420.07993
1446.234288
1464.414417
1434.492299
1414.83573
1367.646148
1299.096598
1245.372134
1208.076382
1130.347263
1083.760228
1063.661661
1155.490142
537.2688683
817.943781
1003.08336
1162.110102
1279.993632
1364.968451
1403.109172
1399.887225
1410.073492
1376.015865
1290.77585
1271.901335
1190.21824
1152.787817
1131.959084
1080.622962
1058.913081
1163.319459
505.7708843
758.155977
948.7328934
1099.16589
1197.900556
1319.731577
1329.096074
1413.839724
1351.083424
1348.848569
1311.698664
1287.002507
1168.952621
1167.351713
1116.449569
1106.128112
1082.534643
1174.788445
484.2136768
702.5207595
877.7395576
1017.157448
1131.01526
1216.83264
1232.685836
1311.385868
1327.017965
1258.340254
1271.992047
1233.374344
1208.996163
1118.391552
1066.99399
1062.428254
1068.353966
1171.9793
437.1051285
643.3258306
834.1489179
984.5519439
1088.888609
1136.392154
1225.149016
1202.128022
1266.848528
1260.021105
1190.461764
1204.587235
1202.442312
1131.473082
1059.142675
1048.972665
1099.868638
1176.487221
437.1811066
657.850414
800.1168951
902.5259262
1021.20773
1119.800584
1167.588257
1192.529057
1273.850169
1260.733479
1223.577439
1177.330485
1136.719311
1123.781813
1094.594003
1040.269543
1072.64107
1199.864275
391.8997535
568.0412509
691.4587403
830.5546202
966.0603358
1054.037229
1116.887447
1121.728127
1189.724178
1173.841552
1165.500578
1133.075522
1104.445466
1075.504151
1061.246457
1065.562141
1083.791827
1250.837896
369.6577334
511.2729495
685.9956742
812.871748
909.8368841
965.9464645
1049.445774
1098.437792
1182.147105
1163.268588
1134.364192
1121.319939
1083.831634
1055.99615
1026.963971
1056.649353
1098.097398
1190.457766
352.6432603
493.8208529
628.1849409
756.1776416
857.4751422
932.2394057
1002.819843
1064.172928
1075.93026
1102.843218
1057.093723
1071.381975
1067.812911
1001.261907
1030.669756
1005.591481
1048.957272
1237.297022
325.0520548
473.5124779
572.9158685
714.8175078
808.561288
872.2760593
959.1416892
1040.036146
1026.791636
1032.305985
1036.530485
1058.828721
1066.14479
1056.035657
1006.31457
999.0119587
1083.723716
1209.337448
312.9300237
434.2863605
566.9327651
672.4291571
781.2136207
843.7660696
898.3462086
925.9944021
1013.929341
1030.02694
958.5678875
984.0158305
995.5364371
983.8552797
951.0057633
983.3834833
1030.926141
1205.12192
323.8769647
420.1531339
520.5962172
630.3346491
716.9655932
791.2211401
855.739669
914.9674159
935.8803883
973.6524938
957.0078724
983.894319
1008.045438
956.3803134
950.5267693
987.123797
1027.42769
1207.356233
)
;
    }
}


// ************************************************************************* //
