/*--------------------------------*- C++ -*----------------------------------*\
| =========                 |                                                 |
| \\      /  F ield         | OpenFOAM: The Open Source CFD Toolbox           |
|  \\    /   O peration     | Version:  v1706                                 |
|   \\  /    A nd           | Web:      www.OpenFOAM.com                      |
|    \\/     M anipulation  |                                                 |
\*---------------------------------------------------------------------------*/
FoamFile
{
    version     2.0;
    format      ascii;
    class       volScalarField;
    location    "0.003";
    object      Ttra_Ar;
}
// * * * * * * * * * * * * * * * * * * * * * * * * * * * * * * * * * * * * * //

dimensions      [0 0 0 1 0 0 0];


internalField   nonuniform List<scalar> 
9720
(
350.5930641
393.3277842
506.2800903
796.1114888
1567.564386
342.726123
392.8233983
507.2674515
761.4827126
1419.824697
339.4121224
391.2541024
499.4491215
719.0510446
1238.201832
345.2220298
393.9456377
472.5084407
663.6864057
1121.341821
332.8433048
373.4744448
449.4028905
603.5910916
1038.157617
328.0468971
370.8079047
430.2080538
567.4783745
958.1657844
325.5606546
355.435361
413.3522032
545.8192404
924.2590163
323.666362
351.2328638
397.7020398
510.1843996
886.9328989
317.6185642
338.5018238
377.7396048
492.4827261
846.9288121
318.491656
336.6543161
382.9321894
486.8689287
850.4879732
315.1678438
337.956013
385.080434
478.6190467
839.9242358
310.4816233
331.4837686
378.09301
475.7958295
829.0412887
310.1196508
329.6703788
363.9246403
456.6272531
814.0563919
309.5768909
328.9093531
357.8190511
451.8549971
801.1664326
309.7984236
327.902912
358.4791315
437.8683719
767.5607329
310.1142448
321.7020794
352.9384072
424.3797991
752.9482167
310.4596568
320.709854
343.794351
403.109397
718.4158199
308.5171605
315.9144611
325.676063
375.7187309
624.7395454
340.3922981
396.6420715
513.8735081
772.2439932
1408.219681
341.571357
396.5509983
495.299879
772.0546465
1276.672239
348.8977036
398.9216824
496.8540773
714.5002472
1118.926058
337.1257566
387.0967511
474.7148517
663.7714762
1028.748396
333.5263894
368.8737218
452.3337373
606.2487021
930.9572194
333.5375692
361.9076397
437.3206433
590.7815254
866.0742379
337.1775765
368.5156332
426.8840351
548.7119806
799.1699445
319.8785248
352.4810698
402.759989
542.3578939
780.7231259
322.2962739
347.0741694
396.2123358
515.4210157
758.7021043
321.3114319
343.0157753
391.1472573
505.6695532
749.0748569
317.0207126
339.5939678
384.2418974
499.0259605
731.1192085
319.4722045
334.2778881
388.9787547
495.434794
728.2414014
314.660143
340.3329358
392.5783594
501.6553192
715.9664869
316.7768781
333.2062637
375.1992591
484.6660226
690.3462921
314.216239
328.4531198
370.8793984
459.5227966
661.5626978
315.3739851
324.8513778
358.272894
451.5855821
654.9518208
315.3525087
322.2871398
348.3310416
420.9525078
596.0449548
303.5340646
312.4389969
335.2892506
397.622558
518.9423388
339.1932673
380.9871296
494.6828539
713.1905898
1213.565585
345.5613588
397.4975454
500.0361234
711.3525275
1112.286477
338.7963443
387.0742827
477.1836397
678.1872007
995.2402739
333.2964533
375.8104343
460.7576843
624.2632526
865.4631226
335.3268844
366.7481361
442.9316032
573.6584646
791.0497378
332.0430052
368.1226863
443.037174
546.3764937
731.281881
330.4486024
367.8525359
421.5632627
505.5961854
684.6060111
324.8265219
349.7134891
405.1713559
490.1548938
646.7949194
324.9411249
347.6870209
387.1153145
478.6063288
627.8245208
320.9460164
345.4805028
388.3729595
463.326059
597.1893946
318.1111383
340.2983727
379.5431755
449.0471772
601.6889431
321.6680996
342.1003209
370.0391165
451.2870443
592.5269468
317.4490289
342.9770091
372.0932769
439.4044217
575.2131451
313.4669892
330.6608877
370.3377295
448.5731835
566.2480188
320.5496881
331.9328681
368.0063794
434.2534778
560.1971375
312.0896066
328.9860049
355.3921864
417.1635667
528.7405344
311.6469605
322.9222166
346.234146
397.5756403
494.0799481
306.9859016
319.3287724
339.5527048
377.8399638
446.9020161
334.6041177
380.8289312
467.5464924
652.6778718
1074.598853
340.1003586
388.9160224
489.8706082
664.430906
1002.78101
328.6807613
384.927978
477.092526
617.6312254
852.7541877
338.3510504
377.8883744
456.1528847
584.9600204
745.7522298
331.7202412
366.4731733
431.6453034
531.7681743
675.66172
327.4778368
363.9643074
422.4927816
506.5133613
631.5251491
331.1070756
357.5768305
389.5579927
465.8305199
599.653837
325.3981487
345.1929416
382.2935066
455.2164653
560.2881248
320.8407048
342.4915678
381.1043422
439.8072758
527.456301
319.8145048
337.2309388
368.61091
431.0778232
509.3452125
318.5946987
338.079109
372.3710235
427.4998486
503.7480592
315.4122332
330.2495121
360.7658135
421.8582261
498.5884092
312.0746579
328.5310775
363.2144169
409.1410996
479.2040643
313.0858381
330.6761324
357.9555952
401.6416999
482.5430751
309.7273085
325.600989
348.8430703
383.5426105
455.3283056
308.852405
321.0232702
345.3356023
377.869216
451.1827656
309.7969701
321.8239859
337.4516571
376.8143059
425.9376404
310.085158
315.6088385
325.967202
353.617561
404.8214497
343.4184556
375.7755514
452.5947924
604.0962554
1032.830364
339.1844329
386.5261637
451.526887
606.931845
902.9466045
340.0257069
387.4184634
457.1459108
581.406973
790.586314
330.062869
366.1898259
431.7214338
535.2528993
671.050883
329.8004051
364.3472244
423.8839529
501.374246
613.4034749
327.405854
358.9870785
403.5845206
475.3518617
567.4647858
330.3666489
350.0431092
388.926224
441.0673617
526.499529
330.4550736
351.7679104
384.2162379
431.129997
497.2953698
318.3572357
341.6509381
375.0193709
413.5365861
474.1555381
318.1474331
339.3616763
368.3816393
400.9475308
474.6498767
318.4238386
333.1379384
364.0589948
389.6525485
450.1802722
320.3210692
327.4371706
346.9116362
388.2438066
446.7002671
314.0983013
327.4830821
349.4659909
392.3530952
428.0094124
311.510642
324.1870668
341.9672362
376.9062406
413.829641
309.3726466
324.2586251
337.2265754
363.2388111
417.1081823
309.3035452
323.4196982
335.8884313
363.0002099
402.3366957
308.276565
316.7347268
330.965271
350.5883894
385.238768
305.8582537
312.741336
320.6203836
340.137359
368.2090789
333.8330423
377.8913193
442.487494
571.9892506
978.1768803
331.7122193
375.1372876
447.0170231
579.0001054
848.2801311
336.7235316
366.9284976
425.4876109
538.7468955
707.3653887
329.952731
361.171169
411.8948135
505.7195322
614.174112
328.4310364
356.5201218
403.1885694
478.0741355
553.8512213
324.5574319
347.9128543
385.6571458
443.0304279
522.776824
319.932138
342.5993336
372.4346696
423.0367944
483.5849606
319.6300423
342.9986798
363.4300402
398.4441032
457.4585952
319.945523
333.368343
358.6390717
382.7403949
439.1656038
317.7531049
330.5977217
353.1491316
382.7894341
421.4572131
314.1331093
318.8770735
341.7566485
378.1707089
418.2609214
308.8322896
324.0220532
340.4956526
378.6500075
405.6098027
312.1867259
320.9319183
338.9226678
363.48675
390.6999365
308.8936207
321.1851079
330.2972932
360.0823296
388.3336601
307.3582132
316.7434629
326.8105536
351.2781913
379.0756289
306.0786575
313.3061112
330.1939983
344.4787733
374.0967143
308.1977212
311.3120527
323.1389879
334.6949364
356.6552674
304.3495223
307.1073848
318.8573693
331.8565724
341.2402278
337.6631642
367.4016818
425.5207915
552.8188652
940.170895
335.5135554
361.9549942
430.6543089
554.0739382
820.1990773
331.8693343
361.4517541
409.7491612
501.9534063
679.7493726
327.6347802
345.8513654
397.3234524
470.8188084
579.1133603
320.9978942
346.3008117
384.119754
450.2875713
521.4128541
320.4704308
340.6387408
371.0185068
424.185124
489.4113261
322.4008899
339.7310307
357.2469114
395.6873761
448.2534365
316.1138589
328.3969865
348.814538
380.8911575
434.7281794
316.511574
326.549877
338.7150066
366.3050025
418.8347283
315.7798728
322.051959
340.5030862
362.7681436
389.9771275
307.8083546
312.3453398
334.2224002
357.3765274
387.5471035
308.353652
319.0278297
328.3901043
357.1729455
382.325698
306.01025
320.7330417
329.2157523
343.4187064
361.9232372
306.9129123
316.9776716
324.1062354
344.9640751
358.8710398
301.9811971
312.4714355
319.9555467
335.1467623
361.8289533
301.180336
307.9307238
318.7117928
335.8673036
345.9414929
303.1502117
310.1508853
321.2772555
323.3988517
338.2272858
304.8781385
307.433796
314.5567332
323.1956586
334.0424693
328.8060069
356.0290289
413.7354102
526.0220213
886.6991196
329.9545369
364.5871313
423.4599093
537.0575287
784.6925813
328.6041986
358.4884475
406.5271496
491.2167053
649.8497958
326.2419054
346.1297308
390.4148563
457.7203577
550.2405546
318.2307261
339.2771561
365.9389561
428.7980865
485.7292335
317.9274271
337.276208
364.7322688
404.9827684
456.1967316
317.8053977
330.1925461
346.9186658
375.6480149
425.2454801
313.9405268
329.2106465
345.716299
361.1977846
399.3727226
314.2177683
327.8804636
336.2026635
359.2232948
393.1331015
313.5869362
326.9104537
336.3330851
347.7868486
377.7332789
306.965124
315.1457313
329.4122395
346.7228173
368.7768951
306.2348249
317.9446409
326.2661396
341.4029948
363.3516408
305.106843
314.8129615
325.9830718
332.8363686
349.1747298
305.2787435
313.5905585
319.2640354
331.4605653
344.7777651
305.0930233
312.7434785
321.655819
326.2155957
348.7048752
303.7354856
306.8637056
313.7969467
325.0658539
331.8202145
303.035298
306.4213905
312.2973246
316.4670605
324.8361109
302.3832534
303.2725138
308.0634089
316.6324998
321.6582497
327.2855454
349.7453266
404.0969003
509.0428837
863.5812594
325.6035741
346.4999073
413.9925738
520.4273541
768.7165656
327.5653281
348.9171139
398.77679
492.6535541
623.8011245
316.2030568
342.6887071
375.872181
445.6393717
521.5568898
319.5145831
336.5514117
363.0036497
408.9942826
474.398786
315.0655377
329.4006547
357.6491885
388.0031492
437.9880882
313.609495
328.6432138
345.0819303
376.7217177
410.9047455
309.1864844
325.0966637
339.6695686
357.5308281
389.0980451
313.3865787
328.3877007
331.6348975
347.963559
372.208379
311.9318306
318.0611529
323.4323007
342.1338042
362.7414386
306.2634708
317.1594459
322.5920132
336.177011
352.6661146
307.218459
311.8370997
321.4136515
332.2443318
347.1755793
303.2779614
311.9448224
316.9077027
327.1479376
339.7710954
303.7917655
312.6065067
312.70084
323.961586
336.1399194
300.0168571
305.2175379
312.9753638
322.0786778
330.6665989
300.2985606
306.5802995
311.8060502
321.9975376
325.2789797
300.4397351
306.8376518
309.1783826
315.1814613
320.1903318
302.9426919
303.7927571
305.0745821
310.531806
314.2711965
319.4103445
334.0181905
376.3304186
476.2802656
836.2109966
324.6989476
343.3429426
391.7057022
503.4827089
754.9513513
318.6311552
340.5620127
382.4157539
461.6994434
604.9576982
317.4668668
336.4916791
371.0373954
428.4369409
522.5648275
321.8485688
333.4291099
363.787032
403.3964167
460.7617603
315.8734887
331.3561442
354.3420515
378.5034696
417.3435873
312.7764285
324.7500692
340.2774484
365.631784
396.9375103
313.6084458
324.9222765
334.1946868
352.3178728
378.3588203
308.261307
322.0791583
326.623011
342.6311853
359.371817
309.2470485
316.4569459
319.785074
336.7769479
352.9889302
305.5143094
312.0256849
319.4441098
332.0525793
346.1918438
304.7481911
309.8718374
316.795609
327.2012496
332.9661464
305.1513625
308.4185792
311.5497042
321.4108226
333.4608795
305.2823758
310.0648277
312.221009
316.8621692
327.1317646
303.0395258
307.2779711
311.5206962
314.4719252
325.2494284
303.6705452
308.3974824
309.091427
314.4856618
321.3417397
301.5491822
305.2039111
305.5980783
313.4329731
318.0006021
302.4298581
303.6507004
306.4414659
311.123237
315.1716622
318.191502
335.3553283
378.4507051
476.4336954
814.5854483
316.9045507
337.6948706
378.9426454
486.8884629
743.7913065
317.1236175
341.8479625
377.262418
464.5054141
602.9231891
319.3743157
342.2145472
374.3832049
433.3199159
520.9308809
323.6012517
330.3943833
358.9471262
403.5519161
457.6985711
316.0711692
325.2169328
351.7627877
373.8639756
413.2608493
311.4692517
322.0778905
337.8341797
354.4806756
380.3071786
311.3881556
318.7278614
327.6464492
340.2125787
360.6500898
304.4788216
316.2533723
325.6051428
335.6910232
347.2537983
305.5225564
311.3516739
320.2131142
331.4868224
339.518211
305.1203415
309.7369041
315.5966995
323.4985061
330.0389271
306.1367061
309.5268138
313.8640833
320.5489103
324.5834553
305.7994802
310.7363213
314.5948445
317.6036034
324.0869745
302.1042654
305.7231153
311.2470065
317.2245384
324.3458913
303.3100643
303.5767906
306.4928849
309.5015103
319.409786
302.5754725
304.0953603
305.2404737
311.1780172
317.372581
300.5300493
303.3399629
304.223833
311.1067632
315.8298494
299.7075405
301.0995709
302.2830502
307.9589049
313.1131217
311.9709118
337.1291122
370.7298891
465.7783907
815.7038732
313.525703
335.2562461
382.9997559
495.5696262
718.8369398
315.5708105
338.0278127
379.1540058
458.9330881
594.4993078
314.8710904
335.7174277
367.4325421
422.8978908
505.3244447
318.1022697
330.5558296
351.9155173
388.1800943
444.5829677
313.3659476
327.1612413
339.536912
365.412169
403.4521202
312.7713233
323.6527241
336.2079425
347.0378432
382.4296859
310.9004875
320.7903425
325.4178531
334.5508737
364.3107957
311.3745991
316.2932671
323.8947981
331.4457938
350.4169302
304.5851258
309.4094382
315.9650938
329.2183447
333.6692839
304.0356156
305.8986366
314.7740174
324.1703779
328.3043098
305.3871664
306.1995886
311.8948822
315.6903633
324.6538996
301.6458812
304.675315
306.3989107
313.9267955
320.4968216
304.0903961
304.6849892
305.0679075
311.087592
318.7141265
301.8517658
302.5217515
305.5171739
310.0278665
317.970837
304.376949
305.061041
306.7315002
305.4372406
310.6259005
301.9758983
304.5002539
303.858373
305.6707162
309.6914038
301.0181891
302.6812673
303.5474447
306.373986
308.4138428
313.0264056
333.2779184
368.9030685
453.5627702
785.4198392
312.8099933
331.7670931
371.7360519
481.6676241
699.6195583
317.6443954
334.2957372
365.4856863
441.5974067
559.2584835
315.7644547
328.3762735
355.8241926
409.2401771
486.2332024
315.9629731
325.3382927
345.9230011
384.3456714
427.3939144
312.7620018
321.4843014
337.5697413
363.3393239
398.290336
310.5169993
315.1878855
327.8399889
341.7628905
375.8593143
311.1302283
317.911622
319.1895059
334.4431743
351.2930397
309.1491773
313.9414185
320.4148068
324.289232
340.1375722
305.5855318
310.2598425
313.116683
317.7853669
332.3369283
304.2330609
306.6196791
310.6169635
319.6400396
325.6527625
304.2135837
304.5003705
306.5699063
311.9992755
317.873873
304.0748941
303.4106484
305.6923262
312.0415731
315.1654081
303.7722294
304.3351293
307.0651823
310.874435
313.4560254
301.4767977
303.1263614
305.1823946
308.7913776
311.4874889
300.6097345
304.8582098
304.7770185
308.2293031
312.9444821
299.4069227
299.388783
301.5944204
304.5181262
309.0683345
299.5343643
299.4230439
300.5170768
304.1783781
304.1465408
316.9875881
333.9468618
368.5626732
449.2999045
791.035138
317.1728828
332.3834638
372.9302377
460.7906926
664.5509055
315.4805637
338.9415792
369.2094605
431.9728234
561.4646337
315.0451309
322.6053759
357.2743851
402.4158467
476.9258857
315.3030855
324.7643665
345.7197232
373.0873226
409.4547597
313.81997
319.6892283
335.5623952
358.0752952
384.457192
305.8510519
312.8546946
327.2594034
340.5697376
364.3242748
308.6613391
311.2112032
320.6652863
332.5945781
348.8330152
306.579476
308.8893855
317.128266
323.4439158
334.2756142
302.4217412
306.8444572
315.0240594
318.2792038
323.1312318
304.6840326
306.0602382
307.1208991
310.9158693
317.643158
304.4528809
304.7282443
308.1166692
311.4976319
316.4865048
299.9861536
303.0186734
304.1966322
307.3442194
310.3706356
300.2499002
302.6545791
305.3846706
305.2513977
308.5377133
299.2648576
301.4683493
304.3723842
306.7067242
308.7896278
299.4075834
301.1666515
302.8707296
301.8268164
305.3943485
300.6187735
303.0087272
303.753393
302.9988403
307.5167343
301.3204669
303.0065668
302.266133
302.3235217
306.1434032
315.0280329
329.513011
356.974671
436.0495141
776.3698281
316.2558032
330.3797689
363.8138633
450.0026607
677.4967847
313.3336968
322.3482864
351.4786149
419.1615656
543.2965625
312.7057626
319.2318479
344.632226
400.4760883
463.1899674
309.8357241
320.1633674
342.1634929
365.7113567
408.3581707
308.9698218
321.1892663
325.2141225
347.4522774
373.2431306
306.5558303
311.4868929
320.7428234
334.4526824
349.9396234
305.2236827
310.3167818
317.5638069
322.6706807
340.1173457
303.4634091
306.4241901
314.1322339
316.6112511
331.1539943
303.4773877
306.7477532
310.6806493
315.9772118
321.6669917
302.1364998
302.5459428
303.63631
310.7619186
315.1096577
302.2974879
304.689521
305.3525603
310.7042907
315.6556923
299.4497228
301.473853
303.1407925
306.7384663
309.7579344
302.1424821
303.8939036
304.2904198
305.7830121
309.9384748
302.2210564
302.1489329
303.3759677
306.3409414
307.7229058
299.6263132
300.1770497
301.8334631
302.0334892
304.0602568
300.6939589
299.2166262
301.1699376
302.0728971
304.8823089
300.8096139
301.3981544
300.9738683
301.9504572
303.6294576
307.5511277
322.4975923
354.5749683
418.2513367
759.5738202
309.549722
325.6813559
358.5887216
418.936408
638.3992057
308.4598308
323.8576907
355.3203533
403.8954408
515.0041553
311.4085837
321.455474
345.7095848
379.9701868
439.1511059
307.7709083
322.2177764
336.1645777
359.3469282
395.3710905
310.0005294
316.9264
324.5130582
334.9785362
363.0132805
308.7617565
309.4700385
315.0694937
329.9472903
344.6549167
303.3507521
304.6364545
314.691663
321.6479791
330.7877702
301.78096
303.4236971
311.2065395
311.9926999
321.7155827
303.0509344
303.7132837
311.647194
313.5899551
319.2897732
301.4045807
305.6795104
304.8691951
309.6963892
315.5646787
301.2162573
303.2036354
304.4672513
307.9098516
312.1187765
304.0346017
302.9639106
304.5676917
308.6098217
311.3070712
302.7756544
300.47315
304.3146846
305.2695597
308.851066
301.4671736
303.1458431
305.1646609
306.2220408
308.1097251
302.1238983
302.8195084
303.301786
302.3988891
304.6322298
300.1794982
300.0009408
301.1566598
302.8089222
302.4371254
299.8337849
301.3506852
302.1230386
301.6337198
302.98587
308.8746902
319.9307629
334.4585142
406.6261462
730.7872624
310.617855
327.9075795
350.1242429
427.2812492
626.2491764
308.5001433
323.4221703
346.3282955
405.998233
487.6373017
310.9945093
321.3983622
338.8124002
367.0338829
420.8842706
306.224485
314.4755457
327.9172849
342.0389517
379.2939152
306.9162793
310.7861544
316.4348311
331.3673074
354.233836
308.4048752
310.6280687
315.5047812
323.2201178
340.7778902
304.7968219
309.0482049
313.979536
319.6939508
330.9733365
302.7091666
305.7288352
311.7383545
313.6418706
319.7826539
303.1640271
307.9004996
310.6386086
310.8452036
314.4666522
302.4263856
304.1099304
305.3059773
307.0950132
313.4789654
301.8454591
303.240279
302.88644
303.6449087
308.7083396
300.799394
301.544373
302.2103512
305.3859606
307.8548894
300.5132924
300.6065274
302.8099824
305.9751508
305.0777046
302.4532391
302.0390203
303.8108971
303.2633073
304.6234243
304.3214033
303.7710324
304.1446479
304.2943639
303.8663373
301.4005961
301.1721836
303.0453058
303.7092893
303.5488021
300.8533203
300.2625096
300.9112455
301.740653
302.7123184
306.1744702
312.3510457
326.9840379
375.2739005
637.5052953
305.9526777
315.4465433
333.7390529
388.8069424
528.2236765
304.4658714
313.407187
334.9140395
379.9413363
434.9931673
306.780866
315.1314423
333.4449224
354.661803
389.2572509
303.6249508
314.389489
324.6993757
336.4769801
356.0377954
306.8110425
311.7330208
312.3740877
327.4416387
342.0528204
301.3665902
305.2157959
309.6101967
319.1168366
333.8318753
302.447099
305.1364658
307.3881481
312.1026656
324.3041089
303.6160503
304.9069665
308.6231613
315.3080393
316.0699418
302.0046884
304.6177819
307.0900523
310.7608622
312.8255876
300.4151603
300.9141305
306.7982648
307.1063856
309.1061447
299.6558001
302.1483972
303.0367279
305.4243978
307.5784811
300.365602
300.4422068
302.1856341
302.5863641
301.8619538
300.1040145
300.2471356
301.8857693
302.4261586
305.4967661
300.8020445
300.6947386
302.2374166
302.37324
304.5071428
301.5193963
300.9710758
301.0478279
303.4904103
304.2073107
299.7308002
300.831789
301.634109
302.8391668
303.6016906
300.9900376
302.0142731
303.245919
302.5530663
302.7749485
2262.530553
2221.896993
2110.793567
1957.241083
1827.205773
1714.130198
1617.035853
1533.54906
1475.588924
1437.608782
1386.594647
1360.813489
1331.083868
1305.169573
1287.51888
1275.76915
1259.50643
1255.477758
1229.935791
1227.226175
1219.204861
1219.636446
1228.57419
1225.208141
1188.599345
2084.917174
2206.829405
2194.405789
2137.712235
2057.121782
1963.714176
1866.67722
1776.28193
1697.580611
1638.102919
1576.174242
1523.783472
1497.86884
1464.839807
1435.204882
1406.757712
1374.350201
1362.044072
1339.353437
1322.356126
1322.291307
1318.928481
1298.190565
1279.79309
1232.042874
1931.807155
2122.043934
2191.436396
2181.513175
2133.726372
2061.795894
1986.399283
1914.472841
1847.416946
1773.715516
1707.385346
1650.356988
1614.303067
1566.245122
1545.832853
1512.389932
1485.835423
1451.143062
1434.495557
1412.099818
1402.393594
1389.608048
1365.743469
1342.638618
1287.835423
1808.08424
2024.810956
2141.604208
2172.112483
2164.062231
2112.839069
2053.416635
1981.586197
1942.214689
1868.795685
1802.350547
1743.771434
1700.267635
1666.65673
1624.041565
1591.48958
1549.543964
1524.905373
1499.923048
1486.422166
1460.959951
1451.754845
1428.884902
1405.584394
1346.688004
1749.169448
1961.69483
2092.896987
2147.869017
2158.79388
2137.785425
2094.927409
2048.603101
1984.65794
1935.049423
1883.967088
1828.32176
1780.395228
1727.205312
1684.808399
1653.048358
1618.906225
1605.042882
1572.915133
1538.172282
1519.351939
1495.537263
1472.814928
1450.015811
1390.403648
1665.791039
1891.823903
2028.963561
2113.257809
2145.529043
2150.094423
2120.164817
2078.326853
2030.74375
1969.358697
1918.240099
1875.969635
1827.5334
1790.492378
1762.726829
1714.934377
1669.005003
1637.615534
1627.145219
1596.487256
1567.455267
1548.15684
1524.854902
1508.433125
1426.827631
1632.320121
1834.094227
1988.476372
2071.661769
2120.93729
2134.750396
2134.792841
2093.992914
2063.280571
2012.627293
1965.381106
1917.280033
1864.911144
1825.991161
1796.44552
1754.937521
1718.425165
1686.64098
1666.598621
1632.390301
1598.366041
1585.848484
1557.861396
1544.943707
1484.801934
1593.925415
1824.616228
1949.018707
2027.365845
2097.176902
2130.822445
2122.538016
2100.758413
2075.73915
2033.535528
2000.272309
1954.088476
1907.525403
1867.5368
1837.180292
1786.60275
1757.766102
1737.021143
1702.8907
1685.883506
1658.758175
1621.504232
1600.329209
1581.086155
1494.654483
1575.150231
1778.133365
1917.492896
2005.696794
2076.986471
2111.844402
2117.549655
2110.830627
2079.741177
2045.437235
2007.609766
1972.27553
1934.456087
1907.210793
1865.822826
1836.260442
1798.374979
1775.951873
1739.334779
1714.460466
1687.247673
1657.727489
1634.785863
1616.914418
1534.366057
1553.140435
1754.379927
1891.822776
1985.916657
2042.196999
2098.088598
2106.776813
2112.613704
2091.365
2081.346299
2032.990486
2004.507213
1969.634482
1927.288134
1893.586548
1860.270488
1822.318064
1803.469429
1768.355245
1734.652409
1712.975575
1686.96059
1669.804969
1643.93121
1555.62886
1528.853042
1751.69096
1876.98323
1977.392821
2032.179001
2068.235156
2099.409431
2109.173716
2092.49701
2063.858513
2050.994253
2010.928159
1969.709176
1943.659939
1921.177933
1875.565821
1860.65727
1838.150011
1801.911316
1779.442192
1742.897805
1712.709395
1689.465064
1672.949535
1578.008743
1539.960521
1723.568792
1857.527749
1959.550869
2016.789472
2057.371815
2086.507229
2091.115369
2086.150489
2077.273145
2052.529426
2016.449272
1993.098289
1972.866009
1938.674295
1900.469563
1867.058271
1844.007399
1838.192563
1806.705439
1766.203059
1745.079779
1720.00691
1683.753191
1592.31957
1498.301156
1714.867832
1850.474192
1910.421612
1976.064433
2022.314658
2057.367706
2080.692285
2063.682982
2070.553818
2047.016879
2025.17114
2002.107047
1974.531836
1948.843205
1915.717762
1899.560815
1874.88631
1846.275601
1823.865582
1800.579888
1769.400652
1747.231429
1707.629917
1620.830727
1489.462375
1679.000068
1816.464721
1888.512162
1966.817496
2018.388662
2030.606863
2043.132882
2055.772815
2050.853299
2039.292004
2025.59384
1996.799495
1992.283578
1968.114559
1943.354845
1913.890566
1892.013379
1857.696514
1836.497792
1832.843279
1799.801697
1783.576858
1751.93303
1645.129246
1471.818168
1676.431653
1793.213822
1876.627096
1930.728919
1991.963033
2005.071467
2028.862574
2042.164138
2042.358876
2036.566155
2028.699217
2022.909764
2008.443981
2000.382501
1971.308105
1951.87773
1920.849632
1894.931266
1881.361048
1853.880718
1828.970005
1811.885403
1775.56166
1678.63398
1456.520128
1635.345525
1749.472528
1832.376323
1914.332865
1952.483921
1982.198136
2012.097639
2026.912441
2028.359119
2038.296855
2046.481257
2046.445434
2028.245047
2018.239191
1999.523151
1967.039565
1957.704098
1935.315289
1912.336452
1910.344971
1872.86177
1852.703525
1826.981874
1717.416105
1406.564256
1590.386619
1698.537977
1772.558308
1843.353491
1907.525299
1935.899141
1964.213709
1994.874318
2006.463708
2025.825524
2033.724872
2030.91458
2035.243129
2040.443781
2033.627613
2021.711645
1996.753945
2002.032183
1983.716069
1972.619096
1959.79916
1931.653224
1883.926053
1757.775934
1234.804815
1408.700145
1502.790505
1600.617894
1662.301761
1730.690302
1760.615767
1811.903368
1848.192531
1862.507135
1886.524542
1926.625583
1946.181372
1966.077511
1980.384392
1975.100726
1989.324485
2000.848708
2004.063807
2011.70588
1986.640043
1986.415521
1978.467765
1929.550273
1775.192818
2072.244064
2205.218813
2194.191456
2136.904206
2049.015143
1950.064352
1860.478283
1792.061837
1708.5103
1646.19904
1589.492593
1541.188959
1491.350786
1452.64141
1438.498603
1388.266099
1370.479085
1358.133823
1349.444955
1328.418728
1305.51251
1306.478435
1305.683553
1282.770226
1214.916928
1757.663736
1980.571312
2052.120415
2079.999704
2081.865871
2071.970194
2027.436447
1981.287467
1926.809991
1861.837085
1810.023657
1744.439914
1695.540109
1653.199487
1615.163519
1569.976188
1523.822683
1496.469836
1473.463168
1450.235067
1427.591538
1395.32846
1375.545987
1317.494647
1218.736429
1532.150778
1781.086668
1927.030191
1984.193432
2007.276344
2026.087016
2021.711379
2016.903341
1987.08903
1950.350657
1911.087368
1860.839412
1807.472382
1770.705642
1729.853152
1688.31773
1648.128011
1611.441197
1572.792848
1552.525612
1506.489832
1474.495306
1430.612355
1373.351929
1267.604083
1397.744369
1652.03918
1827.200077
1902.276776
1945.118637
1995.142091
2002.055412
2020.853093
2005.279777
1973.243689
1956.826688
1918.326591
1889.965183
1843.00646
1790.66266
1768.504093
1717.697866
1680.145463
1646.280654
1618.163351
1581.088306
1541.479929
1491.390097
1430.261661
1321.93579
1268.124449
1538.499925
1718.661671
1810.351525
1896.187493
1940.649361
1980.170291
1988.414398
1994.856109
1995.024018
1978.632626
1957.921804
1924.123812
1887.127376
1842.832867
1805.955154
1777.884743
1732.405889
1704.05365
1683.13823
1640.459855
1605.853731
1553.204243
1478.275774
1360.390851
1204.692599
1448.805524
1621.874381
1732.339965
1824.156403
1889.570063
1939.010072
1979.312462
1977.596092
1993.223836
1976.694519
1969.105942
1940.470651
1910.76018
1876.260339
1834.053876
1810.488653
1785.145648
1748.158155
1710.205162
1668.760338
1636.349996
1593.453279
1513.620515
1389.781517
1155.671431
1394.477047
1541.358258
1664.567761
1747.596331
1838.646216
1901.519651
1952.375427
1971.811959
1983.790157
1970.397407
1968.438972
1955.672906
1932.229172
1906.069071
1875.611102
1840.778065
1809.450444
1772.877629
1740.771876
1697.551313
1659.004123
1611.202919
1555.076953
1436.435363
1124.303853
1356.996505
1490.15865
1618.227171
1701.949724
1782.919226
1870.924073
1925.633658
1948.369708
1965.85042
1974.551033
1980.829521
1973.403969
1948.806756
1921.018269
1904.565545
1879.448648
1843.824042
1814.658235
1781.387331
1740.379546
1706.81683
1653.962088
1585.164156
1456.047441
1102.403105
1310.123257
1438.171299
1551.920487
1647.82982
1734.139199
1820.693403
1886.47037
1927.585912
1961.763794
1975.989601
1975.101557
1962.117735
1952.037325
1936.11188
1912.945252
1887.469784
1857.843172
1819.15279
1795.330626
1762.033838
1724.711715
1675.868948
1607.563088
1469.633338
1063.215254
1288.341121
1398.771119
1526.874455
1607.106503
1700.613564
1766.61475
1833.475244
1892.723139
1921.832249
1948.892239
1967.663496
1970.281601
1955.539538
1940.708098
1916.215617
1906.760501
1880.854662
1848.102973
1816.792623
1791.201895
1762.705788
1702.97565
1623.307515
1469.683114
1041.063643
1252.132117
1376.110152
1484.443143
1569.104458
1650.136522
1725.612703
1797.893339
1853.991678
1891.064975
1931.688545
1940.782923
1952.298471
1950.250276
1936.344762
1919.434133
1913.792514
1897.101541
1870.06922
1844.758542
1812.75345
1775.700591
1720.452745
1651.103457
1497.379753
1020.98758
1228.898985
1356.275838
1470.763594
1540.550119
1602.392694
1684.989137
1746.515544
1815.043352
1853.03372
1894.011473
1911.769527
1931.814436
1937.574438
1926.277821
1924.514833
1913.919545
1905.877928
1879.335775
1850.084476
1824.799453
1786.662258
1728.506608
1659.240044
1508.928231
1002.136522
1200.887154
1323.739919
1407.930033
1482.263022
1556.241504
1641.398651
1707.453133
1769.461098
1824.743382
1860.607535
1891.919281
1918.142899
1916.544618
1916.482863
1905.814459
1891.386043
1895.071816
1879.825102
1866.944054
1832.842153
1799.682792
1759.534719
1678.976134
1514.160277
977.7588623
1179.634161
1280.803071
1382.735834
1470.765101
1528.773662
1594.343182
1665.108193
1718.643686
1772.264324
1821.940277
1863.39317
1875.42014
1894.068538
1905.756391
1908.11393
1904.829178
1884.68546
1868.70418
1861.82691
1846.082854
1809.940314
1761.40212
1682.511835
1519.673329
968.7799648
1166.337297
1262.390784
1353.824599
1418.932479
1483.839891
1553.94294
1613.675008
1655.493329
1730.797813
1780.385586
1820.658482
1857.205218
1862.302344
1874.315266
1881.353113
1895.504096
1897.879223
1876.745298
1860.174069
1839.770234
1814.84651
1768.444878
1682.291607
1527.024204
955.1882325
1119.736954
1238.50566
1299.28855
1366.197154
1430.712309