/*--------------------------------*- C++ -*----------------------------------*\
| =========                 |                                                 |
| \\      /  F ield         | OpenFOAM: The Open Source CFD Toolbox           |
|  \\    /   O peration     | Version:  v1706                                 |
|   \\  /    A nd           | Web:      www.OpenFOAM.com                      |
|    \\/     M anipulation  |                                                 |
\*---------------------------------------------------------------------------*/
FoamFile
{
    version     2.0;
    format      ascii;
    class       volVectorField;
    location    "0.003";
    object      U_Ar;
}
// * * * * * * * * * * * * * * * * * * * * * * * * * * * * * * * * * * * * * //

dimensions      [0 1 -1 0 0 0 0];


internalField   nonuniform List<vector> 
9720
(
(1923.434852 -0.2433461677 2.158448373)
(1914.066182 -0.8116633162 2.007282328)
(1886.120255 -0.2043208801 1.413228806)
(1809.62713 2.327860719 4.107217091)
(1564.270034 16.89332533 17.44304492)
(1926.872688 0.7515400243 0.02823172221)
(1915.111247 2.317477966 -1.245947272)
(1887.60298 4.387176021 0.7630505869)
(1820.94699 10.88906962 2.632084995)
(1620.264022 28.59825459 15.18316305)
(1927.876723 1.832225819 2.332697364)
(1915.222353 1.843798204 1.617917316)
(1889.266196 4.773481761 0.460800109)
(1830.970807 11.39580881 2.267888934)
(1678.817793 28.44789191 18.22459127)
(1927.318216 0.7121245362 -0.7920458136)
(1915.848886 1.661867085 -0.2092029971)
(1895.612058 5.561389998 0.447783723)
(1845.37975 11.11784597 1.983872921)
(1712.075715 20.44411752 14.85856619)
(1927.337514 1.245761352 -1.104074872)
(1917.606108 1.892727529 -1.501466549)
(1897.965081 3.124200059 0.570659127)
(1858.628754 10.48840074 2.19485894)
(1734.428483 15.89383933 17.2023282)
(1926.10721 -0.8889661068 -0.1158152757)
(1916.957099 1.638042837 -0.1005488548)
(1903.252889 3.210387376 0.4080597762)
(1869.012084 6.894752566 2.51189418)
(1760.597136 15.23235101 11.87163568)
(1930.253756 0.7531711292 3.495219458)
(1922.028523 1.104565646 1.168351446)
(1907.789311 4.029280149 1.705260827)
(1875.52572 8.625133671 2.202716668)
(1770.085074 13.86776983 12.51178744)
(1931.036707 2.214749179 1.026666365)
(1925.224432 3.075012364 1.448405817)
(1913.456742 4.302257519 1.185830832)
(1884.39263 5.475766218 0.9471194106)
(1781.205182 10.06158348 13.02618024)
(1931.565418 1.352243612 -0.8258631691)
(1926.508776 1.316477248 -1.992779108)
(1916.612152 2.632781318 -1.367786478)
(1887.422257 5.295576766 -0.9169174871)
(1788.17716 7.13852814 11.30289807)
(1930.997819 -0.3275311087 -0.5904782545)
(1926.563223 0.9991936398 -0.01939645268)
(1915.141689 2.666192177 -1.018448555)
(1889.57553 4.926947661 1.264178138)
(1790.080679 5.549077592 13.04753945)
(1933.466691 0.6008499279 1.177272075)
(1928.014229 0.9774981499 1.463261571)
(1916.398076 2.190830115 1.256782804)
(1893.256224 3.908592465 1.77781361)
(1793.130445 5.79521703 13.1405623)
(1933.300897 1.347897535 -0.9269007662)
(1928.479241 1.56229018 0.1885511503)
(1917.924118 2.521472995 0.1355261266)
(1894.695575 1.018849586 1.314958169)
(1798.250958 3.584317086 12.50850374)
(1933.174877 0.7207089721 0.2564896263)
(1928.241604 1.345873345 -0.3878491841)
(1919.533515 0.6349941288 -1.162419475)
(1896.6391 1.576834007 0.9929955995)
(1800.503379 5.629546658 13.45505727)
(1934.213088 -0.7710114544 -0.4516105237)
(1930.744192 -0.8062345553 0.2679020132)
(1922.719084 2.461494187 1.00033993)
(1899.458827 3.284503636 0.1914199794)
(1804.419989 4.671674787 12.28154403)
(1933.042888 2.159944647 0.4254850177)
(1928.427924 2.59804346 -0.4895556149)
(1920.824562 2.316445498 -0.4078928084)
(1900.367962 4.189367924 -0.9724655082)
(1811.184604 6.241395424 10.43177053)
(1932.805447 -2.221853164 2.709612222)
(1930.369843 -1.717957021 2.468732712)
(1922.290804 -0.8086682296 0.3007828523)
(1904.268294 1.053622367 1.616998805)
(1815.28026 3.75992548 13.79494251)
(1932.777769 2.979952987 -0.5769071379)
(1931.0658 3.090318925 -1.179270833)
(1924.977895 1.289077798 -1.202655092)
(1910.138135 2.85873125 -0.5895876549)
(1825.210556 7.042823647 8.223852252)
(1933.413508 -0.4402174991 1.203776928)
(1931.53231 0.5373514927 1.346708168)
(1929.568855 1.643706647 0.2200295964)
(1918.003401 4.480097598 -0.07106873234)
(1853.189232 13.42969054 7.756727644)
(1925.235117 1.360414638 0.576567824)
(1911.138413 3.168570979 0.1430683366)
(1881.645152 2.42179398 3.512886798)
(1814.011056 2.58730178 10.26899799)
(1616.798573 17.95801829 27.83086564)
(1927.927012 0.9693862824 1.768716983)
(1914.189297 0.7676855075 1.70812106)
(1890.115024 1.25883681 1.242246054)
(1817.708623 7.05324368 7.28857861)
(1665.464082 25.61948111 24.49334331)
(1924.805192 -0.1627373484 0.4093703083)
(1912.815963 0.5579744915 0.5615425879)
(1889.526686 3.713903829 3.621539156)
(1833.194062 9.646653139 9.942161551)
(1716.214227 23.24014107 26.59967739)
(1928.503698 -0.8458341229 -0.4353597152)
(1916.567205 1.38810487 -0.4652210581)
(1895.598084 3.537551628 2.139043748)
(1845.572848 8.533073895 7.529260641)
(1741.770085 21.18646786 23.6995043)
(1928.292593 -0.1647130368 1.217101974)
(1918.783266 1.087271363 1.251631372)
(1897.623646 2.084549304 2.706756867)
(1856.844497 8.019994239 7.15444419)
(1767.868003 16.19594179 26.19538178)
(1928.266496 0.4168090917 0.1314810327)
(1920.801959 0.6931422401 0.6689377724)
(1902.219106 2.572328554 1.569056647)
(1864.245693 7.477976068 5.574146672)
(1788.058388 15.17704673 22.63343641)
(1926.756937 1.232214315 0.7844688508)
(1919.802894 1.390687266 1.63184329)
(1906.27471 3.058303719 2.237298712)
(1875.4616 6.375819901 5.213530031)
(1806.968374 7.852300514 22.01712191)
(1930.742678 0.5691761234 -0.6675402788)
(1923.594119 1.569266003 -1.027719737)
(1911.684538 2.014442894 -0.7893387646)
(1875.860818 2.684268685 4.389303079)
(1812.899018 7.560050285 18.92818389)
(1931.326337 -0.8632433074 0.1087525479)
(1925.527021 0.5666126233 0.01112509918)
(1913.437222 1.543729158 0.9535220632)
(1884.989442 3.290451589 5.96614971)
(1818.736002 6.744023676 20.25483679)
(1930.391232 0.7120535885 -0.981730497)
(1926.284352 2.236685703 0.1502160909)
(1915.28546 2.960007298 1.188749375)
(1886.653722 3.756506223 5.007212566)
(1820.367191 5.01979862 17.85238319)
(1933.046743 2.199701135 0.5280980538)
(1927.132746 2.584193896 0.8612868895)
(1915.293741 3.590110953 1.727672408)
(1885.495536 4.94016756 5.140759446)
(1822.489204 5.301219546 19.83306388)
(1930.365809 0.387389237 0.01368607378)
(1927.606094 0.928498283 0.4510144968)
(1914.761819 0.06404075849 1.757542868)
(1888.344691 1.339315731 5.680946651)
(1825.028468 4.076992587 21.08681477)
(1931.765115 -0.09450952158 -0.2454764375)
(1925.640853 1.614416071 0.6520982629)
(1913.36607 3.698972893 2.654702967)
(1885.305753 5.484209752 6.684635794)
(1826.016816 6.20501261 19.17010029)
(1934.118163 1.498436664 -2.263764692)
(1930.610162 1.14486545 -2.135529059)
(1920.597067 3.002313808 0.06551788163)
(1892.996365 3.402689066 5.17147068)
(1836.25716 4.422380291 19.41566538)
(1930.634661 0.7106932531 -0.2209433207)
(1927.020658 1.335461303 -1.053766665)
(1917.865474 0.6162121294 -0.4920697758)
(1894.967645 1.142923043 3.113708245)
(1842.327568 3.380797233 16.79929626)
(1933.913775 0.8730146554 -0.5194369377)
(1931.307657 1.301506761 -0.2971823723)
(1923.368604 2.091291985 1.506126632)
(1901.010008 2.70501381 4.725124425)
(1846.59388 6.352512447 17.13419809)
(1932.862959 1.542646509 -2.71717047)
(1929.796867 1.596717459 -2.946294489)
(1923.963414 3.625360587 -1.362811876)
(1906.46046 7.344403511 1.790004684)
(1860.507507 11.67665567 15.13940401)
(1936.079523 -0.1089184018 0.1072742541)
(1934.141887 0.7722139353 -0.6657269442)
(1928.49884 2.194613734 -0.8678191746)
(1912.995124 6.678617054 2.242854309)
(1881.549679 13.04137753 9.264471772)
(1927.583323 0.5537643089 -1.9180219)
(1917.238889 -0.6183297059 -0.5824405493)
(1888.726243 1.745205761 3.698417588)
(1832.214558 2.002561115 10.82027245)
(1683.662879 14.23389243 24.04911954)
(1926.246015 -1.04302771 -1.332631208)
(1913.385154 0.5152787013 -1.038174974)
(1888.347509 2.78044585 2.383167882)
(1834.616849 6.437215183 9.625481323)
(1719.168784 24.74283204 22.98139867)
(1928.162108 0.7120757556 0.3508383501)
(1915.965862 0.3935597334 1.287330924)
(1894.02998 1.709104259 4.27709833)
(1842.153143 9.439580892 11.4103834)
(1751.430264 22.17038056 26.19436683)
(1927.588157 0.5342303035 0.2026445425)
(1917.815374 1.455981649 1.682014494)
(1896.779316 3.685620987 4.045816499)
(1856.173165 9.851719504 11.08122012)
(1789.012999 19.83294207 24.93308085)
(1928.519364 0.6310039328 -0.8751291183)
(1920.418864 0.7727003409 -0.01083911456)
(1902.677338 2.340502703 3.621395004)
(1870.424104 7.867673605 9.874860838)
(1810.202114 15.78522357 23.49126467)
(1929.870089 1.326739688 -0.3304358515)
(1921.022276 3.007753949 1.309392435)
(1902.162254 5.090604091 3.794723371)
(1876.832638 7.428898063 9.139402197)
(1826.963806 11.62976339 21.71874192)
(1930.039914 1.599547484 1.379224764)
(1921.848494 2.395863884 2.653071402)
(1906.762137 3.772952909 4.089635492)
(1886.039637 5.749433111 7.536970295)
(1839.926046 11.99018524 18.90638161)
(1930.436258 1.44693816 1.011047423)
(1924.126483 2.657058565 0.0772499295)
(1910.892253 2.806560068 1.073668161)
(1888.129996 4.156126168 7.190825138)
(1845.995038 8.830798531 18.07335512)
(1929.069026 0.4093138683 -1.353293632)
(1924.797881 0.4372097862 -0.1310209366)
(1915.023568 2.352891509 1.578597887)
(1892.389596 3.166696104 5.628643198)
(1853.653398 5.477742319 18.42550414)
(1932.329304 1.574562032 -0.5131756745)
(1926.637675 2.604261033 -0.2168361069)
(1916.323731 1.59721637 1.588792357)
(1897.582688 3.385986169 6.742357278)
(1862.105676 7.198842306 19.01114215)
(1933.497486 -0.3041600733 1.513750059)
(1926.814934 0.6222603961 1.259082956)
(1918.067266 0.995961046 3.321962391)
(1900.279156 2.961185838 6.10082982)
(1859.975427 5.845835766 17.56358762)
(1931.517933 2.565909836 -0.898817518)
(1925.67108 4.316727355 0.0800397156)
(1918.762002 3.53495098 0.9598675957)
(1898.332565 3.569402697 6.074623367)
(1860.671508 5.693068557 19.21876815)
(1932.082489 -0.09235792117 0.4299238779)
(1926.063816 0.9969914799 1.271105089)
(1919.232717 2.157878595 3.648295292)
(1902.383664 3.809622737 7.383487151)
(1867.710846 4.737292736 17.77656489)
(1930.979284 0.6018777915 0.3742303577)
(1927.293926 1.061657447 0.2727551126)
(1918.77547 1.725391872 2.228984957)
(1898.896452 3.150489033 7.066154614)
(1867.206298 5.686236533 16.42146701)
(1930.29495 2.552075212 0.6199484161)
(1926.562377 2.406274308 1.705377241)
(1917.810476 4.047296839 2.750946265)
(1900.847487 4.492538652 5.959102735)
(1867.899993 7.82273355 16.52997857)
(1932.284963 1.271497068 -1.550507451)
(1928.491639 1.847063979 -0.4423773603)
(1921.936986 2.863956632 0.2950593038)
(1907.266107 5.167517574 5.4704596)
(1879.338437 8.320747568 14.92016656)
(1933.354109 1.810757667 0.6956564202)
(1931.656497 1.853922856 1.568981687)
(1925.770854 3.339627824 2.597604443)
(1912.996531 5.321519941 4.752522737)
(1887.483324 8.66823722 12.35282628)
(1934.314392 -0.5363272908 -0.5946342105)
(1931.202801 -0.4965846732 -1.278786909)
(1927.239365 0.7979834477 0.1945485612)
(1918.545108 4.616653157 2.824079193)
(1901.044964 9.341797159 7.813482474)
(1928.476535 0.4184986063 0.7632997127)
(1917.669615 0.5073449674 2.55999683)
(1895.071216 1.7394116 4.996196926)
(1845.648864 3.51042615 11.20787835)
(1724.316219 12.41116556 17.8390025)
(1926.768012 1.04101225 0.8852877608)
(1915.793083 2.596013488 3.542655864)
(1891.235639 2.472224252 6.324913023)
(1845.120026 6.393403947 10.25330854)
(1748.85578 22.98802477 21.06816924)
(1929.78252 -0.01857987215 0.2724031133)
(1916.468055 1.510302964 2.246044407)
(1894.261837 3.878063223 4.392635979)
(1857.619818 7.942416861 9.958284639)
(1793.93337 20.75691337 18.28799841)
(1927.979916 -1.36432997 2.199870582)
(1917.465504 -0.829087402 2.651935806)
(1898.357579 1.285514916 4.957235155)
(1865.542182 6.248202073 10.9409165)
(1821.796935 17.54271513 20.03924066)
(1927.793349 -1.301239265 1.732523317)
(1919.429807 1.478779589 2.381135542)
(1903.329701 3.53971307 3.051390953)
(1877.242599 7.21527148 9.089984936)
(1838.831025 14.29528152 19.21714641)
(1928.13061 -0.0042529523 0.9058247261)
(1919.861274 1.885363062 1.95553938)
(1906.677652 2.943129052 4.982491059)
(1885.423119 4.555853159 9.10243567)
(1852.252388 13.09696102 18.00862655)
(1926.784444 0.2058859749 0.6914539928)
(1921.179067 0.7119980193 1.462454414)
(1914.538219 2.004904283 2.754544959)
(1896.693345 5.686750309 7.661639538)
(1862.113377 10.48042521 16.76400495)
(1929.747648 1.587982423 1.701654513)
(1925.895322 2.612519118 2.447009078)
(1916.363417 3.521576607 3.254914459)
(1898.166604 5.53913626 6.874426886)
(1870.502096 9.870197483 15.03259298)
(1930.40143 0.4671416267 0.953852937)
(1925.757903 2.118921764 2.28280248)
(1915.85006 3.384746994 4.530470384)
(1900.700507 6.219624956 6.708808769)
(1878.07493 7.206948983 12.65548873)
(1931.321562 -0.123232413 0.8036548548)
(1927.446437 0.171784097 2.234491006)
(1919.77547 0.4602372544 2.690020931)
(1905.30944 3.052438148 6.13253457)
(1884.857645 3.819873424 12.65749054)
(1932.022317 1.026892581 2.138035724)
(1927.64415 0.8866395908 2.730147141)
(1918.569991 0.8525420502 3.474694339)
(1904.421857 2.319961904 8.283386814)
(1885.150515 3.713770178 15.30506757)
(1929.9349 0.4971255142 -0.1059813456)
(1926.652459 0.1322130727 -0.05927343923)
(1919.785709 1.197922354 1.418770761)
(1905.192916 2.94487691 5.395110411)
(1885.054555 4.07958372 12.52527652)
(1932.993356 0.1703944789 -0.4994643747)
(1929.96819 1.051319291 0.1653287272)
(1921.402153 0.9117367397 3.504572993)
(1909.366974 1.787271183 6.822885171)
(1891.07592 3.895145735 14.69865033)
(1935.187978 -0.1446784629 0.5281029009)
(1929.347059 -1.273693595 1.331120048)
(1921.984856 0.1260363125 2.703053489)
(1910.66706 1.845386406 5.932439448)
(1888.662492 3.678428615 13.62978427)
(1931.731984 0.08204088992 0.1802548501)
(1929.610434 1.748602154 0.2165308115)
(1923.698667 2.915066247 1.328467934)
(1914.93802 3.217517637 4.20628622)
(1896.286457 3.424599571 11.49838997)
(1934.329291 0.5809635169 0.1941219274)
(1930.351478 0.8745007533 0.6379135979)
(1924.836127 0.6935776444 2.112120521)
(1916.420664 2.484161492 4.630034993)
(1897.088955 5.487072502 12.99721284)
(1933.940556 -0.810381154 1.686348864)
(1931.283315 -0.21340562 1.930617146)
(1927.351679 0.6608615404 2.235216861)
(1918.686794 2.972887279 4.836063937)
(1904.787015 6.12502796 9.392423804)
(1933.653392 -1.108830034 0.3597305094)
(1930.693166 0.5048947394 0.05883872091)
(1926.684845 2.768928081 0.9300081953)
(1920.427827 3.955910459 2.500843971)
(1908.296382 7.25962908 7.250650101)
(1926.820054 0.3690555253 0.2251547465)
(1919.964787 -0.5787335659 1.732856137)
(1902.002171 0.5853191048 4.794316198)
(1863.497608 1.514758027 8.092010931)
(1741.977551 13.83268984 14.83309386)
(1926.47786 0.6969181083 2.020894452)
(1915.225111 1.920047488 2.026753794)
(1898.526465 3.129739208 4.405891668)
(1858.426738 7.666740812 8.112522407)
(1774.992442 23.07534999 13.51582605)
(1925.482217 0.4288929286 0.6868679145)
(1914.281122 0.6931756443 2.627556686)
(1896.561112 3.509431856 3.547869825)
(1865.297874 8.073454693 8.178592813)
(1808.066787 20.59040445 16.28661945)
(1927.624089 -1.422719371 0.8399591882)
(1920.001161 -0.02814000564 1.524421808)
(1904.35399 1.76990544 2.762375667)
(1877.991427 8.215941224 8.567455903)
(1840.497355 18.53251956 16.76670913)
(1929.433999 -0.8413281616 1.171301475)
(1920.116599 0.09023247678 2.742852602)
(1905.747891 1.875283007 5.32475002)
(1886.811044 4.541298409 9.812965863)
(1858.229891 12.32900146 15.9757805)
(1928.946898 1.825890305 1.602138817)
(1921.275117 3.6738616 2.621411906)
(1909.865582 5.797223743 4.306716099)
(1892.959606 8.702777053 9.94488834)
(1869.101377 12.09099111 14.33241277)
(1929.661551 1.627870586 1.395950877)
(1924.186672 2.629322734 2.720429375)
(1914.071717 3.872539122 3.888967987)
(1900.048442 5.399249519 7.798704127)
(1878.107161 11.21421311 14.44766155)
(1930.777921 1.16828877 -0.4522930589)
(1925.942107 1.919381337 0.5739369521)
(1917.880993 2.737414061 3.440698635)
(1906.59437 3.865248009 6.758074618)
(1888.713428 6.60999001 12.72947978)
(1932.041222 0.07775949586 -0.005786714346)
(1926.124364 -0.4786726134 2.146838459)
(1918.056572 1.137037629 3.766156347)
(1908.81221 2.636926361 5.728309655)
(1894.289436 5.188706385 12.43402003)
(1933.097642 0.9375040284 0.5575514788)
(1928.233656 1.587563891 0.9523562274)
(1921.041291 2.126139221 2.433786781)
(1912.509937 1.51787471 5.938752581)
(1893.411406 5.336221259 11.12624085)
(1930.832475 0.06779144463 1.256225783)
(1926.72231 0.6989819251 2.390489653)
(1920.059749 1.98139375 3.892921597)
(1914.085038 2.367621643 6.042343761)
(1899.586044 4.839318558 12.39405244)
(1930.508282 1.017580193 -0.9019268605)
(1929.136928 1.499451611 0.4182951184)
(1926.118475 2.336207445 2.507892708)
(1917.348617 1.681423126 6.926495853)
(1902.475328 3.909006266 10.47973845)
(1932.630724 -0.06563809707 -0.7297525958)
(1929.336156 0.3167552897 0.6628432327)
(1924.302627 1.656698295 2.653706474)
(1914.419627 2.793638593 6.718848002)
(1904.936871 4.863213126 10.86198506)
(1932.142639 1.259508764 -0.5984709884)
(1928.448714 1.853293599 0.7145731164)
(1923.431907 2.814623709 2.195240752)
(1915.247149 4.029917153 4.784660668)
(1905.286214 3.620171851 10.52432957)
(1932.710867 0.2673663992 0.8187721134)
(1930.621599 0.2527812785 1.353631163)
(1928.072411 0.112362992 1.490864342)
(1920.96861 1.23326853 2.531834406)
(1907.672125 4.278209562 8.46165014)
(1935.145776 2.192072226 0.09589323409)
(1931.818195 3.119344657 1.005988655)
(1927.027654 2.511228819 2.643289483)
(1919.94054 2.055708285 4.735668366)
(1910.903738 3.663577983 8.77751932)
(1932.463542 0.3206961006 0.2119804846)
(1931.564059 0.8633184389 1.616739429)
(1927.545492 1.836344001 3.71712282)
(1923.397355 2.070695655 5.871611915)
(1915.596681 4.792858422 9.120093339)
(1933.837531 -2.153114207 0.3031300141)
(1931.938006 -1.245356553 0.9497077579)
(1930.38186 -0.4011030628 2.346262495)
(1925.940083 3.006862313 2.78593989)
(1919.149499 5.380491366 6.017860501)
(1929.495273 0.6254288632 1.979901315)
(1918.386552 -0.0392184357 2.152244474)
(1902.429213 -0.4183794122 5.550433577)
(1869.320546 1.575190631 8.987826852)
(1754.736928 15.87768844 12.99598732)
(1928.470193 0.7368448179 0.196052303)
(1917.174565 1.154426489 2.533496518)
(1899.139183 2.375496941 4.750468935)
(1866.242472 6.566805919 7.318058367)
(1791.154943 21.1304005 12.26613295)
(1926.564913 0.04360691639 0.02427105127)
(1919.089871 1.989774398 0.7604261287)
(1904.006541 3.011520925 3.135494267)
(1876.969505 9.17438015 6.219298556)
(1832.435648 21.05484683 12.79053511)
(1927.486434 -1.835043964 0.4416203273)
(1921.051752 -0.1950627013 2.248942751)
(1907.745577 3.086286306 2.409442096)
(1884.832465 7.053421596 6.850809634)
(1857.100244 16.28930227 12.64948899)
(1931.069999 0.8701576374 3.00614596)
(1924.919612 2.946949441 3.965167618)
(1913.301972 5.072314752 6.052111503)
(1894.111024 9.206969349 7.196187527)
(1874.210095 14.22753208 11.39594827)
(1930.375155 0.6932734536 0.2927728686)
(1924.7874 1.886070323 -0.6787311774)
(1915.902431 3.761191512 0.8578817416)
(1900.560209 8.065372726 5.805271828)
(1878.5772 12.28758592 11.43615242)
(1930.969151 2.217533533 1.636987786)
(1924.847897 1.331317104 2.467329527)
(1919.051747 2.934279367 3.539786913)
(1907.442297 6.238606509 5.514901469)
(1892.352374 9.55991532 11.84367819)
(1934.228489 1.855758278 0.8789297248)
(1928.768134 2.672668067 2.422816388)
(1922.941465 5.297071376 2.409660085)
(1914.196212 6.836332807 6.255066419)
(1897.594388 8.543155745 9.899150088)
(1931.526703 -0.1517763354 0.2638319255)
(1929.451114 0.3401953186 1.891257645)
(1924.142607 2.484784215 4.684668516)
(1916.819356 3.74568358 6.917618995)
(1901.870384 7.629033634 10.77500769)
(1931.55045 -0.3397379933 0.2865037909)
(1928.221735 0.3912754048 -0.4567003156)
(1922.684738 0.5559259254 1.112781279)
(1916.435612 -0.1170882741 3.02972847)
(1907.049146 2.503011354 6.320815472)
(1934.262133 -1.305252713 0.4508606562)
(1933.138586 -1.424271127 1.244276903)
(1927.52933 0.03741810444 2.004143821)
(1918.578471 1.585463348 6.004227803)
(1907.93163 1.70821469 10.79295359)
(1935.155826 -1.557108901 0.08814540418)
(1931.69135 -0.3576996891 1.391275087)
(1926.861513 0.3916337357 2.194056672)
(1916.253886 1.519688805 5.061958428)
(1910.190615 2.279189807 9.782382823)
(1933.732051 -1.393549663 1.415311965)
(1931.821437 -0.6642330699 1.414363509)
(1926.432763 -0.6552675743 2.946536393)
(1921.569603 0.9427480436 5.415696487)
(1915.513863 2.468688858 7.735030654)
(1933.63882 -0.7771047953 -1.471134158)
(1931.34881 -0.9690078716 -0.332977819)
(1929.711065 -0.3610353872 0.4671328934)
(1922.027083 0.5577229902 5.021695133)
(1913.974421 3.577598401 7.534257499)
(1935.180749 0.5880062161 1.88413193)
(1933.67324 1.335417684 1.508875293)
(1929.507542 0.6345568853 1.317528491)
(1923.546563 1.338699172 2.623070444)
(1916.745014 1.51775756 7.079004719)
(1932.08609 -1.373865924 -0.168355212)
(1930.672447 0.03465757412 0.1482476861)
(1928.037928 1.872042862 2.141713032)
(1924.104494 2.201522055 4.391906901)
(1916.900476 4.302654273 7.627126541)
(1934.084902 0.5240931123 0.03497041971)
(1933.929224 0.02661043635 0.2479879359)
(1931.55186 0.2895398223 1.316247657)
(1928.832925 0.6248055015 2.317602617)
(1922.738622 2.589149654 5.572965573)
(1936.533608 -0.04351815901 1.13539718)
(1935.802678 0.5561906574 0.8499553818)
(1932.796879 0.8063002987 1.49210328)
(1929.992501 2.07288849 1.962814798)
(1926.740333 3.183092938 3.919720849)
(1927.920519 0.6197632104 1.195297162)
(1920.098876 1.812346009 2.588713373)
(1906.165533 2.418061994 4.184666962)
(1873.311042 1.412825283 7.514758506)
(1765.614219 13.87323706 9.260047541)
(1925.870423 -0.2779797403 -0.709795921)
(1920.452283 -0.1734501495 -0.3115066302)
(1902.482883 0.9656529174 0.5797365527)
(1871.865495 6.912649129 3.731405806)
(1798.37188 21.4954387 9.126204637)
(1927.948526 2.405463974 -0.03495993823)
(1920.773711 2.838170654 1.908394535)
(1910.323232 3.018373374 4.461916449)
(1887.288005 8.531495458 6.114240955)
(1838.350745 20.60719674 10.63767917)
(1929.236551 0.697111112 1.221639086)
(1924.036587 1.292619202 0.3398290503)
(1910.327029 3.486597874 1.935699955)
(1891.237716 8.786038734 5.016542239)
(1864.090517 16.68795402 9.990254845)
(1932.810526 0.843440015 0.7144299049)
(1927.149143 0.6266994825 2.280825694)
(1918.611612 3.542001769 1.835152896)
(1901.55251 6.930586265 6.019952487)
(1881.985613 12.68490215 10.35523911)
(1932.089001 0.1035843989 0.3958483717)
(1926.985669 1.582517644 1.325762167)
(1918.91703 3.033551052 2.901132512)
(1906.791881 7.441300179 4.791921225)
(1890.898668 11.86428836 10.68614969)
(1932.38421 -0.7527673697 -0.583827434)
(1927.975413 0.1401540446 -0.4637368483)
(1923.097117 0.4198023407 1.151807851)
(1913.730041 3.913052587 4.174660051)
(1900.904934 8.424060887 9.792354694)
(1932.349315 0.2434111268 0.5446206922)
(1929.201448 1.328560455 0.2006481676)
(1925.010741 2.24134851 2.177011269)
(1917.538499 3.692129217 3.49552242)
(1905.912642 7.137109295 7.941888112)
(1933.334908 0.9148116949 1.704342484)
(1930.522544 0.7418321569 2.122975762)
(1926.849696 1.731079654 2.595274696)
(1920.341471 2.039472623 5.307355743)
(1907.105472 6.322274392 10.01584758)
(1929.965982 0.2893031421 -2.841750636)
(1927.766149 1.292156435 -0.9168188675)
(1923.113811 1.770827922 1.321566747)
(1917.926285 2.508468444 3.211519111)
(1912.348224 4.570093189 5.902536243)
(1933.748991 0.5653502571 1.812445255)
(1932.08272 0.3953982947 2.194627829)
(1927.001453 0.5692901747 2.953977661)
(1921.963475 2.252563057 4.36514205)
(1913.452781 4.937923894 6.750113473)
(1935.855748 -0.3409595279 -0.172699176)
(1933.648981 0.2100421116 2.338573812)
(1931.239543 0.3544079261 2.536895207)
(1923.962082 1.329371994 3.773674906)
(1917.963354 2.320023557 7.3961242)
(1935.508611 0.7588331917 -0.09133388461)
(1932.600476 0.1664651395 0.5761338584)
(1930.118837 0.299504422 1.011278105)
(1927.381037 1.614946897 2.998079245)
(1921.92392 2.873961874 5.781474209)
(1934.891407 0.2273271965 0.8059579079)
(1931.514546 -0.005500371926 2.337911574)
(1929.365193 1.490596017 3.094945251)
(1925.223062 1.456154371 4.153626596)
(1922.631735 0.3987525721 4.238314914)
(1935.598282 -0.126832338 -0.2429006219)
(1931.975267 1.256536628 0.1388717456)
(1931.341026 1.872672049 1.747843707)
(1927.099233 1.964934374 2.2830269)
(1920.029864 2.683347688 5.710676334)
(1935.259536 0.2888034167 -0.2143079024)
(1934.401549 0.4497703072 1.080199436)
(1930.629579 0.8788263819 1.983060946)
(1926.908658 2.030213455 4.105798759)
(1923.670469 3.201775362 5.172699334)
(1934.848945 -0.8878502253 -0.4590657141)
(1933.135852 0.8747977837 1.536631381)
(1931.085108 -0.1977372937 2.29567767)
(1930.834711 0.1877363532 2.818206101)
(1928.114979 1.429286452 4.500632759)
(1936.001232 0.6614828348 -0.8813460133)
(1934.850654 1.199184952 -0.9362042738)
(1932.888877 1.723817561 -0.08850677305)
(1929.08998 1.469696728 1.230745915)
(1926.243864 3.059261284 1.740365064)
(1928.977282 2.145641632 1.689864914)
(1922.436792 1.504651183 3.103326773)
(1907.641841 0.4834448642 5.394056337)
(1879.512526 -0.1795834825 7.413628131)
(1779.389238 14.9675768 8.688324995)
(1929.509612 1.994960556 -1.492969054)
(1921.167442 3.370992767 0.0763184284)
(1906.331468 4.675518404 2.942449956)
(1877.177294 8.455656967 5.8493395)
(1809.484634 22.92349891 7.787780651)
(1930.552774 0.9469631874 -0.05682215989)
(1922.941013 1.899635326 0.4357009853)
(1912.160846 2.661762612 2.349598494)
(1890.528496 7.49774853 4.718046291)
(1847.895274 18.28219693 9.344275208)
(1927.219432 2.164271504 1.455993579)
(1923.834709 1.323143014 2.454495948)
(1913.662752 3.117238898 4.182903828)
(1896.069702 7.901893587 5.465152589)
(1873.872745 15.25222566 8.723077677)
(1932.290136 0.7606860868 0.1627994485)
(1927.04453 1.989773971 -0.3157387536)
(1919.765689 2.926715185 0.8192310597)
(1903.841401 5.952794814 3.722520091)
(1889.417711 11.01458301 8.246841155)
(1932.648778 1.012242688 1.217001345)
(1928.819829 3.274312921 0.7126170075)
(1921.823103 5.638036957 2.258243903)
(1910.739857 7.2049296 4.292110296)
(1898.409033 10.53159362 7.789048247)
(1933.19654 2.692244694 -0.6748569888)
(1929.823871 2.241812376 -0.8535920508)
(1925.759282 3.903669793 1.516937618)
(1920.057644 6.342656958 4.316632043)
(1907.718407 9.841989109 5.397422671)
(1932.222197 1.385476694 0.8591992553)
(1928.290494 2.315772758 0.9101982682)
(1925.39841 3.689128399 1.523972656)
(1922.276156 3.557906615 1.582079964)
(1911.910527 4.173292958 3.868893137)
(1933.368365 -0.002643079099 2.22599907)
(1930.272298 0.9518620444 2.569158714)
(1927.751422 1.091891149 2.309772555)
(1922.425767 2.878551524 4.938765679)
(1913.305542 4.60570517 7.176558517)
(1932.48886 0.2576833365 1.498249005)
(1930.508652 1.50517547 2.49282635)
(1927.34016 2.481212745 3.560763074)
(1923.990061 3.472857335 4.342697153)
(1917.761831 4.698499859 6.160531341)
(1933.496652 1.3107039 1.979187441)
(1931.691941 0.3602139283 1.51712377)
(1929.452708 2.284113334 2.084070134)
(1925.694381 4.17944498 2.136342539)
(1919.776571 3.411992182 5.001708618)
(1933.894391 -0.331888524 -1.478945283)
(1930.628062 0.419249171 -0.9222314073)
(1928.784138 1.562741158 0.6702776287)
(1925.891805 3.264745895 2.044300102)
(1920.802155 4.33983571 4.30578301)
(1934.838218 1.592788097 0.3041427324)
(1931.754956 2.656892403 1.570473201)
(1928.557749 2.317638956 1.022442269)
(1926.210822 0.9658535655 1.185267691)
(1922.649007 0.2596077957 2.55751706)
(1935.309524 -0.9210457498 -1.30271454)
(1933.946669 -1.009295429 -1.472456265)
(1933.080733 -1.130507335 -0.1000475034)
(1930.346314 -0.1389499145 2.296506608)
(1926.43062 0.9133223096 3.890943426)
(1933.344153 -1.150870847 -0.3375770069)
(1931.5242 -1.132024083 0.2941308744)
(1930.732737 -0.5219905239 0.4595522244)
(1928.785822 0.5438694076 1.750313803)
(1924.385766 1.56221764 4.662645247)
(1938.146824 -1.464338713 -0.5328619618)
(1938.024077 -1.092549633 -0.9347618644)
(1934.776879 -0.1727583991 -0.2385134672)
(1931.901858 1.181763218 0.8211989028)
(1929.611246 2.806183807 1.862849039)
(1934.240284 0.3198240229 0.2014100321)
(1933.724681 0.4004117018 0.7412947291)
(1932.474705 0.5099450629 1.320609821)
(1932.050024 1.141905348 1.829173947)
(1929.218351 1.30296449 1.971405996)
(1936.939005 0.2403840822 0.5219476002)
(1936.129153 -1.878367982 0.05477408354)
(1933.759968 -0.6904317432 -0.2714235153)
(1932.703534 0.2121552881 1.69883392)
(1932.158514 1.277018745 4.518001295)
(1931.221523 -0.5941705938 0.9699312146)
(1925.718274 -0.4885003719 1.171101277)
(1911.817023 -0.5460333751 2.98989628)
(1885.599755 0.1500324492 4.283311981)
(1788.05061 12.40645915 6.719143409)
(1930.484779 2.01516556 0.08485272141)
(1926.475781 2.148660964 -0.01752104394)
(1910.114608 3.39922054 -0.3070055913)
(1884.029877 6.865010753 2.47493338)
(1815.660948 21.21416512 4.914471208)
(1928.568362 2.43675203 0.5352492837)
(1923.760921 1.686485541 1.837363084)
(1911.944079 2.740260063 3.159711706)
(1889.614053 8.983140097 4.855323561)
(1855.13688 20.28402559 6.973099285)
(1931.839385 0.2912707488 0.9869790068)
(1924.974648 1.895278119 0.7889075474)
(1917.015518 4.488430156 1.48978717)
(1900.917009 8.677934392 3.277886858)
(1881.687098 14.55603413 5.393195342)
(1933.678665 0.1969549023 0.4374499343)
(1929.579431 0.4325638412 0.9448708548)
(1923.280208 2.090406838 3.080855934)
(1910.924924 7.1094485 4.603169158)
(1893.538474 14.63486925 5.952045822)
(1929.563831 -0.2992043817 0.4511089118)
(1927.862722 0.9634347683 1.653025506)
(1922.293612 3.49690636 2.772268471)
(1914.613434 5.449049835 3.905669325)
(1901.970319 9.666775971 5.838616113)
(1932.736384 -0.0121996882 0.3499127795)
(1929.849832 0.8833405429 1.291019603)
(1925.554839 2.239988673 0.9582548884)
(1916.479603 5.203140316 3.100749721)
(1907.681307 7.494099294 4.753934871)