/*--------------------------------*- C++ -*----------------------------------*\
| =========                 |                                                 |
| \\      /  F ield         | OpenFOAM: The Open Source CFD Toolbox           |
|  \\    /   O peration     | Version:  v1706                                 |
|   \\  /    A nd           | Web:      www.OpenFOAM.com                      |
|    \\/     M anipulation  |                                                 |
\*---------------------------------------------------------------------------*/
FoamFile
{
    version     2.0;
    format      ascii;
    class       volVectorField;
    location    "0.003";
    object      UMean_Ar;
}
// * * * * * * * * * * * * * * * * * * * * * * * * * * * * * * * * * * * * * //

dimensions      [0 1 -1 0 0 0 0];


internalField   nonuniform List<vector> 
9720
(
(1921.972991 -0.3527756675 2.367122803)
(1908.973237 1.12613059 0.5067846247)
(1881.304304 2.247640611 0.4937337504)
(1810.882593 4.237276247 1.469596568)
(1567.455465 17.98823421 15.57662173)
(1923.93204 0.8531961099 1.143229732)
(1913.203781 1.951174613 1.31042608)
(1888.865851 4.402292984 2.687165173)
(1816.338123 10.995971 3.579673624)
(1631.06245 25.96815295 16.34588676)
(1926.136097 1.56912571 0.1719722351)
(1913.520827 1.949153943 0.6259981936)
(1891.868377 3.251863467 0.1161093308)
(1835.143662 10.44692449 2.777259642)
(1690.786425 23.55041114 15.25822877)
(1928.814002 1.016718096 -0.2158851896)
(1914.780828 2.609244284 0.6928123386)
(1895.824718 4.049982309 0.818780029)
(1842.661926 10.74397681 2.281149612)
(1716.930072 20.24817869 14.01808986)
(1928.715444 0.8450226682 0.6209980624)
(1918.623285 0.9611508017 -0.104918735)
(1899.891323 3.869629885 1.153720706)
(1853.651953 10.07948248 2.238414515)
(1740.350921 14.60084155 12.49230538)
(1929.060372 0.4744056155 2.188958018)
(1920.491793 1.595390831 0.585378912)
(1903.761596 5.282772329 -1.245762419)
(1868.569172 9.058204825 0.374084654)
(1758.703817 15.94871328 12.97923067)
(1928.243929 0.7328178062 0.8283993517)
(1920.576676 1.597849068 1.41778668)
(1909.485831 2.988100609 0.7660470012)
(1879.099367 5.676454675 1.480934588)
(1769.76917 9.612782619 13.14210073)
(1928.90424 1.169485571 1.082492149)
(1922.399399 1.739225493 -0.4169468667)
(1912.270591 1.328731548 1.005526422)
(1884.712818 3.576590581 3.310885205)
(1779.137121 7.672483859 14.16063246)
(1930.480197 -0.4332870928 -0.4591193819)
(1923.664984 -0.1839392807 0.06463417374)
(1912.195412 2.568049267 0.241605009)
(1885.050418 4.092951183 1.962794995)
(1791.917068 6.19190115 14.01762916)
(1931.431401 1.059781935 0.1002392905)
(1926.362815 0.8928680236 0.8148995484)
(1916.78268 1.316785076 1.526465913)
(1886.249626 1.522145473 2.837608966)
(1792.353653 2.734846944 14.38557862)
(1930.032611 0.09330306792 -0.01509029347)
(1924.259789 0.3232694159 0.8162724083)
(1916.664597 0.2082944738 -0.1269871133)
(1888.978295 0.9947507304 0.9259125203)
(1791.652166 4.132416023 13.26648811)
(1933.177235 0.1944315027 1.175016574)
(1928.470588 0.6742362947 -0.1168598618)
(1917.061808 1.931752541 0.7557241787)
(1893.069632 4.338676176 1.43917622)
(1795.422922 6.719918445 13.63467708)
(1930.881955 2.945813292 -0.1110744925)
(1927.418852 3.734352618 -0.1101516103)
(1914.187179 3.182238749 0.6349590681)
(1892.177438 4.207782394 3.128558771)
(1797.586384 6.959612948 14.17210939)
(1930.972381 1.45370139 -0.9439301852)
(1927.033558 2.282939092 -0.3201636748)
(1917.193037 2.168183673 0.3142817555)
(1894.965922 3.813962759 0.8648114685)
(1802.607001 7.603709025 13.39735101)
(1933.309963 1.080527663 0.5652805617)
(1929.228668 1.625728015 1.776855333)
(1922.190607 3.528057954 1.279481755)
(1902.417803 5.477282584 1.114680196)
(1801.96054 8.11930358 12.30640465)
(1934.424931 -0.3072861453 1.115623839)
(1930.068276 1.374875466 1.557132766)
(1926.22963 2.091819963 1.055797397)
(1906.028303 4.160104832 1.010931039)
(1811.224377 6.884901322 11.49545787)
(1934.982487 -1.123562399 0.1561256104)
(1932.551451 -0.8334849296 -0.2462568783)
(1926.359125 0.8616031263 0.4712731077)
(1907.283094 3.716766171 0.3783927725)
(1827.876834 8.743489212 9.870706449)
(1935.370366 1.269345929 -0.004154928976)
(1933.938447 1.851824995 1.837609329)
(1928.757601 2.673767849 2.615085497)
(1918.152601 4.99312335 2.27026356)
(1860.133227 13.9376589 9.720057795)
(1926.805845 -1.299077954 -0.3303633717)
(1915.427249 -3.084749936 1.381615916)
(1883.909293 -0.1338822406 4.769314465)
(1813.533256 3.345078845 12.1211143)
(1622.599719 19.2001702 28.82346277)
(1924.182996 0.4386334472 0.4911253926)
(1908.955572 1.613330162 0.902034295)
(1883.441825 1.639872332 2.957465343)
(1814.348877 7.811815373 8.153163142)
(1675.793607 25.35367006 26.11346886)
(1926.393499 2.552514984 2.154869406)
(1915.443482 2.995715491 1.088616217)
(1887.313869 5.378145343 2.514675074)
(1831.96846 11.90433252 5.490885459)
(1714.198882 26.71972578 25.14839652)
(1925.897476 0.1336511164 0.9325393626)
(1915.20439 1.725111225 1.504408207)
(1890.531912 4.512493286 1.848941831)
(1850.482548 10.35676188 6.413950143)
(1749.822092 22.64865644 23.87957705)
(1924.687959 -1.666916629 0.8473403963)
(1915.630648 0.9255854795 1.676559696)
(1897.455334 2.884798214 2.411917154)
(1861.517726 6.734545082 7.69521641)
(1773.398539 18.02588236 23.8267236)
(1926.700077 -0.4755597172 -0.70388366)
(1918.364124 2.365557803 0.7558335224)
(1901.541447 4.047403941 4.132781458)
(1870.811345 7.524599388 5.244623797)
(1790.670877 11.91417099 21.63891012)
(1929.385099 0.9081341791 2.315113702)
(1921.823761 0.4733671422 2.430615722)
(1908.005091 2.206417126 2.542015988)
(1875.338263 6.68011799 7.758568268)
(1802.662063 9.146881105 21.30036071)
(1929.702124 0.2879400574 1.302102141)
(1922.773794 2.178327454 1.949761527)
(1909.320041 3.049404715 3.042732518)
(1880.872575 3.993754744 5.465632035)
(1807.118607 6.807657329 21.88365459)
(1928.818552 -0.2392470318 0.724048594)
(1923.226431 0.01749735414 0.3810961199)
(1911.300671 -0.5984734297 0.9566583823)
(1884.914799 2.667205602 5.472429694)
(1814.627851 4.456180813 21.46820133)
(1929.992872 1.061000436 0.4532047143)
(1924.640546 0.3424679703 1.306041671)
(1911.28471 2.409589743 2.249491477)
(1886.27414 4.482574486 5.156903744)
(1820.975217 7.302003622 21.63086555)
(1930.696809 0.2244465023 1.916505171)
(1926.652839 1.809066124 1.404575092)
(1913.319399 3.101535793 3.502297872)
(1885.005913 4.673696496 5.196362597)
(1828.078901 6.17601511 19.74232957)
(1931.090224 1.619524703 -0.747259958)
(1925.617683 1.320134722 0.1992835309)
(1915.755435 1.678672703 0.7079530771)
(1889.123908 4.141590441 3.303609949)
(1831.893999 4.770254793 17.93578908)
(1930.370541 2.121542129 -0.9497853232)
(1925.355524 2.767146812 -0.1796036948)
(1915.323428 3.582044571 0.8810584229)
(1891.279538 3.522943293 5.646509077)
(1831.870219 3.829996542 19.16892166)
(1934.615058 0.4061288533 -0.3276930202)
(1931.642642 -0.1300248588 0.8859994881)
(1921.490046 1.458788551 0.9598483449)
(1895.189046 2.892048822 4.547208714)
(1837.033039 3.98186829 18.75114735)
(1932.096111 3.170290905 2.030524522)
(1926.637599 3.556930022 1.519692964)
(1918.674306 3.443173671 2.618437127)
(1897.055109 3.263526371 5.545511739)
(1839.631563 6.831156299 19.63073729)
(1935.202353 -0.6218963077 -1.717736582)
(1930.188503 -0.2413111304 0.3261879782)
(1923.442079 0.8193265682 1.652996214)
(1900.770264 2.915372774 5.508688381)
(1847.795472 7.018356709 18.02170827)
(1934.911173 1.291431579 -1.500012827)
(1931.402294 0.2367541916 -1.264343124)
(1924.246324 0.3821893694 -1.412840415)
(1906.487875 1.280287648 2.19457026)
(1858.702045 8.318271644 14.8811762)
(1934.927956 -0.4821370942 1.343914419)
(1933.793625 1.210110414 0.1628917552)
(1928.160121 2.538418473 0.492377313)
(1915.259027 5.266115508 2.662831078)
(1875.779739 13.11430517 11.16187456)
(1925.912481 -0.3996576029 -1.202691327)
(1912.791285 -0.7427768949 -1.092915779)
(1883.484097 0.4007621 3.150965666)
(1829.386034 0.7870972131 9.520205232)
(1667.132206 17.00195164 26.05118396)
(1929.603699 1.550623604 -0.3743306552)
(1914.984593 1.295008635 1.850263913)
(1888.747293 1.375156087 5.251126853)
(1832.302522 7.869190329 11.24530643)
(1719.044577 24.02915114 26.60512406)
(1925.06646 -0.01905271949 0.6082134405)
(1912.692973 1.180059303 1.988799606)
(1887.68182 3.582914446 4.782073644)
(1839.869366 10.36337785 9.418948279)
(1757.480525 22.68186151 24.69628682)
(1924.57667 1.255099903 -0.2039640349)
(1915.150997 2.513639127 1.026399547)
(1892.830548 4.638724308 2.936733147)
(1851.779706 10.05182447 9.036191828)
(1790.20195 19.88507454 22.50018996)
(1927.643564 0.9539999171 1.521439843)
(1919.004245 1.12610895 3.0964265)
(1898.876562 3.292924545 5.668699937)
(1868.638959 7.546522013 8.887745748)
(1809.913661 18.3893088 23.86065763)
(1929.550833 0.3014459119 0.6188512882)
(1920.003371 0.02945286982 1.547083082)
(1905.958773 5.094882322 4.038168188)
(1879.336459 7.535360948 7.428312866)
(1821.044697 13.59868188 20.96104801)
(1931.214245 -1.32136167 0.5699535235)
(1922.873239 1.318619975 0.6169286476)
(1908.860715 2.22193414 3.229717238)
(1885.518973 4.397176303 9.166546017)
(1838.701107 8.565145523 21.42009403)
(1930.309788 1.194340927 2.242622316)
(1923.904553 0.4764805859 3.990873983)
(1910.091335 3.630044024 4.970053132)
(1888.538653 4.854643639 11.82229779)
(1844.830428 6.562673214 21.28548486)
(1931.894717 1.565671199 -0.1779374726)
(1926.475365 3.546564373 0.9319545683)
(1913.050609 3.140779135 2.262435292)
(1889.959626 6.383415474 7.847649267)
(1851.196258 7.359733361 20.15782668)
(1932.048882 -0.2426965142 1.995115723)
(1927.165129 1.0093854 1.85698101)
(1916.244521 2.16440453 2.92656638)
(1893.174333 3.533368358 8.371037505)
(1858.455644 5.252687212 20.72453287)
(1933.451234 -0.4701862952 0.009852638689)
(1927.371972 0.5460780455 1.372422274)
(1916.116504 2.143400211 1.294186736)
(1895.710429 3.643461251 6.322756524)
(1861.932124 6.592874435 16.3994169)
(1932.757903 1.513206364 1.781491002)
(1928.318268 2.966508386 1.876328512)
(1915.663552 2.682131271 3.266588888)
(1900.279083 2.912333661 5.593444963)
(1860.576422 3.297480201 17.40252747)
(1932.114411 0.08366146683 -0.5436103165)
(1927.295222 -0.6858999237 0.01464423353)
(1917.439221 0.7754664629 2.451654502)
(1897.526658 2.718104348 7.306380929)
(1862.101131 4.565914111 17.86385009)
(1933.530071 -0.3885520468 -2.356331555)
(1928.905648 -0.2679934445 -0.8537274595)
(1918.866743 -0.8415225298 1.122956212)
(1903.181046 0.1330624398 5.28854983)
(1869.492893 2.295049351 15.63127259)
(1932.677803 -0.1827505882 1.047595476)
(1927.948386 0.799539451 1.359882335)
(1919.783318 1.681761222 1.657253145)
(1904.910054 3.3721945 4.840022079)
(1873.74725 6.700330819 16.415106)
(1932.40748 0.9603008091 -0.5922987493)
(1927.193049 2.708603536 -0.2736709454)
(1921.514393 3.281191099 1.828310065)
(1909.07172 4.752438109 6.640810557)
(1881.956617 6.61354026 14.86442921)
(1934.556829 -1.084507721 -1.186818873)
(1931.654475 -0.1384411988 -1.391805933)
(1923.375389 2.184724642 -0.4028633126)
(1911.026558 2.391722502 2.360559965)
(1887.934604 6.576792344 10.58107063)
(1933.910019 -2.461779774 -0.1876550074)
(1931.023312 -2.024880513 0.09471362952)
(1924.255202 -0.1823032117 2.598410344)
(1917.605563 3.011654313 3.432135113)
(1902.261042 8.323192525 9.292573288)
(1927.056099 -0.9784012141 1.028309907)
(1916.333735 -1.046936115 2.062911206)
(1892.259043 -0.2362913512 4.858794484)
(1839.699227 1.553203937 10.05422111)
(1701.638378 14.35719315 20.5230288)
(1927.612896 1.480091747 1.793892056)
(1916.150267 2.145848166 3.2454935)
(1891.856333 3.363566628 5.319414639)
(1846.06867 6.75707358 9.268795224)
(1745.391275 24.47235152 18.56434228)
(1927.599183 1.09465819 -0.9136914102)
(1917.928457 1.484331906 0.3874716242)
(1896.634072 4.750830131 3.298830145)
(1856.901816 8.851648022 9.779015505)
(1790.982753 24.51988116 21.7989838)
(1928.283442 0.7495097836 2.065040816)
(1915.870744 3.851394982 4.367316396)
(1898.83264 5.206940469 6.468081107)
(1872.583446 8.768570611 11.2390512)
(1826.739779 20.16858839 20.44627125)
(1930.913568 2.054234875 1.018041202)
(1920.46532 2.560152902 1.402901117)
(1903.796241 4.647710558 3.610803514)
(1881.220768 8.82463763 7.925307114)
(1836.54565 15.22939497 18.22711442)
(1929.789005 1.134739566 2.568415099)
(1921.723615 2.765203281 2.651140776)
(1909.132872 3.220212724 4.710021983)
(1881.917215 7.106263428 10.10763279)
(1848.17033 13.14696344 21.13293403)
(1929.400355 -0.2181010757 0.1925253906)
(1921.449357 0.05198395738 1.854840283)
(1912.169643 1.626607254 4.334476987)
(1894.956314 5.060764542 9.18776176)
(1868.271603 9.307678306 15.9055744)
(1929.140885 0.08017916504 1.890462493)
(1923.530353 2.022710198 3.101283497)
(1911.731527 3.277218699 5.036489502)
(1894.265417 4.82624667 9.889187668)
(1873.03335 5.988869774 18.80422068)
(1932.153666 -0.3632230947 0.9311428229)
(1924.54323 0.8498442702 1.584554093)
(1916.228363 1.923356895 3.568567719)
(1899.537468 4.597853539 7.837723268)
(1876.484936 4.372931139 15.47033264)
(1930.510535 -0.1311086369 0.4675090835)
(1926.639987 -0.1908023651 1.364233655)
(1920.160856 0.8134479296 2.773224762)
(1904.49981 1.8644705 6.783634702)
(1880.237294 4.290601002 14.74266386)
(1931.232818 1.781342317 -1.662067196)
(1926.688257 1.697880606 0.7707277592)
(1917.816691 0.8475784772 2.880487947)
(1903.421089 3.434962133 6.63288365)
(1880.438691 4.745991189 15.16886277)
(1930.743852 0.1128180888 -0.4365205835)
(1926.565539 0.20764543 0.3516824297)
(1919.338094 1.286391882 2.934515808)
(1907.511868 2.578449134 6.305328358)
(1884.802452 3.942332109 13.49502446)
(1932.061563 0.01406584011 1.018683624)
(1927.380646 -0.3475604133 1.59985687)
(1922.544528 0.9285008784 3.028731675)
(1908.818452 1.808809382 7.643998041)
(1888.298719 1.149338656 15.74544561)
(1930.611451 -0.1840553955 0.9282881679)
(1927.931729 -0.06668873992 0.6044067631)
(1921.315583 1.213995757 3.63020639)
(1910.626646 2.353445208 5.635071514)
(1890.540304 4.350534505 13.7714386)
(1933.192195 0.3750596476 0.253415132)
(1929.584833 0.5876790199 1.447535323)
(1924.025967 1.928944695 2.605816827)
(1912.728303 3.783029707 5.337934857)
(1894.739161 5.576017937 11.96224793)
(1935.556135 -1.638014899 1.099462002)
(1933.091562 -0.9928725846 0.597661401)
(1926.651682 0.4691126958 1.533210311)
(1918.502557 1.597527481 5.112627791)
(1900.429104 4.090540585 11.56032629)
(1932.036278 1.982259009 0.5440851499)
(1930.892799 1.856311385 0.7673023099)
(1927.004269 1.986454552 1.365275973)
(1918.78399 4.354348807 3.248765811)
(1906.249394 6.917810261 9.592107118)
(1935.140749 0.01765822323 0.4465865765)
(1933.587222 1.520228709 0.4963753814)
(1930.575314 2.507056969 1.376993372)
(1924.727354 4.068332666 3.379995296)
(1912.721458 7.366265839 7.151592965)
(1925.052847 0.4816721375 -0.3064113316)
(1915.330105 -0.683298699 0.556500399)
(1896.450331 -1.163330089 3.466702576)
(1858.212328 0.8473849186 10.66485577)
(1731.415689 15.17334613 19.61744423)
(1928.128801 -0.3391036444 -0.5650010378)
(1917.294386 0.6278081846 1.978956302)
(1896.207542 2.683728395 4.941597935)
(1853.059406 6.50432995 8.878433486)
(1770.293375 25.23899858 17.20472572)
(1930.152578 0.3066115159 1.27011897)
(1920.314725 0.6121233867 3.193386287)
(1902.345981 2.234499286 6.290000763)
(1864.971637 9.381807758 10.27967663)
(1811.307742 21.90989264 17.14532483)
(1929.259518 0.5980126743 1.071257893)
(1920.967578 1.918858816 2.180211699)
(1903.519912 5.055565129 5.457255379)
(1882.895904 8.272258813 7.69245369)
(1841.351849 17.65818831 16.97443857)
(1931.555535 0.8223600853 2.780694243)
(1924.215955 2.468609972 1.931631559)
(1909.746961 4.526749563 2.650894697)
(1889.622864 7.648418938 6.262621245)
(1854.577075 14.13237542 16.44808587)
(1930.260229 -0.3513408352 0.8587309879)
(1923.235154 1.669476415 1.523750124)
(1913.786797 1.7139815 3.850907797)
(1894.259118 5.180847167 8.29501669)
(1869.244018 10.38147666 15.37823156)
(1931.284863 0.7997103235 2.297648035)
(1926.052075 -0.1559256821 2.350742774)
(1917.036074 1.658415341 3.948517926)
(1902.76883 4.534047566 8.056626895)
(1880.523634 9.525533455 15.54222041)
(1930.936618 -1.270975012 -1.009637043)
(1925.906536 0.3580440376 -0.07623875677)
(1918.717503 2.801946557 2.370406825)
(1903.548967 5.915439028 6.170905773)
(1885.688487 9.891821853 12.27700253)
(1931.263347 2.15908321 0.7762623181)
(1928.334304 1.445188045 0.822920016)
(1921.587979 1.572630832 2.942542769)
(1908.325108 2.931023071 6.242462757)
(1892.922684 3.988450055 13.92777087)
(1932.747687 -0.7770789007 1.166212366)
(1930.02716 1.217923897 1.646383481)
(1926.343352 1.810632973 2.642747582)
(1913.473416 3.677463731 6.444844828)
(1899.971664 4.798932154 11.65002559)
(1931.806097 1.036237229 1.090313181)
(1927.814734 1.888901231 2.025960796)
(1921.735777 3.175544487 3.404278162)
(1911.780816 2.949015492 7.739767287)
(1896.999901 3.092196198 12.22006286)
(1930.862697 1.548943318 1.09636116)
(1926.913791 0.7301477208 2.581985988)
(1921.714755 1.078982955 3.545454652)
(1910.326306 3.191922436 5.520178844)
(1897.677625 5.542613643 8.845288924)
(1930.469102 -0.6212911609 1.774880535)
(1929.076615 -1.57649414 1.399337779)
(1922.811972 0.6844833398 2.805961259)
(1913.57156 1.236859626 5.668728773)
(1903.236496 3.555910248 10.17485174)
(1932.371106 2.046438887 0.4571211356)
(1929.671046 1.501732621 1.775270438)
(1925.253899 0.745777686 3.227527719)
(1915.413325 2.055927011 5.045431214)
(1904.635763 2.30453842 8.352512136)
(1935.189543 1.99210614 1.032749408)
(1932.614487 2.355662993 1.17396048)
(1928.375081 3.851091319 2.861207003)
(1920.082184 3.48815273 6.251830248)
(1907.619517 2.090810083 12.18100539)
(1934.860558 -1.035328762 -0.9013340824)
(1933.682833 -0.392025693 1.157160842)
(1929.481517 -0.5331149538 2.311876713)
(1921.467419 3.178684332 4.044200993)
(1909.198946 6.304478669 6.468333683)
(1933.87827 -0.8208161638 -0.1989045259)
(1931.712737 0.1421629479 0.9350990547)
(1927.49243 1.689255145 2.275517505)
(1921.973548 2.584008394 4.162438071)
(1915.358168 2.881444654 8.282351067)
(1934.997414 0.6254199928 0.4884271459)
(1932.376503 0.8083198084 0.7722751984)
(1929.159298 0.743814891 0.6724978085)
(1925.634868 2.785469113 2.526123191)
(1920.905026 4.183203863 5.155805527)
(1929.572829 0.2320744214 -0.6665496411)
(1919.930424 0.7515055605 2.178348268)
(1903.169662 1.91816712 3.045701449)
(1866.646388 2.629004974 6.737336272)
(1752.507531 16.16213451 13.9476275)
(1928.879129 -1.623434678 0.7625392981)
(1919.932101 -0.2332657396 2.513094996)
(1902.169696 0.8044347586 4.621747683)
(1863.050932 5.322333051 8.054156036)
(1787.439081 22.58219882 15.86693649)
(1929.765651 0.1720435984 0.3988701409)
(1921.493599 1.071711889 1.837088369)
(1900.706476 3.411805476 3.331437676)
(1872.52171 8.855174573 8.105452221)
(1826.554984 21.08663004 14.34351375)
(1930.763455 -0.8614687327 1.691982349)
(1924.062216 0.8365487077 1.647269457)
(1911.535779 2.376907431 3.539047534)
(1888.272053 6.985083209 6.66756629)
(1854.160223 17.58826567 11.98106363)
(1929.234092 0.5295525407 -0.05677093747)
(1923.775761 1.558371728 0.2310677432)
(1911.447516 3.077343367 2.172513763)
(1894.634466 7.632184609 6.998034046)
(1871.483902 14.22985071 14.49217021)
(1929.619903 0.7242277671 -0.1112559972)
(1925.425453 1.971572286 -0.02628150683)
(1917.536067 3.10982698 2.516421581)
(1904.590168 4.829784639 6.262322236)
(1883.598454 9.881784859 12.75546508)
(1931.497281 0.9785093928 2.19601854)
(1925.704045 2.22108534 3.567443197)
(1919.222852 3.499630505 5.39414736)
(1909.572386 4.322728087 7.593558713)
(1892.494617 7.125263764 11.44937813)
(1930.240635 1.086507128 -0.1260050423)
(1925.553129 2.004309257 1.026716777)
(1920.451379 2.418487628 1.954852439)
(1909.734067 5.788699666 5.259287084)
(1897.746495 7.544565422 9.353169528)
(1932.60857 2.971592124 1.736112967)
(1929.142356 3.567752541 1.589935883)
(1924.311335 3.997384191 2.907699563)
(1915.186096 3.7996943 6.33748175)
(1903.119567 5.847645874 10.19677314)
(1933.665107 -0.2020874268 1.349724338)
(1930.480564 0.3402115093 1.019680044)
(1926.124332 1.446846157 2.649810013)
(1918.645762 4.065101694 4.61686044)
(1908.373005 5.976893612 8.057353316)
(1934.313461 1.318840608 1.200632102)
(1932.068383 1.04579643 2.4986074)
(1929.40115 1.817305457 3.324723959)
(1920.385601 3.012243377 7.085807497)
(1911.506229 4.257522758 10.86642512)
(1931.047584 1.170370364 0.405950246)
(1928.210927 2.132418759 1.917196856)
(1924.381812 2.280942349 3.485481363)
(1918.454877 1.952792472 6.004269133)
(1910.53406 2.795730445 9.539564115)
(1935.297704 0.9027359048 2.719895656)
(1932.010471 2.260307012 3.3408689)
(1927.282933 1.460010642 3.481104622)
(1922.021695 2.218293631 5.354104623)
(1911.92536 2.733202196 7.938285778)
(1931.223365 -0.580177971 0.9431225843)
(1929.308946 -0.7706396734 2.908277151)
(1926.907222 0.9234647972 3.761226035)
(1921.791557 1.045190069 5.572615801)
(1914.096329 1.610604367 8.058199923)
(1936.153668 -2.591845631 1.852963687)
(1933.912404 -0.5702528678 1.240374212)
(1929.195927 -0.7923027777 2.032630284)
(1923.996164 0.694465746 4.230967115)
(1918.258524 1.501123185 7.79224089)
(1937.097791 0.4884298696 -1.641719664)
(1935.1466 -0.8759278237 -0.981335722)
(1931.171961 -0.32663253 1.041821346)
(1928.073051 -0.5230348326 2.097898405)
(1920.597948 1.799598543 6.396417323)
(1933.65527 -0.8258750725 0.02825807469)
(1932.639521 -1.082322969 -0.03056006829)
(1931.153676 -0.7177579111 0.7276894891)
(1927.65769 0.6659863 2.481114368)
(1922.725445 1.530633885 5.857700233)
(1933.02838 -1.132307264 -0.4778491545)
(1932.264804 0.2503173431 0.6486891031)
(1930.809205 0.649788021 1.660107192)
(1927.43374 1.609513556 2.595024874)
(1922.669528 4.054791961 4.437172817)
(1928.08882 0.2623926172 0.9400777751)
(1921.508087 -0.4684903761 2.215994341)
(1909.468047 -0.7899828683 3.891027854)
(1873.983836 1.503214122 5.971370228)
(1758.15005 15.02660621 8.387051181)
(1929.567169 -0.6622400731 2.452157221)
(1922.756445 -0.1003366311 2.248643594)
(1905.929866 3.530612342 3.527469236)
(1872.974331 6.461156492 8.598765618)
(1798.298966 22.1645354 13.14520237)
(1927.671156 2.086943626 0.4388822735)
(1920.432967 4.182462717 -0.1659292477)
(1907.77506 4.298741373 2.584435024)
(1878.892296 8.047086119 6.274538979)
(1830.041466 21.57201583 7.954424867)
(1929.832759 1.5667508 0.09186766505)
(1922.304392 2.283382245 2.061673907)
(1911.587247 3.378458546 4.472784459)
(1891.571517 6.620061134 6.215124525)
(1863.305836 14.79810957 10.77224738)
(1931.730143 1.999159754 1.507843661)
(1925.604152 2.620508164 1.876298688)
(1916.830246 4.998980984 2.009195783)
(1903.996752 5.84762712 4.20280821)
(1880.647001 12.38512011 10.06805248)
(1930.566003 -0.08271511414 0.2072359616)
(1926.135803 0.8276655352 0.05824839306)
(1919.928504 3.91192864 1.914113847)
(1909.068999 6.180387165 5.209578471)
(1892.985486 9.760094951 9.114084663)
(1932.782612 -0.4811097618 1.140821165)
(1927.081251 -0.4542743525 2.297145946)
(1919.632318 0.3915415645 3.764064907)
(1911.729569 2.365103008 4.413370032)
(1896.427872 6.615522538 8.697947277)
(1933.338563 1.654211736 0.4350161691)
(1929.697172 2.234478403 0.03486677762)
(1922.546807 2.335607273 1.461968707)
(1915.573593 3.403977348 3.042429615)
(1909.340323 6.336796291 5.550434144)
(1933.33967 2.738553751 1.095104349)
(1929.676692 3.187800636 2.894417292)
(1925.836107 4.19676423 2.129741273)
(1919.106993 4.084469073 4.481284106)
(1913.218689 4.937765337 6.568490564)
(1931.629618 0.3234265195 0.6102077479)
(1928.817893 0.9392485729 1.820599367)
(1925.21673 1.471824477 2.053006264)
(1922.044819 3.223983911 3.685538095)
(1913.611965 5.261781515 7.61411239)
(1933.397249 -0.8202031196 0.7670228896)
(1932.783445 0.07257277272 0.1717256973)
(1928.614904 2.004982508 1.290255879)
(1921.973562 4.420058233 4.091531277)
(1916.355352 5.43166454 5.213328208)
(1932.130678 2.78121059 -0.3421158699)
(1930.292067 2.856581074 1.496152176)
(1927.544331 2.308794467 2.362438001)
(1923.247243 2.793290721 4.394149636)
(1917.486334 4.454568642 6.947276354)
(1933.905852 -0.9740980048 -1.277725792)
(1933.283168 -0.4845550392 -1.038107289)
(1930.021032 0.1148733867 1.590909589)
(1926.234616 0.09334342754 3.576675978)
(1918.719462 2.157772135 8.552909782)
(1933.597531 -0.547094217 0.7937453503)
(1931.265985 -1.131799449 -0.006553043492)
(1927.991193 0.02154411239 0.8127877504)
(1923.233582 2.319743243 2.494224835)
(1919.407731 2.756512256 4.273414113)
(1934.485712 1.129417883 0.9803268587)
(1932.852645 -0.03372064225 0.9016084746)
(1932.396796 0.1198012431 1.752346909)
(1927.790873 0.352946818 3.369600142)
(1921.903659 2.115426809 5.733156017)
(1934.634968 -0.8991594674 1.290477566)
(1932.63052 -0.2807586194 1.587331515)
(1930.676181 1.557347085 2.209014428)
(1928.712252 3.229224505 2.900012211)
(1923.531513 3.371214285 5.428965664)
(1934.811244 0.04047342798 -0.888947019)
(1934.013962 0.362635355 0.4114619121)
(1932.237665 0.5856906607 1.967735298)
(1929.37281 -0.7608852733 2.851028385)
(1925.702861 0.5807870312 3.071831028)
(1935.989548 0.3415035027 1.202633123)
(1935.587556 -0.6408609848 0.6567160147)
(1932.169827 -0.9435713656 2.089416831)
(1930.912662 -0.1821815028 1.259787501)
(1929.307866 2.352751421 1.109830443)
(1928.911304 -1.714302053 2.114077059)
(1922.302871 0.008034650362 3.194133479)
(1913.694712 0.3529660316 2.990175046)
(1882.482095 0.6100230179 4.193094471)
(1767.143713 13.73241623 7.713026433)
(1929.939964 0.4116630261 0.8179793495)
(1923.74794 -1.093210815 1.335260745)
(1910.769909 0.1163975739 4.853796887)
(1882.003311 6.355376696 7.539433067)
(1812.693065 20.08050189 10.08210709)
(1930.177789 0.1586069281 -0.7702682283)
(1921.683863 2.79180312 0.576534963)
(1910.576764 3.78331005 2.956812257)
(1888.269301 7.577943575 5.6765017)
(1845.849803 18.07534896 8.959534082)
(1931.089117 1.764040766 0.8553211061)
(1924.708836 2.684375929 1.864481145)
(1916.460444 6.179677997 2.91099201)
(1900.693242 9.901574792 5.18186154)
(1869.650341 19.81940518 11.26307519)
(1930.998543 0.09129565522 -0.7589806477)
(1925.844657 0.05886337754 0.1824878698)
(1917.867532 2.050199704 3.018657644)
(1903.676354 6.126880035 4.897669384)
(1883.585958 12.94736024 8.006519921)
(1933.673736 0.3876958907 -1.20255906)
(1929.232815 2.013300415 0.08174684)
(1922.790884 3.361064704 1.118657223)
(1911.492362 4.389056677 3.301199935)
(1897.618857 9.578283664 6.593415547)
(1933.975515 -0.3006219038 -0.1087551183)
(1929.734075 1.524721094 0.982575253)
(1923.305344 2.432102966 3.562722394)
(1916.362169 4.444285629 5.591357081)
(1906.388606 9.993440686 8.548084543)
(1932.844946 -0.5392961546 1.745245901)
(1929.237729 0.7054839668 2.938259556)
(1924.512545 2.258798113 3.514241985)
(1918.732301 3.063081429 4.487713602)
(1911.337665 5.292775721 6.616611213)
(1933.954938 1.890284847 -0.02366798381)
(1929.740493 1.442679779 0.7085739948)
(1926.05973 1.424509331 2.626679576)
(1922.351761 4.184739586 2.850961522)
(1914.84723 4.892342367 5.950833533)
(1933.605338 0.2580340617 -0.00167669927)
(1930.917004 1.659122113 1.390494382)
(1928.570973 2.921463149 2.541513587)
(1922.834553 3.515096555 3.208028038)
(1918.513528 5.505670451 4.809017271)
(1934.155592 3.201069256 1.581720822)
(1932.889548 2.069092722 1.286785436)
(1928.940286 1.590031188 1.423947956)
(1924.176131 2.069064603 2.499486303)
(1920.855832 3.37028388 4.463012837)
(1934.104654 0.8892090988 0.202848492)
(1932.905504 0.6126916174 0.9474949466)
(1929.483234 2.298026867 2.336458372)
(1924.880482 2.433028557 3.301955401)
(1924.209407 2.651248561 4.498899648)
(1934.841262 0.5330180775 2.427980147)
(1933.12162 0.7139100209 1.835519261)
(1930.941519 2.779363092 2.009804987)
(1927.599869 4.350305673 2.690618232)
(1924.704579 4.284976326 4.559975733)
(1934.97971 0.7550928608 -0.01462842321)
(1934.482622 1.329059113 -0.4974493469)
(1931.970485 1.413059315 1.102486589)
(1927.527164 1.463774591 3.60068782)
(1925.439304 2.869916914 5.101014184)
(1933.955485 0.9109936001 -0.6079507675)
(1933.328303 0.4372668805 1.94148731)
(1931.486542 0.5955210723 1.989197424)
(1930.694356 2.064986691 2.437430432)
(1925.129469 2.442542372 3.466767393)
(1934.670027 -1.78648989 1.249733563)
(1932.912476 -0.220479735 1.885091353)
(1931.816767 0.6758784891 3.049167436)
(1929.459925 1.925233638 2.853567938)
(1925.577237 3.311634194 3.748442899)
(1934.728522 -0.4716384795 0.575965551)
(1933.340594 -0.9412393515 0.2556671403)
(1932.197842 0.09159015799 -0.3777446936)
(1930.823197 1.822642978 1.900830484)
(1929.074759 2.044577984 2.011345377)
(1934.008443 -0.96425387 -0.09434565249)
(1932.721901 0.05613087524 -0.5222744431)
(1932.515542 0.6272162152 -1.078756468)
(1929.830289 1.221066649 1.269092163)
(1929.19187 1.056270593 2.40950832)
(1930.408612 -1.631034392 0.08457496425)
(1924.633222 -0.3608965881 0.5761878719)
(1911.470559 0.8546008262 2.178499776)
(1878.816273 1.599623996 5.003701829)
(1782.861184 12.09655969 9.249847504)
(1928.713559 1.576497646 1.373095008)
(1924.604852 0.1937231206 0.858229012)
(1910.919127 -0.03564768708 2.750300478)
(1877.966851 5.255254072 4.197898507)
(1808.945201 21.79894306 7.474095511)
(1930.244067 -1.46650486 1.192991361)
(1923.421131 0.5113708153 -0.6393365914)
(1909.700166 1.540535005 1.43257259)
(1892.659875 6.688327402 2.433413778)
(1850.053863 17.34339355 6.99261087)
(1931.184884 1.368125945 0.9855613827)
(1925.026678 2.499434866 0.6334251381)
(1917.34359 4.665901596 2.882470887)
(1900.217837 7.752075029 4.679968211)
(1871.353499 15.20877159 7.317653313)
(1931.982674 -0.2455224773 1.684434735)
(1927.301143 0.6539790765 2.80848712)
(1919.906266 3.22295556 3.715981522)
(1909.208376 6.862981948 4.614295853)
(1889.350926 15.02245127 6.861284575)
(1934.842377 1.221489153 -0.2007932965)
(1929.138008 2.618365714 0.5510656832)
(1923.384095 3.530955607 1.546229639)
(1916.735978 5.918979454 2.285716664)
(1903.748301 11.15597275 4.243111014)
(1934.601986 0.6960916761 0.5830441589)
(1932.9517 1.162825182 1.091125319)
(1927.41901 2.343908989 2.637085105)
(1921.426542 3.806274616 4.323287424)
(1911.751474 6.697483813 5.48871093)
(1929.844488 1.282013823 1.026683843)