/*--------------------------------*- C++ -*----------------------------------*\
| =========                 |                                                 |
| \\      /  F ield         | OpenFOAM: The Open Source CFD Toolbox           |
|  \\    /   O peration     | Version:  v1706                                 |
|   \\  /    A nd           | Web:      www.OpenFOAM.com                      |
|    \\/     M anipulation  |                                                 |
\*---------------------------------------------------------------------------*/
FoamFile
{
    version     2.0;
    format      ascii;
    class       volScalarField;
    location    "0.003";
    object      wallHeatFlux_Ar;
}
// * * * * * * * * * * * * * * * * * * * * * * * * * * * * * * * * * * * * * //

dimensions      [1 0 -3 0 0 0 0];


internalField   uniform 0;

boundaryField
{
    flow
    {
        type            calculated;
        value           uniform 0;
    }
    entrance
    {
        type            symmetry;
    }
    walls
    {
        type            calculated;
        value           nonuniform List<scalar> 
900
(
1450.667282
1417.159158
1373.976836
1305.086248
1261.927294
1234.704082
1227.401709
1179.270442
1224.491554
1226.707367
1209.889041
1184.379723
1165.225174
1176.527499
1138.963516
1169.823742
1187.398973
1097.170804
1511.445344
1634.359087
1538.320412
1467.005691
1414.939037
1350.825751
1297.736891
1271.977833
1278.743812
1271.303144
1253.592105
1252.423442
1250.210539
1213.920959
1246.795737
1211.132827
1147.030343
1150.492512
1455.63179
1769.239459
1720.149513
1624.821621
1485.838081
1429.239078
1413.449132
1358.536824
1393.610597
1299.068268
1278.482348
1299.303635
1248.669434
1248.115694
1227.321622
1249.610456
1173.523137
1099.076795
1354.162963
1770.496233
1767.913082
1696.740468
1575.186439
1551.449611
1412.780788
1435.959234
1402.443713
1330.436708
1303.409586
1328.81668
1260.69565
1266.34692
1278.410359
1264.19666
1155.687775
1147.633318
1243.036934
1700.719482
1763.680742
1751.032543
1658.81131
1563.655056
1518.286798
1434.221706
1387.042062
1337.195047
1320.477993
1294.920776
1254.414093
1303.914175
1295.280331
1204.608566
1159.747613
1136.528761
1113.390376
1591.716742
1744.272501
1714.557722
1711.972834
1618.505386
1504.013849
1482.336538
1456.238386
1411.763837
1373.424327
1321.760768
1291.048077
1255.508788
1221.300344
1158.21286
1139.698146
1127.085465
1013.964968
1472.262344
1731.272404
1708.956511
1716.608571
1679.397446
1588.390128
1472.537638
1457.56053
1394.087545
1325.776108
1298.417187
1221.566191
1228.33822
1217.387883
1157.607397
1130.516653
1112.175633
953.6777227
1342.681602
1624.636926
1725.357821
1679.652881
1643.04048
1626.118375
1511.909049
1460.609587
1402.269403
1353.601977
1318.178556
1288.586002
1260.184389
1163.032765
1120.946004
1124.695624
1110.955895
820.9791383
1257.866443
1548.840559
1641.594965
1673.695629
1634.275903
1606.524031
1488.262395
1493.010588
1409.687268
1359.724179
1298.416213
1243.781167
1198.630966
1179.009588
1081.525386
1094.338403
1139.275164
771.598033
1175.761844
1443.840847
1575.569724
1613.838255
1624.388939
1610.565939
1580.908915
1490.455751
1463.140752
1359.627812
1275.386605
1222.447898
1209.23617
1155.287603
1090.522176
1078.674286
1123.891268
720.218568
1092.696567
1345.9992
1488.809384
1583.867388
1588.864542
1515.626552
1553.478291
1489.316226
1380.830173
1373.981975
1315.01304
1279.157825
1194.562296
1132.780084
1150.260739
1045.841158
1166.167221
640.8390099
1032.507046
1249.040841
1412.962948
1490.985405
1586.164295
1531.417979
1525.632749
1457.330873
1417.392534
1368.288107
1283.493292
1263.515762
1181.873977
1148.034628
1113.991257
1097.902365
1139.668376
645.7289904
932.1798252
1168.623311
1316.630878
1425.317293
1445.399917
1509.993211
1459.846431
1422.319295
1438.534109
1352.050225
1276.514607
1249.558426
1183.065716
1116.600546
1118.415582
1074.716837
1133.701218
576.4017999
837.8601754
1073.741708
1227.933355
1305.797908
1475.518525
1446.883449
1434.570446
1423.711937
1370.835269
1331.461766
1282.34145
1224.875082
1194.489721
1134.749199
1084.281408
1065.857098
1169.88202
515.1448659
814.8254341
1027.649692
1212.099761
1294.40738
1377.207675
1395.608335
1394.635742
1423.932744
1361.090109
1301.559741
1272.139082
1194.132108
1162.590095
1082.619741
1085.031924
1077.638353
1160.509522
517.4992513
761.6196693
952.9689559
1138.54239
1186.471743
1328.069014
1318.4442
1365.580742
1377.887193
1317.200567
1298.642524
1231.935968
1196.561146
1145.35136
1127.095934
1058.489409
1122.513038
1167.856585
468.1605686
671.9967349
897.8182199
1039.009474
1158.985202
1277.013803
1274.288292
1302.438667
1327.825485
1286.003243
1250.580916
1207.660788
1170.959989
1111.486242
1093.738256
1068.440311
1043.312816
1174.132532
437.2339507
683.8728071
827.5600586
985.6114308
1082.412683
1116.606
1203.101045
1271.125376
1231.074382
1309.471271
1201.174947
1160.298079
1140.67152
1131.944846
1037.605306
1083.964103
1070.25788
1237.088471
403.713978
579.1937971
767.6618187
909.2682828
1035.356281
1124.806163
1186.167894
1210.682068
1246.327654
1238.904965
1153.341544
1173.34263
1091.154818
1097.031186
1078.635235
1045.717578
1089.14209
1186.775285
406.6936436
592.3876837
711.6809761
815.3849503
966.5100156
1036.495302
1118.213578
1147.522031
1152.704908
1152.565328
1166.942634
1128.537754
1129.229655
1117.625478
1057.655581
1052.952541
1062.522252
1201.554075
377.7324485
569.8286825
677.3915977
809.493204
886.1801829
988.2553179
1043.70775
1091.390564
1115.065214
1192.461403
1154.416067
1099.17838
1114.312768
1076.082125
1061.404368
1019.111701
1052.343088
1196.794718
329.2729703
520.9797077
636.6453527
755.2812458
848.2094767
901.2700183
990.60037
1027.106044
1042.587896
1095.761399
1098.304819
1072.25393
1090.18133
1066.316478
1029.56874
1016.245232
1035.786564
1196.868859
337.4631157
496.6090986
607.2493653
726.6832512
805.9739228
862.5817634
949.6704172
1017.107959
1046.554674
1057.737248
1009.569456
1040.849378
1033.172602
1019.374186
1012.267243
1018.619882
1052.26981
1162.13594
319.5788139
456.2068743
571.9403003
666.0733264
759.6445658
813.5970131
902.5386576
941.9398077
958.2609469
995.7700831
1006.621251
974.1110177
1008.344794
978.8522659
956.0795076
951.5609552
1016.578575
1201.466347
298.0166024
441.2425031
554.9401158
613.6067865
724.6793247
799.8005951
880.1725557
924.5539144
950.7648448
945.8736656
971.2594943
969.452911
990.8837907
929.1066429
984.7949223
932.1049025
1030.262768
1181.669721
1389.415747
1426.259144
1340.947871
1305.339572
1333.053923
1212.667698
1237.012552
1213.770837
1218.331985
1222.444824
1179.737371
1217.991767
1175.414274
1209.667269
1147.178936
1167.534278
1138.515756
1082.671227
1490.350831
1634.5867
1549.498755
1492.236048
1376.030927
1364.272417
1297.413153
1329.628057
1293.417573
1240.684971
1271.315466
1264.601076
1231.597233
1216.317471
1228.558674
1145.749601
1235.858635
1172.227881
1464.312219
1737.600983
1661.009024
1609.934366
1514.028535
1468.38173
1397.733973
1354.947613
1321.658882
1290.143165
1294.293287
1262.186518
1333.889971
1261.814002
1252.896168
1190.878385
1209.256763
1157.105807
1339.244623
1737.872478
1781.169081
1652.992795
1611.719891
1494.322478
1463.930084
1404.09025
1359.596498
1351.025561
1335.616508
1285.892377
1318.683783
1247.766723
1230.683274
1211.341281
1235.659504
1131.833395
1199.659587
1690.590508
1791.750569
1703.2282
1672.056761
1558.870626
1505.459118
1414.006487
1393.870302
1358.210001
1365.845531
1286.248577
1250.711875
1310.284792
1248.141693
1272.923094
1184.951276
1120.732693
1116.704625
1634.768783
1798.835061
1784.955005
1700.49855
1641.198565
1501.309271
1506.307225
1394.919678
1388.328111
1332.806797
1289.547139
1253.9835
1276.785965
1227.051238
1197.855884
1146.341776
1146.791541
996.5782835
1526.217771
1726.987498
1753.63513
1683.901394
1648.872202
1533.52998
1519.813929
1403.557833
1383.978612
1406.176196
1279.293617
1285.966097
1251.98018
1197.29602
1200.997854
1122.420562
1145.958972
927.2205582
1422.485616
1568.177139
1713.624246
1668.272224
1630.605488
1559.332414
1531.056774
1536.095514
1390.230425
1354.477414
1287.733771
1239.857659
1242.031735
1185.930835
1128.715307
1080.274425
1142.963271
843.7513216
1279.054253
1545.9737
1626.922076
1675.189109
1643.444161
1644.962443
1580.347885
1436.750121
1423.366149
1377.981906
1280.480977
1275.758743
1233.817172
1189.918383
1145.604909
1121.212117
1123.644956
770.4911924
1158.993529
1390.513199
1541.461853
1619.173068
1648.460032
1593.206494
1527.643263
1482.791614
1488.44804
1341.748734
1306.128717
1272.882881
1211.169289
1149.444011
1143.042299
1080.425429
1148.670699
723.4990517
1090.439059
1361.673037
1496.197075
1571.507054
1561.565837
1602.986308
1532.688987
1450.396281
1400.658502
1344.061071
1283.49025
1269.487585
1238.273123
1148.211935
1110.92587
1081.054491
1119.538594
662.8887562
1013.541136
1222.093504
1446.941068
1482.58156
1566.836435
1476.251165
1510.911299
1449.069768
1437.06526
1393.011937
1328.435885
1200.920766
1184.483277
1095.217678
1097.520758
1102.185125
1129.265029
636.0749409
926.3695283
1181.691665
1303.110943
1442.11301
1506.996847
1496.56514
1485.210974
1439.881139
1388.6168
1377.366827
1269.655913
1267.893406
1174.350048
1162.082514
1092.615154
1061.651506
1179.907215
587.5271632
836.3541861
1074.374884
1281.265914
1375.17196
1415.043817
1472.720317
1517.101856
1444.760963
1385.525275
1322.665236
1315.638651
1263.76245
1144.983339
1115.425717
1106.530185
1101.644952
1154.978264
557.1169885
774.3609274
1011.401962
1186.895883
1288.146341
1393.46831
1378.439098
1354.715296
1392.913871
1358.694717
1303.610525
1271.37433
1197.629364
1150.883187
1077.132854
1107.058073
1047.925552
1189.069438
513.3403911
773.24541
974.1472771
1122.787408
1185.851462
1344.103782
1358.881258
1378.898283
1336.638012
1266.938442
1304.574195
1277.451486
1250.72249
1104.900481
1106.41924
1099.691425
1090.582637
1143.696682
447.2764969
697.5894851
887.8510631
1044.126035
1102.090646
1216.213171
1273.39857
1297.037073
1359.760405
1272.060158
1250.053425
1193.840435
1109.180071
1137.563049
1102.80027
1081.392806
1079.497774
1151.624968
462.4417246
636.5545107
837.5867849
968.4052205
1061.958124
1180.217561
1188.566529
1261.311691
1279.702818
1238.492047
1208.863167
1176.461648
1136.845711
1154.047244
1123.060492
1061.759251
1072.873451
1171.348488
445.3826759
604.5757284
781.65829
909.0927028
1068.550351
1081.993744
1171.289569
1217.596874
1230.124205
1174.817699
1195.676656
1178.876044
1148.529096
1071.035774
1073.123938
1043.753305
1083.099615
1231.139484
378.9816552
575.1952271
756.2626899
861.3523951
954.1161212
1058.289447
1140.404381
1163.51372
1190.982577
1219.792671
1148.511557
1132.374737
1090.856618
1104.988213
1067.119911
1037.850851
1057.937245
1196.555432
380.5023502
517.6055598
668.7028078
811.9345674
930.8625201
1012.465126
1061.30963
1097.773547
1156.466882
1133.852327
1167.823939
1095.707314
1087.442124
1067.361454
1028.59998
1045.446317
1064.352801
1158.792381
365.8827114
521.5739459
648.8469558
752.990623
883.9145734
915.148612
1009.647671
1040.823077
1101.755372
1067.389678
1064.096116
1057.955814
1021.795107
1088.710317
1037.466566
1034.407452
1046.049686
1227.468403
299.8600846
473.0388869
636.2105468
748.9910229
811.9396572
885.3713541
948.8144849
984.3061073
1025.599953
1020.199316
1036.840529
1044.000199
1018.769988
1012.64844
1010.764899
973.2822306
1057.79263
1169.727967
334.9828863
451.8064336
557.4279587
704.6738753
763.9182296
799.9121397
896.4468732
956.7577231
951.9457189
1007.852305
979.3556033
1006.574233
989.1078103
977.1515189
995.7189591
962.6293234
1026.416708
1180.804607
305.1412497
433.0071222
543.7434961
648.7729012
691.8330799
776.4976863
896.2557691
894.0533991
970.2870228
1000.511266
989.5463252
950.1104292
967.4093003
941.3227718
967.9309952
1011.928059
998.5998617
1228.812398
)
;
    }
}


// ************************************************************************* //
