/*--------------------------------*- C++ -*----------------------------------*\
| =========                 |                                                 |
| \\      /  F ield         | OpenFOAM: The Open Source CFD Toolbox           |
|  \\    /   O peration     | Version:  v1706                                 |
|   \\  /    A nd           | Web:      www.OpenFOAM.com                      |
|    \\/     M anipulation  |                                                 |
\*---------------------------------------------------------------------------*/
FoamFile
{
    version     2.0;
    format      ascii;
    class       volScalarField;
    location    "0.00953";
    object      Mach;
}
// * * * * * * * * * * * * * * * * * * * * * * * * * * * * * * * * * * * * * //

dimensions      [0 0 0 0 0 0 0];


internalField   nonuniform List<scalar> 
23482
(
1.062614936
1.042349452
1.022525992
1.00267219
0.9831563995
0.9642268927
0.9456743523
0.9272888824
0.9091416103
0.8912531583
0.8739043906
0.8567023953
0.8398979278
0.8232393345
0.8067038397
0.790579106
0.7744007627
0.7585286061
0.7428892145
0.7273182974
0.7121814183
0.6971537231
0.6824122002
0.668018948
0.6535621648
0.6393513999
0.6251975147
0.6110718042
0.5971989313
0.5833335248
0.5695924314
0.5561067095
0.5427142977
0.5296189565
0.5166269201
0.5036532475
0.4909149261
0.4782074461
0.4657827129
0.4535474854
0.4414411108
0.4296129624
0.4176596011
0.4057829341
0.3939357203
0.3821696315
0.3703163996
0.3583414736
0.3470776493
0.3360859581
0.3257397941
0.315645711
0.3061737652
0.2965364241
0.287017319
0.2767026141
0.2663430422
0.2557946797
0.2456874747
0.2361907029
0.2279730086
0.2203594168
0.2135766185
0.2072648403
0.2014478019
0.1953757526
0.1887262185
0.1822184705
0.1767725741
0.1732072423
0.1710019897
0.170047529
0.170408556
1.31979091
1.317148027
1.314330612
1.311181981
1.307759899
1.303964316
1.299803015
1.295157239
1.29009542
1.284482318
1.278356927
1.271577143
1.264180383
1.255984202
1.247112322
1.237179146
1.226518452
1.214713944
1.202068997
1.188072199
1.173521444
1.157875887
1.141974998
1.12447779
1.106688932
1.087320635
1.067718333
1.047444258
1.027578892
1.00762862
0.9880278997
0.9689624983
0.9503489834
0.9318669813
0.9135994224
0.8956096433
0.8781491626
0.8608710971
0.8440090061
0.8273
0.8107523792
0.7945979362
0.7783917042
0.7624978774
0.7467971639
0.7311621181
0.7159521486
0.7008454256
0.6860511572
0.6716145784
0.6571416517
0.6429475257
0.6288121848
0.614703768
0.6008256938
0.5869374276
0.5731561616
0.5596260073
0.5461966705
0.5330759963
0.5200646815
0.5070875966
0.4943194515
0.4815607743
0.4691292547
0.4568190147
0.4446806032
0.4328690303
0.4209281843
0.4091062214
0.3973192342
0.3855857635
0.373730847
0.3616816375
0.3502891207
0.3391750751
0.3287002493
0.3185327181
0.3090615535
0.2994917987
0.2901131404
0.2799380264
0.2696556285
0.2590744216
0.2488475823
0.2392108087
0.2308857534
0.2231814212
0.2163424614
0.2100320494
0.2042930261
0.1983207161
0.1917038253
0.1851425259
0.1796014749
0.1759736646
0.173723401
0.1727477676
0.1731288696
1.324841444
1.322198408
1.31937412
1.316226505
1.312798075
1.30900391
1.304839375
1.300200399
1.295137485
1.289534148
1.283407236
1.276635507
1.269230611
1.261034906
1.252135041
1.242197634
1.231489694
1.219682963
1.207004206
1.193034978
1.178478637
1.162826656
1.146903589
1.129408387
1.111559405
1.092163777
1.072472709
1.052190479
1.032292952
1.012261479
0.9925872155
0.9733916884
0.9547318337
0.9361677018
0.9177873171
0.8996937925
0.8821137342
0.8647519182
0.8478195256
0.8310541589
0.8144917524
0.7983122457
0.7820924613
0.7661946902
0.7504525577
0.7347693329
0.7194944098
0.7043101149
0.6894558971
0.6749658819
0.6604680383
0.646284625
0.6321725325
0.6180943145
0.60422937
0.5903360934
0.5765346093
0.5629595087
0.549492184
0.5363457245
0.5233192382
0.5103496332
0.497584377
0.4847783754
0.4723483352
0.4599687019
0.4478077751
0.4359918929
0.4240608983
0.4122988408
0.4005894299
0.3889150487
0.3770917413
0.3650055957
0.3535117814
0.3422475645
0.3316646704
0.3214081359
0.3119240605
0.3024111117
0.2931757612
0.2831623408
0.2729897377
0.2624052408
0.2520757281
0.2423064626
0.2338781727
0.2260838631
0.219185271
0.2128710429
0.2072105966
0.2013480616
0.1947769895
0.1881712112
0.1825386935
0.1788462528
0.176549237
0.1755525119
0.175952199
1.329716629
1.327072559
1.324239812
1.321091062
1.317654246
1.313858383
1.309688207
1.30505244
1.299986257
1.294389423
1.28826011
1.281494411
1.274082143
1.265885342
1.256957825
1.247010802
1.236249409
1.224425575
1.211696802
1.197737039
1.183159108
1.167491275
1.151530624
1.134023508
1.116104789
1.096673217
1.076878158
1.056587563
1.036671367
1.01657882
0.9968457674
0.9775280802
0.9588391346
0.9402127209
0.9217330758
0.9035386791
0.8858347878
0.8683834499
0.8513673302
0.8345360887
0.8179505057
0.8017439676
0.7855191209
0.769631574
0.7538678433
0.7381551694
0.7228284261
0.7075729386
0.6926556692
0.6781036591
0.6635706482
0.6493877987
0.6352971897
0.6212562708
0.6074202875
0.5935372858
0.5797367109
0.566128934
0.5526226388
0.539446234
0.5263980278
0.5134443978
0.5007041353
0.4878761917
0.4754377301
0.4630176705
0.4508224879
0.4389886666
0.4270639329
0.4153589355
0.4037371112
0.3921427826
0.3803836479
0.3682985692
0.3567362325
0.3453320446
0.33462393
0.3242748322
0.3147657343
0.3052964432
0.296202965
0.2863704281
0.2763404555
0.2657848693
0.2553725366
0.2454805502
0.2369551246
0.2290733674
0.2221129602
0.2157899581
0.2102080867
0.2044651447
0.1979535546
0.1913125102
0.1855933933
0.1818376563
0.1794917694
0.1784727101
0.1788900034
1.334421235
1.331774449
1.328931826
1.325779549
1.322332331
1.318531316
1.314352679
1.309715834
1.304643321
1.299048673
1.292914923
1.286152301
1.278732866
1.270533696
1.261580252
1.2516203
1.240802808
1.228949559
1.216156923
1.202188278
1.187572789
1.171881056
1.155870915
1.138340638
1.120350415
1.100881869
1.08096742
1.060659926
1.040736214
1.020601138
1.000823322
0.9813882885
0.9626845286
0.9440177351
0.9254568814
0.9071698216
0.8893425656
0.8717995029
0.8546879106
0.837779797
0.8211586273
0.8049175143
0.7886899945
0.7728220559
0.7570550523
0.7413329476
0.7259718019
0.7106565145
0.695677765
0.6810578669
0.666479124
0.6522839928
0.6382077836
0.6242052684
0.6104092032
0.5965544279
0.5827733208
0.5691491236
0.5556108099
0.5424043523
0.5293276659
0.5163913426
0.503677054
0.4908528863
0.478406986
0.4659788741
0.4537322886
0.4418830118
0.4299533003
0.4182960367
0.406763702
0.395263107
0.3835965823
0.3715505352
0.3599562864
0.3484323702
0.3375878334
0.3271409622
0.3175946386
0.3081531622
0.2991951096
0.2895585414
0.2797032938
0.269211022
0.2587384562
0.2487356281
0.2401211017
0.2321562239
0.2251331762
0.218796773
0.2132929135
0.2076790833
0.2012412752
0.1945750235
0.188774771
0.1849586278
0.1825628562
0.1815199212
0.1819539091
1.338965929
1.336310783
1.333456095
1.330297719
1.326838373
1.32302899
1.318839182
1.314196992
1.30911483
1.303517768
1.297377015
1.290614362
1.283188018
1.274986421
1.266011075
1.25603854
1.245167719
1.233278442
1.220413872
1.206421298
1.191754705
1.176032984
1.159962975
1.142394823
1.124331845
1.10483189
1.084784722
1.064440023
1.044506907
1.024349162
1.004538718
0.9849899672
0.9662815997
0.9475968179
0.928977183
0.9106114689
0.8926672244
0.8750354647
0.8578205387
0.8408250224
0.8241533072
0.8078650336
0.7916305638
0.7757852407
0.7600297739
0.7443175559
0.7289424765
0.7135837175
0.698550585
0.683861009
0.6692270332
0.6550051345
0.6409315994
0.6269627249
0.6132118725
0.5994007833
0.5856578895
0.5720355818
0.558473395
0.5452455627
0.5321316591
0.5192091604
0.5065200997
0.4937119107
0.4812731697
0.4688494189
0.4565626248
0.4446949882
0.4327496744
0.4211273201
0.4096798672
0.3982789785
0.3867274087
0.3747560151
0.3631679077
0.3515472738
0.34057093
0.3300184194
0.3204223125
0.3109907078
0.3021562488
0.292725185
0.2830746909
0.2726816382
0.2621738258
0.2520738742
0.2433800509
0.2353381238
0.228252979
0.2218989322
0.2164719259
0.2109962797
0.204647154
0.1979668334
0.1920917316
0.1882189125
0.1857730027
0.1847050817
0.1851551007
1.343362004
1.34069363
1.337823496
1.334656947
1.331184309
1.327364388
1.323161542
1.318510677
1.313416199
1.307812791
1.301662792
1.294897575
1.287465087
1.279262384
1.270271237
1.260289685
1.249372799
1.237446062
1.224506423
1.210477955
1.195748907
1.179992411
1.163852494
1.146223783
1.128075793
1.108548792
1.088368854
1.067975757
1.047999766
1.027848243
1.008012103
0.9883554607
0.9696490567
0.9509654054
0.9323119762
0.9138865401
0.8958375801
0.8781261316
0.8608057872
0.8437149648
0.826977594
0.8106260301
0.7943737888
0.7785467345
0.762812044
0.7471259359
0.7317584504
0.7163765615
0.7013019301
0.6865462971
0.6718504149
0.657587459
0.6435014962
0.6295559565
0.6158494902
0.6020928489
0.5884053529
0.5748058707
0.5612331853
0.5479890698
0.534836142
0.5219166914
0.509251383
0.4964664547
0.484049797
0.4716415027
0.4593291536
0.4474450674
0.4354748977
0.4238732428
0.4125016594
0.4011998147
0.3897785521
0.3779136222
0.3663709357
0.3546807937
0.343582192
0.332919804
0.323262612
0.3138219644
0.3050944407
0.2958717975
0.2864525136
0.2761951473
0.2656789874
0.255497068
0.2467352247
0.2386238989
0.2314785083
0.2251029653
0.2197509872
0.2144219451
0.2081768173
0.2014945931
0.1955517463
0.1916267383
0.1891311443
0.1880377
0.1885034468
1.347609077
1.344935533
1.342050702
1.338875485
1.33538947
1.331558154
1.327341571
1.322679919
1.317571366
1.311958418
1.305797071
1.29902669
1.291588191
1.283385355
1.274384279
1.264398086
1.253444039
1.241481089
1.228465602
1.21439038
1.199588794
1.183796078
1.167583019
1.149872381
1.131618415
1.112050821
1.091764228
1.071308431
1.051296227
1.031089813
1.011254499
0.9915076173
0.9728162324
0.9541416709
0.9354794475
0.9170160202
0.8988799052
0.8811037716
0.8636828219
0.8464932845
0.8296775641
0.8132452436
0.7969589162
0.7811383276
0.7654265272
0.7497773114
0.7344375616
0.719055303
0.7039573951
0.6891455729
0.6743855373
0.6600693618
0.6459542398
0.6320171212
0.6183480013
0.6046504899
0.5910318193
0.5774760452
0.5639114051
0.5506561093
0.5374664506
0.5245384101
0.5118922434
0.4991329529
0.4867514074
0.4743689917
0.4620482021
0.4501530244
0.43815164
0.4265559655
0.4152481287
0.404039056
0.392756327
0.3810245938
0.3695665088
0.3578378831
0.3466306129
0.3358574567
0.3261300904
0.3166616295
0.3080208185
0.2990027135
0.2898362528
0.2797505843
0.2692543239
0.2590065495
0.2501890288
0.2420172717
0.2348146605
0.22841412
0.2231345812
0.2179596612
0.2118339848
0.2051628752
0.1991601329
0.1951881408
0.1926439846
0.1915250899
0.1920067462
1.351726211
1.349053417
1.346158428
1.342975144
1.33947678
1.335634005
1.33140379
1.326730002
1.321606101
1.315980634
1.309805324
1.303026194
1.29558003
1.287376283
1.278369436
1.268382738
1.257401584
1.245406756
1.232317935
1.218186292
1.203301624
1.187472687
1.171192007
1.153387281
1.135009459
1.115408214
1.094999016
1.074458976
1.054434843
1.034122414
1.014299178
0.9944613576
0.9758029901
0.9571451777
0.9384978179
0.9200181255
0.9018162647
0.8839964061
0.8664865666
0.8492007553
0.8322988677
0.8157697001
0.7994293863
0.7835968958
0.7679022069
0.752293251
0.7369973302
0.7216376445
0.7065387741
0.6916870872
0.6768664025
0.6624888575
0.6483281546
0.6343813665
0.6207369606
0.6070965311
0.5935548435
0.5800613186
0.5665261798
0.55326893
0.5400480935
0.5271002518
0.5144661209
0.5017301928
0.4893939218
0.4770464471
0.4647348997
0.4528382226
0.4408025213
0.4291986401
0.4179403862
0.4068129861
0.3956698678
0.3840920276
0.3727563329
0.3610232262
0.3497246193
0.3388431577
0.3290390075
0.3195247644
0.3109481078
0.3021243795
0.2932267403
0.2833474176
0.27290013
0.2626030931
0.253742845
0.2455206075
0.2382647861
0.2318360298
0.2266254792
0.2216110331
0.2156200649
0.2089736873
0.2029194878
0.1989063552
0.1963153664
0.1951716837
0.1956700279
1.355748846
1.353071939
1.35016864
1.346977661
1.343468318
1.339614417
1.335371199
1.330684602
1.325544687
1.319904225
1.313712243
1.306920176
1.299463113
1.291255711
1.282244846
1.272260514
1.261262562
1.24924346
1.236088756
1.221894518
1.20691519
1.191046264
1.174708228
1.156808947
1.138297183
1.118675907
1.09811449
1.07747184
1.057433751
1.0370103
1.01720187
0.9972461287
0.9786113853
0.9599883369
0.9413913807
0.9229082649
0.9046645699
0.88682634
0.8692458766
0.8518726795
0.8348835479
0.8182456572
0.8018304322
0.7859629452
0.7702719185
0.7546979118
0.7394553611
0.7241387289
0.7090632953
0.6941939465
0.6793226963
0.6648812994
0.6506608754
0.6366848976
0.6230481875
0.6094556829
0.5959932723
0.5825760785
0.5690920847
0.555848427
0.5426051703
0.5296286609
0.5169973792
0.5042781152
0.4919939683
0.4796880636
0.4674032931
0.4555184077
0.4434491471
0.4318243524
0.4206006426
0.4095399399
0.3985304914
0.387120344
0.3759421627
0.364240773
0.3528716026
0.3418875426
0.3320027381
0.3224259277
0.3138894342
0.3052443515
0.2966255559
0.2869851374
0.2766163208
0.2662866979
0.2573968342
0.2491346934
0.2418304399
0.2353704523
0.2302244998
0.225375472
0.2195339142
0.2129261763
0.2068293159
0.2027813832
0.2001457983
0.1989785234
0.1994950177
1.359697057
1.357014128
1.354102504
1.350903831
1.347384614
1.343520197
1.339264993
1.334565716
1.329410036
1.323753207
1.317542583
1.310733725
1.303261831
1.295046556
1.286030814
1.276049262
1.265042877
1.253008281
1.239799654
1.225543416
1.210460593
1.194540937
1.178151802
1.160165572
1.14154006
1.121886578
1.101158498
1.080389656
1.060334598
1.039811914
1.020000464
0.9999056375
0.9812624573
0.9627079739
0.9441598728
0.9256984288
0.9074323593
0.889613806
0.8719824726
0.8545373682
0.8374673964
0.8207156488
0.8042064807
0.7882787895
0.7725715686
0.757018205
0.7418300149
0.726571685
0.7115435477
0.6966832012
0.6817782427
0.6672775014
0.6529873737
0.638963067
0.6253146641
0.6117534994
0.5983671521
0.5850348538
0.5716192821
0.5584129293
0.5451587825
0.5321487964
0.5195101541
0.5067971162
0.4945682776
0.4823074072
0.4700654477
0.4582089232
0.4461110445
0.4344550226
0.4232511042
0.4122394129
0.4013511339
0.3901149443
0.3791254696
0.3674933176
0.3560774044
0.3449996161
0.3350332866
0.3253786338
0.3168575645
0.3083705181
0.3000344427
0.2906627954
0.2804020937
0.2700563597
0.2611497683
0.2528585915
0.2455112303
0.239017115
0.2339303909
0.2292501336
0.2235717921
0.2170165572
0.2108859067
0.2068098167
0.2041322408
0.2029430106
0.203479854
1.363589921
1.360900163
1.357980017
1.354773454
1.351245078
1.347370852
1.343104856
1.338393716
1.333223441
1.32755023
1.321320258
1.314491888
1.307001553
1.298773781
1.289750585
1.27977
1.268760396
1.256717256
1.243467227
1.229155801
1.21396953
1.197987234
1.181542477
1.163477418
1.144778213
1.125033468
1.104184572
1.083271803
1.063181001
1.042571287
1.022751791
1.002480343
0.9837994374
0.9653359589
0.9468080424
0.9283930234
0.910135625
0.8923662117
0.8747100361
0.8572146331
0.8400780451
0.8232159266
0.8065985871
0.7905864812
0.7748390427
0.7592837859
0.7441412369
0.7289486969
0.7139881673
0.6991657021
0.6842500611
0.6697023352
0.6553384607
0.6412486649
0.6275686151
0.614016233
0.6006971301
0.5874529794
0.5741170058
0.5609745095
0.5477247092
0.5346840248
0.5220273704
0.5093073065
0.4971331057
0.4849173242
0.4727311985
0.4609219934
0.4488048344
0.4371104299
0.4259129239
0.4149311446
0.4041457569
0.3930819141
0.3823072276
0.3707822164
0.3593459603
0.3481863262
0.3381408768
0.328394968
0.3198644078
0.311510613
0.3034549182
0.2943786668
0.2842556655
0.2739099147
0.2649989552
0.2566896081
0.249304812
0.2427737147
0.2377398633
0.2332300248
0.227727517
0.2212382814
0.2150824816
0.2109849553
0.2082681947
0.207058964
0.2076191095
1.367445019
1.364747914
1.361819305
1.358604717
1.355067694
1.351184391
1.346908876
1.34218721
1.337004293
1.33131604
1.325067474
1.318218376
1.310706852
1.302462233
1.293428277
1.2834459
1.272436414
1.260389688
1.247107588
1.232746781
1.217462972
1.201418073
1.184911915
1.166774265
1.147980939
1.128171761
1.10721928
1.086170125
1.066009234
1.045321066
1.025475221
1.005052785
0.9862596918
0.9678829807
0.9493789475
0.9310177365
0.912782528
0.8950785667
0.8774284961
0.8599197253
0.8427342707
0.8257744908
0.809042082
0.7929255972
0.7771127568
0.7615266972
0.7464112735
0.7312823306
0.7164031234
0.7016467005
0.6867480481
0.6721737326
0.6577397143
0.6435710946
0.6298387794
0.6162713222
0.6030036068
0.5898463995
0.5765957761
0.5635387984
0.5503162883
0.5372510561
0.5245695327
0.5118280986
0.499703735
0.4875301032
0.4754081181
0.4636663911
0.4515436545
0.4398075
0.428605348
0.4176342961
0.4069288032
0.3960278034
0.3854878211
0.3741072434
0.3626790983
0.3514522774
0.341333634
0.33148533
0.3229206842
0.3146719277
0.3068881
0.2981300937
0.2881741522
0.2778440064
0.2689402835
0.2606234048
0.2532070359
0.2466360813
0.2416477818
0.2373082691
0.2319928059
0.225582419
0.2194095928
0.2152972017
0.2125440828
0.2113169805
0.2119041199
1.371276057
1.368571618
1.365635059
1.362412669
1.358867611
1.354976088
1.350692467
1.345962106
1.340769282
1.33506877
1.328804144
1.321935076
1.314400942
1.306135569
1.297086773
1.287098926
1.27609229
1.264047979
1.250743105
1.2363351
1.220951905
1.204835498
1.188296079
1.170102715
1.151148713
1.131333159
1.110283426
1.089117005
1.06885278
1.048094062
1.028206301
1.007654695
0.9887027121
0.9703793803
0.9518989138
0.9335979811
0.9153850541
0.8977521327
0.8801370001
0.8626527845
0.8454450622
0.828409937
0.8115646527
0.795331048
0.7794299231
0.7637805886
0.7486650791
0.7335868822
0.7187934204
0.704127142
0.6892753543
0.6747021114
0.660210503
0.6459561152
0.632152525
0.6185435926
0.6053072198
0.592225668
0.5790664727
0.5661110559
0.5529412221
0.5398637428
0.5271541027
0.5143780412
0.5022934969
0.4901579453
0.4781018847
0.4664473859
0.4543368588
0.4425598671
0.4313451237
0.4203667924
0.4097147392
0.3989594954
0.3886670982
0.3774666148
0.366076512
0.3547996001
0.3446173863
0.3346583011
0.3260357382
0.3178611598
0.3103346936
0.3019135003
0.2921535911
0.2818541812
0.2729683931
0.2646542332
0.2572122331
0.250598487
0.2456474991
0.2414765058
0.2363577525
0.2300382035
0.2238557137
0.2197346763
0.2169478697
0.2157050462
0.2163235698
1.375091745
1.372380614
1.369437185
1.366207778
1.362655585
1.358756865
1.354466692
1.349729853
1.344530549
1.338822054
1.332546153
1.325660811
1.318105291
1.309816761
1.300748457
1.290749238
1.279745494
1.267710132
1.254396387
1.239949066
1.224464787
1.208267696
1.191647328
1.173487795
1.15434739
1.134521117
1.113395176
1.092147759
1.071731261
1.050920841
1.030985174
1.010310702
0.9911768092
0.9728667571
0.9543958169
0.9361461667
0.9179617867
0.9003899913
0.8828377999
0.8654048714
0.8482098679
0.8311310512
0.8141850277
0.7978310904
0.781824622
0.7660794891
0.7509302413
0.7358794705
0.7211649443
0.7066054885
0.6918294594
0.6772904025
0.6627631126
0.6484244838
0.634534778
0.6208564147
0.6076252235
0.5946056241
0.5815368707
0.5686950109
0.555602777
0.5425314899
0.5297940898
0.5169753975
0.5049134302
0.4928134002
0.480816796
0.4692668916
0.4571899363
0.4453776941
0.4341461738
0.4231448263
0.4125176943
0.4018841661
0.3918445496
0.3808571641
0.3695358979
0.3582279816
0.3479955842
0.3379206181
0.3292174894
0.321084364
0.3137950908
0.3057245404
0.2961890777
0.2859350838
0.2770769333
0.2687752581
0.2613135911
0.254654053
0.2497312828
0.2457253678
0.2408113849
0.2345936665
0.228407941
0.2242839612
0.2214658263
0.2202093034
0.2208642458
1.37889659
1.376179831
1.37323104
1.369995931
1.366437815
1.362532936
1.358237596
1.353496384
1.348294109
1.342582748
1.336302373
1.329407987
1.321836686
1.313526631
1.304436077
1.294418454
1.283413009
1.271388371
1.258079346
1.243609451
1.228033785
1.211752951
1.195002526
1.176901022
1.157610432
1.137742294
1.116561183
1.095254237
1.074695549
1.053824368
1.03384505
1.013050776
0.9937170742
0.9753843567
0.9568992687
0.9386833918
0.9205145984
0.9030089666
0.8855363669
0.868167272
0.8510206141
0.8339372726
0.8169124269
0.8004457313
0.7843258417
0.7684561937
0.7532363406
0.7381806562
0.7235261698
0.7090798405
0.6944038362
0.6799346968
0.6654023727
0.6509910426
0.6370072874
0.6232326539
0.6099761577
0.596998849
0.5840135866
0.5712936232
0.5582996098
0.5452588849
0.5325042643
0.5196366281
0.5075664749
0.4955104854
0.4835571101
0.4721240625
0.4601045247
0.4482676482
0.4370195142
0.4259825727
0.4153511319
0.4048092936
0.3950195819
0.3842746379
0.3730532258
0.3617348352
0.351469334
0.341277221
0.3324724934
0.32434698
0.3172695296
0.3095583263
0.3002749733
0.2900807137
0.2812588692
0.27297892
0.2655035666
0.2587951936
0.2538907786
0.250044985
0.245342236
0.239236284
0.2330527153
0.2289308759
0.226083338
0.2248148713
0.2255118518
1.382693259
1.379972072
1.377019534
1.373780282
1.370217701
1.366307549
1.362007831
1.357263464
1.352060701
1.346350855
1.340073145
1.33317934
1.325602523
1.317278604
1.308168489
1.298128709
1.28711581
1.275098027
1.261799645
1.247322736
1.231667769
1.215319627
1.198416427
1.180345246
1.160945992
1.141009845
1.119787674
1.098435129
1.077766876
1.05682304
1.036810169
1.015900199
0.9963541751
0.9779664496
0.959438805
0.9412485938
0.923052236
0.9056099763
0.8882433846
0.8709322326
0.8538645998
0.8368199455
0.8197467971
0.8031857036
0.7869556726
0.7709403926
0.7556137478
0.7405144366
0.7258894627
0.7115500959
0.6969900662
0.6826255061
0.6681257143
0.6536638604
0.6395874586
0.625693686
0.6123791417
0.5994182717
0.5865023664
0.5739094656
0.5610336863
0.5480435572
0.535296029
0.5223717047
0.5102625997
0.4982564905
0.4863262862
0.4750152586
0.4630788276
0.4512330652
0.4399734956
0.428891793
0.4182276749
0.4077427476
0.3981918343
0.3877140644
0.3766231003
0.3653155772
0.3550375147
0.3447313402
0.3358060766
0.3276539113
0.3207582775
0.313409702
0.3044051432
0.2942846989
0.285506796
0.2772572919
0.2697742824
0.2630140456
0.2581174542
0.254425454
0.2499388685
0.2439535683
0.2377764865
0.2336611989
0.230785662
0.2295066204
0.2302517914
1.3864855
1.383760896
1.380806026
1.377564077
1.373998652
1.370084053
1.365779949
1.361032244
1.35582951
1.350123082
1.343852895
1.336968577
1.329398848
1.321074198
1.311953965
1.30189498
1.290873675
1.27885945
1.265571667
1.251098175
1.235374471
1.218981447
1.201918584
1.183844139
1.164361941
1.144338133
1.123083384
1.101695786
1.080943698
1.059927201
1.039896019
1.018878181
0.9991140043
0.9806436168
0.9620428258
0.9438592128
0.9256163346
0.9082045287
0.8909475487
0.8737048308
0.8567290533
0.8397638701
0.8226800413
0.8060521192
0.7897278537
0.7735567268
0.7580919512
0.7429075623
0.7282717686
0.7140198579
0.6995801868
0.6853495922
0.6709238384
0.6564438216
0.642287434
0.6282586186
0.6148534018
0.6018776015
0.5890091
0.5765426727
0.5638062058
0.550887197
0.5381636174
0.5251872938
0.5130169287
0.5010513698
0.4891343618
0.4779396184
0.4661065852
0.4542737549
0.4430139458
0.4318828432
0.4211580582
0.4106927527
0.4013614987
0.391170152
0.3802391711
0.3689639739
0.3586969595
0.3482845996
0.3392225027
0.3310096288
0.3242618056
0.3172735194
0.3085731943
0.2985405572
0.2898132232
0.2816023945
0.2741178783
0.2673028427
0.2624029812
0.2588572359
0.2545903105
0.248733558
0.2425662671
0.2384612716
0.2355585663
0.2342698296
0.2350698385
1.390281097
1.387553935
1.384597917
1.381353682
1.377786368
1.373868847
1.369559552
1.364806951
1.359602721
1.35389834
1.347636271
1.340766067
1.333213768
1.324903603
1.315787909
1.305718828
1.294695084
1.282688212
1.269412482
1.254951982
1.239176644
1.222731257
1.205529257
1.187420614
1.167869072
1.147741154
1.126456396
1.105040605
1.084221423
1.063139978
1.043108583
1.02199623
1.002017789
0.9834421035
0.964740274
0.9465400148
0.9282364668
0.9108124972
0.8936523696
0.8764830168
0.8596033531
0.8427484994
0.8256988164
0.809036929
0.7926468493
0.7763229803
0.7606975796
0.7453882156
0.7306945623
0.7164978395
0.7021690157
0.6880922252
0.6737819429
0.6593245689
0.6451131495
0.6309431884
0.6174177419
0.6043921109
0.5915410016
0.5791918894
0.5666113679
0.5537871391
0.5411070533
0.5280889624
0.5158387245
0.5038982706
0.4919814842
0.4808969291
0.4691875553
0.4573865718
0.4461462019
0.4349589528
0.4241546588
0.4136681887
0.4045295863
0.3946376746
0.3838945571
0.3726725285
0.3624426772
0.351937118
0.3427251362
0.3344182809
0.3277809309
0.3211448931
0.3127726894
0.3028419193
0.2941708134
0.2860064533
0.2785267883
0.2716542116
0.2667395352
0.2633314588
0.2592863824
0.2535651809
0.2474100444
0.2433184526
0.2403888166
0.2390906873
0.2399526583
1.394092363
1.391360997
1.388411899
1.38516386
1.381592409
1.377671908
1.373357402
1.368596878
1.363388316
1.357681938
1.351423741
1.344565955
1.337036
1.328752254
1.31965672
1.309589899
1.29857263
1.286583094
1.273329998
1.258895761
1.243094993
1.226571595
1.209262412
1.191096084
1.171480294
1.151233458
1.129915718
1.108473341
1.087595764
1.066459995
1.046445183
1.025257603
1.005081201
0.9863811186
0.9675582924
0.949320473
0.9309339651
0.9134572506
0.8963733042
0.8792589942
0.8624868154
0.8457591698
0.8287793945
0.8121233837
0.7957075715
0.7792486217
0.7634523295
0.7479841722
0.7331830357
0.7189985674
0.7047561778
0.6908396881
0.6766815326
0.6622929936
0.6480636996
0.6337587269
0.6200897219
0.6069783955
0.5941074488
0.5818569754
0.5694412382
0.5567384847
0.5441229303
0.531080603
0.5187366702
0.5068035022
0.494872411
0.4838798117
0.4723190089
0.4605655199
0.4493709675
0.438118009
0.4272335914
0.4166795714
0.4076981206
0.3981118063
0.3875822502
0.37643288
0.3662680931
0.355687604
0.3463165794
0.3378837918
0.3313169183
0.325019417
0.3169973282
0.3071827049
0.2985725618
0.2904620838
0.282993941
0.276061385
0.2711200054
0.2678401212
0.2640179089
0.2584384885
0.2522970498
0.2482214194
0.2452645013
0.2439566254
0.2448881635
1.397945413
1.395210308
1.392263561
1.389010522
1.385434233
1.38150759
1.377191611
1.372418049
1.367200451
1.361486603
1.355225343
1.348370206
1.340861665
1.332611749
1.323545462
1.313493195
1.302491018
1.290525796
1.277304989
1.262931583
1.247127959
1.230535315
1.213129334
1.194886001
1.175209053
1.154830394
1.133471671
1.111998735
1.091064874
1.069886165
1.049895534
1.028657108
1.008310511
0.9894738992
0.9705177772
0.9522273008
0.9337320247
0.9161635447
0.8991300896
0.882045414
0.8653659001
0.848786887
0.8318985548
0.8152881574
0.7988957501
0.7823338694
0.7663710308
0.7507206329
0.7357645866
0.7215422759
0.7073475796
0.6935817739
0.6796027012
0.6653302859
0.6511309949
0.636711111
0.6228847025
0.6096539774
0.5967201559
0.5845407562
0.5722868321
0.5597309276
0.5472091413
0.5341629441
0.5217188744
0.5097717148
0.4978159679
0.4868853482
0.4754926252
0.4638026234
0.4526843588
0.441376119
0.4303913333
0.4197373159
0.4108704707
0.4015884602
0.3912954896
0.3802362011
0.3701652977
0.3595334404
0.349998774
0.3414099434
0.3348715418
0.3288933324
0.3212410904
0.3115572464
0.3030119194
0.2949624116
0.2875128863
0.2805183362
0.2755381205
0.2723762052
0.2687768314
0.2633447742
0.2572178986
0.2531603295
0.2501752102
0.2488564987
0.2498657187
1.401872836
1.399144595
1.396178869
1.392922032
1.389340697
1.385408022
1.381080292
1.376293054
1.37106107
1.365331619
1.35905483
1.352205757
1.344702117
1.336476303
1.327445531
1.31741442
1.306432157
1.294505199
1.281323279
1.267018135
1.251287553
1.234630032
1.217147466
1.198796548
1.179066692
1.158548097
1.137136524
1.115623459
1.094630559
1.073411174
1.05345301
1.032183815
1.011690929
0.9927361834
0.9736335479
0.9552831529
0.9366533567
0.91895556
0.9019444142
0.8848585258
0.8682419852
0.8518232584
0.8350348059
0.8185043145
0.8021892172
0.7855694312
0.7694600759
0.7536179502
0.7384667536
0.7241539793
0.7099561367
0.6963139904
0.6825267403
0.6684136211
0.6542999073
0.6397997995
0.6258146405
0.6124366429
0.5993930822
0.5872479618
0.5751431791
0.5627535904
0.5503587005
0.5373327801
0.5247933857
0.512812479
0.5008159394
0.489921519
0.4786918942
0.4670891203
0.4560777561
0.4447371817
0.4336400557
0.4228460923
0.4140505539
0.4050644883
0.3950280979
0.3840735771
0.3741252945
0.3634707525
0.3537730656
0.3450004355
0.3384471095
0.3327636487
0.3254983481
0.3159603661
0.3074828649
0.2995011361
0.2920778597
0.285019847
0.2799885088
0.2769337169
0.2735562365
0.2682765967
0.2621646227
0.2581268693
0.255112096
0.2537806386
0.2548762173
1.405914067
1.403189093
1.40020352
1.39693426
1.393343863
1.389402115
1.385062663
1.380255241
1.375000413
1.369251494
1.362959507
1.35608375
1.348574013
1.340355941
1.331360325
1.321354532
1.310388389
1.298503512
1.285395973
1.271121081
1.255532329
1.238843983
1.221321983
1.202841646
1.183060287
1.162401896
1.140924101
1.119357894
1.098300948
1.077013665
1.05712275
1.035825197
1.015206668
0.9961681549
0.976912741
0.9585060047
0.9397194326
0.9218555683
0.9048379619
0.8877170397
0.8711268122
0.8548663213
0.8381709842
0.8217448501
0.8055599895
0.788937033
0.7727164135
0.7566894977
0.7413147948
0.7268617968
0.7126016508
0.6990391976
0.6854388168
0.6715184184
0.6575490198
0.6430171213
0.6288867159
0.6153435382
0.6021428594
0.5899852793
0.578008572
0.5657960778
0.5535627468
0.5405822452
0.5279647994
0.5159353144
0.5038748398
0.4929933728
0.4819158283
0.4704113391
0.459538866
0.4482007919
0.4369875563
0.4260150211
0.417243028
0.4085377284
0.3987747231
0.3879363675
0.3781382449
0.3674944629
0.3576402335
0.348658928
0.3420464642
0.3366282202
0.3297639496
0.3203874124
0.3119799366
0.3040725467
0.2966837977
0.2895615264
0.2844667051
0.2815076711
0.2783503226
0.2732277336
0.2671306281
0.2631142218
0.2600678493
0.2587208097
0.2599120626
1.410100775
1.407380628
1.404373121
1.401085807
1.397480503
1.393524215
1.389168597
1.384342279
1.379066692
1.373287557
1.36695868
1.360049364
1.352511153
1.344276215
1.335285635
1.325330495
1.314388893
1.302504385
1.289481688
1.275244223
1.259817167
1.243149181
1.22562433
1.207047689
1.187194462
1.166404548
1.144847387
1.123207583
1.102076461
1.080706614
1.060895999
1.03956652
1.018848291
0.9997581837
0.9803521386
0.9619077692
0.942949789
0.9248830713
0.9078322499
0.8906412597
0.8740361956
0.8579165189
0.8413048003
0.8249851093
0.8089769487
0.7924107764
0.7761272761
0.7599399272
0.7443291405
0.7296946703
0.7153098299
0.7017684605
0.6883304222
0.6746210425
0.6608520821
0.6463480259
0.6321019237
0.618389678
0.604988504
0.5927645021
0.5808826823
0.5688480594
0.5568110189
0.5439091539
0.5312264718
0.5191465759
0.5069958597