/*--------------------------------*- C++ -*----------------------------------*\
| =========                 |                                                 |
| \\      /  F ield         | OpenFOAM: The Open Source CFD Toolbox           |
|  \\    /   O peration     | Version:  v1706                                 |
|   \\  /    A nd           | Web:      www.OpenFOAM.com                      |
|    \\/     M anipulation  |                                                 |
\*---------------------------------------------------------------------------*/
FoamFile
{
    version     2.0;
    format      ascii;
    class       volScalarField;
    location    "0.00953";
    object      p;
}
// * * * * * * * * * * * * * * * * * * * * * * * * * * * * * * * * * * * * * //

dimensions      [1 -1 -2 0 0 0 0];


internalField   nonuniform List<scalar> 
23482
(
7535.989011
7630.834934
7723.320121
7818.546495
7905.127669
7990.417562
8071.151084
8149.249127
8228.588557
8301.693565
8373.251963
8444.152642
8508.498267
8575.860229
8637.53244
8696.982234
8758.204277
8812.169831
8868.148877
8921.605684
8970.904911
9022.517021
9068.644785
9114.505619
9160.933636
9202.523791
9246.019063
9286.403114
9325.444243
9365.136439
9401.330477
9437.793718
9473.112724
9506.011447
9539.843224
9571.331509
9601.936004
9632.926037
9660.829117
9689.417379
9716.463847
9741.826586
9768.407042
9792.154048
9816.900248
9837.414931
9861.927394
9882.450035
9903.605101
9921.826066
9941.420702
9958.533823
9976.129916
9991.372365
10008.0919
10023.26556
10037.96063
10051.00017
10063.99902
10074.98952
10085.51255
10095.09171
10104.53302
10113.12517
10121.24717
10129.27636
10136.14832
10141.81792
10146.05393
10149.89861
10153.52618
10156.13581
10159.30272
6384.918178
6395.567903
6407.966915
6421.343808
6436.395511
6452.781195
6470.976395
6490.65163
6512.762447
6536.990184
6564.177531
6593.999141
6627.308574
6663.620998
6704.260422
6747.551118
6796.529128
6848.155763
6907.007738
6968.322761
7035.84819
7107.411298
7184.293811
7263.536124
7350.876318
7440.694446
7535.362285
7629.057761
7720.690293
7815.22105
7901.412359
7986.351029
8066.067206
8143.503352
8222.279878
8294.943897
8366.090239
8436.393969
8500.396276
8567.278839
8628.602594
8687.821714
8748.659588
8802.406559
8858.155247
8911.367319
8960.544031
9011.961278
9057.906927
9103.65287
9149.888238
9191.399189
9234.796605
9275.055815
9314.120363
9353.719487
9389.862838
9426.354113
9461.617168
9494.519991
9528.349691
9559.839369
9590.477785
9621.557956
9649.435765
9678.078487
9705.238301
9730.586796
9757.248707
9781.045759
9805.923896
9826.426029
9851.059467
9871.729037
9893.105061
9911.369877
9931.069669
9948.257194
9965.916956
9981.179624
9997.923128
10013.2546
10028.1619
10041.43352
10054.6343
10065.74383
10076.36121
10086.02668
10095.54042
10104.19236
10112.37013
10120.55085
10127.61115
10133.43371
10137.78736
10141.72404
10145.43897
10148.11361
10151.40762
6394.089774
6404.669848
6416.919523
6430.196174
6445.070508
6461.303024
6479.276347
6498.753986
6520.576882
6544.546331
6571.386476
6600.912241
6633.860022
6669.914006
6710.221238
6753.385469
6802.006689
6853.458002
6911.781806
6972.512085
7039.443969
7110.256808
7186.307355
7264.854554
7351.320639
7440.278191
7534.241352
7626.772192
7717.504449
7811.245068
7897.046961
7981.691676
8060.358435
8137.084807
8215.258163
8287.48055
8358.212188
8427.881315
8491.544731
8557.915073
8618.879879
8677.871043
8738.302886
8791.834306
8847.333563
8900.295064
8949.347046
9000.550975
9046.313741
9091.933099
9137.961143
9179.394025
9222.680101
9262.815453
9301.901059
9341.394469
9377.483273
9414.004655
9449.207135
9482.111549
9515.934181
9547.4458
9578.105355
9609.305368
9637.099258
9665.867531
9693.098186
9718.422566
9745.192318
9769.0388
9794.042683
9814.548195
9839.282252
9860.108671
9881.686222
9900.067542
9919.865679
9937.124272
9954.867908
9970.15544
9986.91005
10002.39456
10017.51701
10031.04253
10044.47244
10055.72085
10066.44726
10076.21296
10085.81305
10094.53442
10102.76878
10111.10829
10118.37663
10124.37603
10128.85491
10132.8946
10136.7147
10139.46114
10142.89294
6402.758395
6413.272894
6425.378214
6438.558881
6453.266862
6469.352088
6487.116266
6506.399204
6527.941766
6551.64382
6578.128984
6607.328714
6639.885966
6675.634425
6715.579342
6758.577942
6806.857512
6858.156576
6915.999648
6976.196195
7042.531092
7112.571996
7187.796791
7265.680781
7351.22297
7439.279824
7532.574893
7623.931866
7713.72059
7806.571383
7891.97512
7976.397445
8054.001569
8129.972744
8207.507128
8279.290316
8349.611342
8418.612643
8481.941324
8547.770132
8608.361809
8667.124106
8727.131063
8780.446856
8835.677912
8888.385796
8937.308999
8988.284169
9033.864747
9079.344989
9125.152701
9166.503249
9209.66087
9249.670882
9288.762794
9328.148377
9364.178301
9400.724789
9435.86211
9468.760368
9502.583305
9534.128074
9564.795806
9596.095681
9623.805455
9652.738786
9679.979516
9705.305841
9732.196018
9756.087283
9781.213164
9801.733176
9826.549923
9847.535283
9869.317884
9887.836344
9907.743431
9925.084951
9942.923426
9958.241505
9974.994509
9990.622051
10005.95589
10019.7537
10033.43886
10044.84565
10055.6949
10065.57471
10075.27534
10084.07608
10092.36705
10100.87046
10108.3653
10114.56227
10119.18108
10123.33537
10127.27156
10130.10242
10133.68007
6410.900662
6421.353818
6433.320747
6446.407994
6460.961902
6476.907365
6494.478376
6513.574701
6534.851612
6558.286603
6584.418805
6613.272271
6645.416233
6680.813134
6720.357728
6763.139842
6811.071295
6862.22643
6919.62992
6979.348642
7045.089978
7114.326385
7188.713277
7265.972061
7350.540663
7437.644685
7530.310338
7620.504101
7709.311623
7801.190928
7886.170252
7970.451882
8046.996901
8122.165177
8199.024708
8270.371347
8340.290344
8408.594296
8471.590999
8536.854717
8597.057723
8655.589053
8715.155912
8768.25276
8823.19687
8875.649769
8924.437138
8975.170595
9020.569904
9065.897749
9111.475393
9152.73703
9195.749622
9235.630328
9274.712604
9313.987108
9349.950565
9386.515024
9421.581893
9454.474744
9488.304642
9519.864964
9550.54044
9581.900474
9609.570657
9638.63185
9665.879891
9691.220187
9718.231889
9742.161395
9767.404034
9787.947525
9812.827916
9833.970012
9855.954916
9874.626138
9894.660837
9912.092151
9930.035463
9945.389293
9962.129021
9977.884744
9993.418725
10007.50228
10021.46669
10033.04983
10044.03423
10054.04114
10063.85619
10072.74599
10081.09241
10089.76194
10097.49976
10103.91344
10108.68569
10112.96773
10117.03251
10119.95777
10123.68816
6418.480339
6428.899234
6440.740695
6453.735665
6468.146447
6483.958631
6501.351874
6520.272054
6541.301046
6564.476271
6590.263892
6618.75953
6650.471662
6685.472335
6724.56905
6767.072679
6814.625771
6865.626305
6922.621885
6981.92358
7047.086649
7115.486603
7189.012614
7265.690423
7349.251347
7435.346866
7527.423555
7616.519748
7704.231339
7795.154219
7879.620317
7963.855737
8039.358498
8113.671207
8189.82019
8260.732382
8330.263013
8397.84442
8460.509581
8525.191381
8584.988445
8643.285558
8702.402074
8755.273415
8809.91257
8862.110508
8910.751866
8961.233671
9006.45229
9051.61369
9096.954713
9138.117864
9180.971378
9220.717805
9259.773398
9298.93078
9334.820586
9371.39176
9406.391342
9439.262238
9473.11077
9504.660282
9535.343754
9566.736722
9594.392507
9623.548086
9650.807741
9676.158497
9703.296844
9727.254024
9752.604563
9773.175944
9798.099585
9819.390662
9841.567463
9860.41001
9880.586999
9898.11013
9916.169749
9931.564006
9948.279805
9964.144427
9979.859643
9994.236462
10008.50083
10020.27565
10031.40513
10041.5506
10051.49303
10060.48074
10068.87995
10077.7142
10085.70845
10092.35554
10097.29355
10101.71563
10105.9206
10108.94983
10112.83917
6425.466172
6435.899875
6447.633511
6460.537865
6474.812028
6490.493854
6507.720539
6526.474079
6547.272555
6570.19941
6595.655826
6623.79072
6655.059709
6689.625373
6728.225387
6770.382187
6817.511477
6868.328308
6924.941547
6983.893791
7048.512864
7116.054252
7188.687121
7264.820469
7347.349266
7432.355543
7523.977364
7611.968825
7698.662774
7788.297153
7872.29502
7956.624433
8031.138366
8104.508284
8179.913966
8250.390492
8319.552012
8386.389673
8448.720409
8512.811186
8572.183817
8630.242477
8688.904241
8741.540694
8795.85818
8847.80238
8896.284571
8946.507746
8991.545305
9036.525431
9081.626595
9122.678839
9165.362711
9204.969378
9243.98133
9283.015317
9318.822373
9355.391171
9390.322604
9423.147736
9457.026147
9488.535447
9519.225111
9550.637923
9578.287421
9607.512371
9634.777288
9660.136233
9687.403748
9711.377775
9736.82528
9757.424649
9782.369309
9803.795148
9826.146678
9845.174384
9865.506533
9883.123096
9901.308983
9916.747934
9933.43021
9949.379926
9965.249741
9979.920762
9994.501606
10006.4798
10017.76119
10028.05444
10038.13579
10047.22882
10055.67638
10064.6698
10072.92995
10079.82351
10084.93722
10089.5103
10093.8657
10097.00732
10101.0606
6431.97968
6442.382536
6454.000696
6466.811714
6480.949768
6496.500011
6513.566228
6532.160011
6552.743975
6575.436674
6600.581005
6628.36258
6659.189001
6693.292684
6731.354906
6773.095391
6819.744919
6870.328503
6926.571648
6985.240501
7049.367571
7116.043972
7187.746527
7263.364994
7344.864316
7428.836087
7519.884776
7606.871483
7692.384686
7780.79424
7864.289666
7948.741121
8022.326454
8094.699392
8169.341696
8239.369069
8308.188895
8374.265972
8436.254268
8499.752891
8558.681509
8616.496109
8674.705188
8727.09504
8781.075833
8832.76874
8881.076281
8931.0368
8975.891744
9020.67486
9065.53584
9106.461896
9148.969527
9188.43102
9227.383039
9266.287813
9302.001086
9338.558204
9373.410908
9406.176672
9440.085524
9471.529803
9502.220365
9533.648664
9561.287801
9590.559274
9617.825507
9643.181717
9670.580979
9694.560844
9720.093752
9740.718911
9765.662117
9787.201591
9809.702398
9828.924325
9849.423393
9867.132476
9885.45366
9900.941698
9917.58278
9933.589582
9949.579408
9964.538564
9979.447604
9991.636437
10003.07294
10013.52041
10023.75029
10032.95415
10041.44378
10050.58637
10059.11709
10066.26552
10071.56146
10076.29437
10080.80854
10084.06937
10088.29002
6438.075524
6448.3764
6459.856225
6472.56221
6486.560081
6501.973311
6518.880153
6537.31688
6557.699149
6580.172106
6605.027254
6632.472014
6662.868759
6696.497865
6733.993371
6775.252066
6821.358832
6871.640204
6927.505852
6985.946189
7049.646061
7115.470279
7186.203456
7261.344239
7341.87512
7424.73693
7515.101991
7601.308711
7685.465054
7772.681591
7855.656284
7940.205432
8012.893321
8084.270207
8158.168992
8227.693577
8296.213497
8361.516827
8423.146558
8486.060281
8544.524551
8602.087581
8659.852895
8711.982725
8765.613595
8817.05893
8865.174841
8914.871363
8959.540991
9004.110399
9048.73335
9089.51528
9131.843864
9171.155436
9210.032395
9248.803478
9284.411524
9320.946889
9355.702514
9388.403409
9422.33383
9453.69044
9484.377064
9515.825194
9543.437882
9572.73827
9599.999873
9625.336753
9652.869466
9676.844689
9702.451286
9723.099197
9748.020685
9769.646984
9792.2627
9811.682685
9832.358626
9850.156889
9868.621029
9884.163228
9900.758611
9916.791905
9932.859406
9948.093301
9963.337169
9975.739038
9987.329932
9997.934873
10008.32067
10017.63862
10026.16227
10035.43963
10044.2403
10051.6467
10057.12712
10062.02591
10066.70475
10070.08966
10074.47913
6443.669801
6453.876861
6465.215889
6477.802915
6491.655287
6506.922474
6523.66632
6541.943006
6562.130659
6584.394848
6608.983545
6636.113755
6666.104145
6699.261323
6736.17622
6776.897314
6822.396532
6872.291671
6927.750832
6985.999413
7049.345814
7114.352801
7184.071187
7258.769614
7338.513835
7420.0919
7509.592371
7595.181292
7678.030074
7764.099207
7846.346271
7930.952606
8002.941677
8073.375949
8146.312587
8215.392874
8283.65432
8348.209103
8409.435558
8471.780898
8529.759243
8587.06056
8644.398031
8696.253377
8749.522765
8800.725681
8848.632468
8898.066056
8942.546793
8986.884772
9031.273686
9071.891096
9114.040946
9153.199049
9191.986964
9230.621626
9266.114217
9302.615142
9337.251518
9369.889382
9403.821956
9435.07322
9465.750663
9497.23055
9524.790584
9554.108946
9581.35835
9606.652517
9634.320143
9658.28095
9683.949654
9704.617403
9729.501417
9751.184015
9773.871587
9793.48808
9814.348873
9832.230325
9850.84336
9866.445718
9882.994896
9899.023891
9915.120119
9930.608003
9946.188359
9958.800678
9970.541353
9981.303604
9991.850337
10001.28335
10009.83145
10019.22512
10028.2898
10035.95168
10041.614
10046.68147
10051.52806
10055.0397
10059.59726
6448.771463
6458.889411
6470.09408
6482.552982
6496.255714
6511.366796
6527.940601
6546.048752
6566.04166
6588.101604
6612.442248
6639.28166
6668.896289
6701.598766
6737.936033
6778.078313
6822.908762
6872.323011
6927.323645
6985.392552
7048.466154
7112.724428
7181.388094
7255.68684
7334.750712
7414.789751
7503.458752
7588.559095
7670.119763
7755.090226
7836.489158
7920.930606
7992.580834
8061.973282
8133.821323
8202.502369
8270.616556
8334.351254
8395.160197
8456.965015
8514.432645
8571.459168
8628.391607
8679.957652
8732.855275
8783.822492
8831.50313
8880.676994
8924.964872
8969.052715
9013.212795
9053.64308
9095.616412
9134.619049
9173.303349
9211.804745
9247.173133
9283.622179
9318.123084
9350.694298
9384.602027
9415.739535
9446.401474
9477.931356
9505.40451
9534.737272
9561.965098
9587.187015
9614.990586
9638.928243
9664.647577
9685.33293
9710.170248
9731.87725
9754.585714
9774.39175
9795.443503
9813.399607
9832.165274
9847.834864
9864.341686
9880.337756
9896.409079
9912.123183
9928.03725
9940.852737
9952.735038
9963.651082
9974.361482
9983.908298
9992.470215
10001.95832
10011.27613
10019.18559
10025.02232
10030.25778
10035.27219
10038.91089
10043.63347
6453.390551
6463.425897
6474.503947
6486.832613
6500.38473
6515.332193
6531.728091
6549.655822
6569.446934
6591.29895
6615.401771
6641.970572
6671.24265
6703.519629
6739.299881
6778.841856
6822.953021
6871.787344
6926.253499
6984.119956
7046.995418
7110.632409
7178.232864
7252.118215
7330.360903
7409.119117
7496.7307
7581.400004
7661.749754
7745.714071
7825.982094
7910.329082
7981.788957
8050.02266
8120.863608
8189.176936
8257.079297
8319.948895
8380.349422
8441.680228
8498.591387
8555.326349
8611.883118
8663.145424
8715.661608
8766.401544
8813.84036
8862.759699
8906.850943
8950.669095
8994.606215
9034.824933
9076.624258
9115.470094
9154.032259
9192.419177
9227.65196
9264.030463
9298.38957
9330.868901
9364.734519
9395.74654
9426.390452
9457.994455
9485.340856
9514.692034
9541.887541
9567.001747
9594.941974
9618.848895
9644.607247
9665.308862
9690.098374
9711.79897
9734.470648
9754.453988
9775.701195
9793.721169
9812.640521
9828.385521
9844.858229
9860.796906
9876.787332
9892.693439
9908.934924
9921.942198
9933.955073
9945.018283
9955.892995
9965.550429
9974.115016
9983.673164
9993.228994
10001.37347
10007.37245
10012.77185
10017.95118
10021.71494
10026.59717
6457.531715
6467.493025
6478.45493
6490.657979
6504.063677
6518.845811
6535.058795
6552.794694
6572.372611
6594.005253
6617.869891
6644.179672
6673.138895
6705.026096
6740.285156
6779.228254
6822.588858
6870.751239
6924.589752
6982.187548
7044.895228
7108.054124
7174.755094
7248.005692
7325.451247
7403.047772
7489.533244
7573.692207
7652.908362
7735.995212
7815.030803
7899.006986
7970.622884
8037.653605
8107.454866
8175.430545
8243.069162
8305.058418
8365.088466
8425.936675
8482.27948
8538.703119
8594.919141
8645.86442
8697.989172
8748.511982
8795.695367
8844.367331
8888.259005
8931.787353
8975.507646
9015.489023
9057.115722
9095.802236
9134.225653
9172.525043
9207.611075
9243.893493
9278.119669
9310.472641
9344.277831
9375.149425
9405.779672
9437.484119
9464.660309
9494.041914
9521.193038
9546.15911
9574.236337
9598.106077
9623.891218
9644.60852
9669.358327
9691.025123
9713.597112
9733.740412
9755.186335
9773.257624
9792.328562
9808.158139
9824.6092
9840.471667
9856.325303
9872.38336
9888.943602
9902.127981
9914.258339
9925.459389
9936.497328
9946.260705
9954.816901
9964.419184
9974.194667
9982.557914
9988.702989
9994.259309
9999.59792
10003.48265
10008.51704
6461.194402
6471.091412
6481.950052
6494.037405
6507.306919
6521.929764
6537.961344
6555.499196
6574.852952
6596.250394
6619.866384
6645.917016
6674.58372
6706.116224
6740.898897
6779.265275
6821.867536
6869.285355
6922.404012
6979.636405
7042.152169
7105.053914
7170.844097
7243.326721
7320.139074
7396.621918
7481.941348
7565.497626
7643.564639
7725.961558
7803.645765
7887.125479
7959.033499
8024.898258
8093.718652
8161.254303
8228.599139
8289.728556
8349.432875
8409.765051
8465.543893
8521.628313
8577.542373
8628.159373
8679.881207
8730.198715
8777.115631
8825.549347
8869.239985
8912.45833
8955.967955
8995.685328
9037.138465
9075.662686
9113.932906
9152.173652
9187.094725
9223.272492
9257.375623
9289.564339
9323.285243
9354.00582
9384.627391
9416.460031
9443.422233
9472.853621
9499.945661
9524.720003
9552.934467
9576.761554
9602.559871
9623.292645
9648.020655
9669.631745
9692.037612
9712.318491
9733.965634
9752.074477
9771.291349
9787.215343
9803.66117
9819.435195
9835.098679
9851.263296
9868.132494
9881.476858
9893.710506
9905.037889
9916.23666
9926.100286
9934.637688
9944.257689
9954.232279
9962.795671
9969.067561
9974.771414
9980.261425
9984.26121
9989.438415
6464.377073
6474.218858
6484.98686
6496.970851
6510.119023
6524.596206
6540.456394
6557.799065
6576.923709
6598.071452
6621.422051
6647.201791
6675.583371
6706.789563
6741.142991
6778.970133
6820.826739
6867.448534
6919.767047
6976.536913
7038.795701
7101.464292
7166.818082
7238.104976
7314.290568
7389.872324
7474.007841
7556.717017
7633.880958
7715.647683
7791.852648
7874.756015
7947.042247
8011.78141
8079.687911
8146.689759
8213.616481
8274.094103
8333.423546
8393.198005
8448.43455
8504.138658
8559.791222
8610.071557
8661.376168
8711.501656
8758.143923
8806.350496
8849.840686
8892.72938
8936.034598
8975.460927
9016.735843
9055.093745
9093.196978
9131.40906
9166.150546
9202.227681
9236.2089
9268.196397
9301.805562
9332.368143
9363.001317
9394.969204
9421.674464
9451.192258
9478.204082
9502.74238
9531.09441
9554.874111
9580.669527
9601.417326
9626.151347
9647.692003
9669.863674
9690.254604
9712.105251
9730.237298
9749.590569
9765.618977
9782.079604
9797.759904
9813.184673
9829.40549
9846.573831
9860.059437
9872.382009
9883.822566
9895.178889
9905.136527
9913.645856
9923.257562
9933.409578
9942.153409
9948.530704
9954.37109
9960.002933
9964.110475
9969.419661
6467.083232
6476.875923
6487.562654
6499.453854
6512.496183
6526.846263
6542.55289
6559.713706
6578.614596
6599.50576
6622.574144
6648.062663
6676.152156
6707.049101
6741.018024
6778.356405
6819.4993
6865.291734
6916.730838
6972.935008
7034.889465
7097.279979
7162.522563
7232.521825
7307.941273
7382.8118
7465.748984
7547.510116
7623.804766
7705.060205
7779.681957
7861.96652
7934.660885
7998.329114
8065.426027
8131.759175
8198.188664
8258.160364
8317.085518
8376.267167
8430.999099
8486.268425
8541.700231
8591.638603
8642.507549
8692.455376
8738.817751
8786.810157
8830.103037
8872.643709
8915.751204
8954.859713
8995.947172
9034.133526
9072.055318
9110.270703
9144.823825
9180.803566
9214.670076
9246.417265
9279.893308
9310.291965
9340.964208
9373.026517
9399.48229
9429.107807
9456.015785
9480.278339
9508.770748
9532.498983
9558.271366
9579.032231
9603.810171
9625.274102
9647.143785
9667.61177
9689.668559
9707.809474
9727.285493
9743.427798
9759.926532
9775.514607
9790.658926
9806.880887
9824.33944
9837.946637
9850.344408
9861.883808
9873.3939
9883.439188
9891.912634
9901.491173
9911.798694
9920.703408
9927.163523
9933.128593
9938.891651
9943.098702
9948.52793
6469.326788
6479.071374
6489.68123
6501.484854
6514.432008
6528.673297
6544.248792
6561.249834
6579.943999
6600.584382
6623.361074
6648.535202
6676.311563
6706.899746
6740.520039
6777.430834
6817.915364
6862.87393
6913.36066
6968.867321
7030.507374
7092.580781
7157.859686
7226.591818
7301.150654
7375.454791
7457.179689
7537.93673
7613.383864
7694.197478
7767.160199
7848.812968
7921.909051
7984.558407
8050.970109
8116.379817
8182.452683
8242.026645
8300.338272
8359.056771
8413.281392
8468.046516
8523.302652
8572.894385
8623.304053
8673.089088
8719.169201
8766.961944
8810.063611
8852.239895
8895.157304
8933.922193
8974.807836
9012.815928
9050.539423
9088.791049
9123.152197
9159.040626
9192.804254
9224.276909
9257.602521
9287.837934
9318.528205
9350.651942
9376.922744
9406.62251
9433.435291
9457.381347
9486.0119
9509.687251
9535.410434
9556.181306
9581.048482
9602.439573
9623.941964
9644.448078
9666.714587
9684.850605
9704.431451
9720.695911
9737.258921
9752.762471
9767.593107
9783.756762
9801.498048
9815.206876
9827.667406
9839.290535
9850.950411
9861.077196
9869.508608
9879.030804
9889.472355
9898.519584
9905.039569
9911.11732
9917.00054
9921.298357
9926.834968
6471.136132
6480.826889
6491.356829
6503.072357
6515.925781
6530.070023
6545.535139
6562.403216
6580.916892
6601.327076
6623.817208
6648.660224
6676.092482
6706.351074
6739.639948
6776.185508
6816.08747
6860.249918
6909.75373
6964.415908
7025.690928
7087.347338
7152.799455
7220.324942
7293.98224
7367.814741
7448.326758
7528.041064
7602.658542
7683.058902
7754.31077
7835.347712
7908.806073
7970.484089
8036.334143
8100.667313
8166.384652
8225.676939
8283.278926
8341.554822
8395.319386
8449.496944
8504.626651
8553.869474
8603.790086
8653.4269
8699.225081
8746.833574
8789.753404
8831.551507
8874.288098
8912.685385
8953.349775
8991.171369
9028.675896
9066.996861
9101.166346
9136.971489
9170.650853
9201.820032
9234.976083
9265.041966
9295.707623
9327.889346
9354.032369
9383.770113
9410.50466
9434.099781
9462.874232
9486.488294
9512.12712
9532.893773
9557.915218
9579.243213
9600.316793
9620.81575
9643.297063
9661.415494
9681.078909
9697.471878
9714.127696
9729.55972
9744.053226
9760.095205
9778.113363
9791.904058
9804.416658
9816.107897
9827.913563
9838.116136
9846.501083
9855.945815
9866.500835
9875.67418
9882.231328
9888.410179
9894.402617
9898.782375
9904.41333
6472.558312
6482.179286
6492.621945
6504.240058
6516.992791
6531.033048
6546.401957
6563.162872
6581.525902
6601.738618
6623.965856
6648.479299
6675.538186
6705.424523
6738.371277
6774.601515
6814.00334
6857.442529
6906.003831
6959.688702
7020.409666
7081.638105
7147.317732
7213.715978
7286.493767
7359.904341
7439.212491
7517.860462
7591.673221
7671.646708
7741.147657
7821.620034
7895.375014
7956.115625
8021.528972
8084.657345
8150.029266
8209.122871
8265.915438
8323.783787
8377.169458
8430.671192
8485.659563
8534.591005
8583.986516
8633.488224
8679.00731
8726.446951
8769.197873
8810.606825
8853.174202
8891.182637
8931.601845
8969.227224
9006.486839
9044.909306
9078.890827
9114.622586
9148.243669
9179.084056
9212.045437
9241.933131
9272.534896
9304.774155
9330.833637
9360.583996
9387.254249
9410.47838
9439.410047
9462.944312
9488.442228
9509.192021
9534.466868
9555.730655
9576.32097
9596.7608
9619.463949
9637.553611
9657.273045
9673.798406
9690.577279
9705.955001
9720.098532
9735.952329
9754.242839
9768.09633
9780.652341
9792.395729
9804.34326
9814.616504
9822.952216
9832.300621
9842.949726
9852.235303
9858.807537
9865.076741
9871.167994
9875.621166
9881.333332
6473.667392
6483.212164
6493.485462
6505.000569
6517.657074
6531.581571
6546.851712
6563.517508
6581.7558
6601.807275
6623.812755
6648.01837
6674.701576
6704.165318
6736.719511
6772.658848
6811.637214
6854.43353
6902.139511
6954.811331
7014.634896
7075.567279
7141.385567
7206.754831
7278.738476
7351.736725
7429.858042
7507.425835
7580.463035
7659.978858
7727.669808
7807.667853
7881.628252
7941.473618
8006.573077
8068.376122
8133.415915
8192.380563
8248.264131
8305.835573
8358.787136
8411.58645
8466.4229
8515.087437
8563.911372
8613.288245
8658.53343
8705.818462
8748.417211
8789.428632
8831.84138
8869.44342
8909.59018
8947.008437
8983.990779
9022.544817
9056.344486
9092.013428
9125.610567
9156.102253
9188.842285
9218.531991
9249.033064
9281.338137
9307.349279
9337.092461
9363.719603
9386.559262
9415.650051
9439.086695
9464.365727
9485.136668
9510.723294
9531.933047
9552.001323
9572.32328
9595.257352
9613.308921
9633.053732
9649.712439
9666.645531
9681.989275
9695.780908
9711.378064
9729.937022
9743.835478
9756.428388
9768.207691
9780.293212
9790.632664
9798.917878
9808.153428
9818.878526
9828.265279
9834.831332
9841.181229
9847.361769
9851.880446
9857.660809
6474.50372
6483.935194
6494.030857
6505.432063
6517.965161
6531.770017
6546.876381
6563.465453
6581.592534
6601.510267
6623.342539
6647.33405
6673.622391
6702.601042
6734.713413
6770.342587
6808.9595
6851.217363
6898.197356
6949.79368
7008.585471
7069.1057
7134.972781
7199.407802
7270.764549
7343.323383
7420.282148
7496.760372
7569.045388
7648.060542
7713.907778
7793.503782
7867.555003
7926.613657
7991.477803
8051.843807
8116.569795
8175.464328
8230.34618
8287.693178
8340.263325
8392.23249
8446.917055
8495.386806
8543.58062
8592.838477
8637.817143
8684.959459
8727.426859
8768.034129
8810.31026
8847.492996
8887.338344
8924.537874
8961.203374
8999.915933
9033.541586
9069.157081
9102.772767
9132.897742
9165.394629
9194.864348
9225.223267
9257.604752
9283.595708
9313.326583
9339.921695
9362.393979
9391.603494
9414.942068
9439.934023
9460.752176
9486.699492
9507.87567
9527.397232
9547.537318
9570.71363
9588.71995
9608.455824
9625.245523
9642.363973
9657.69609
9671.144631
9686.416338
9705.239326
9719.166829
9731.792249
9743.590958
9755.810515
9766.212371
9774.447116
9783.555618
9794.339907
9803.819752
9810.359178
9816.781298
9823.042689
9827.619883
9833.455692
6475.12386
6484.309608
6494.370324
6505.599302
6517.964409
6531.600199
6546.570824
6563.038725
6581.047238
6600.864317
6622.600395
6646.297794
6672.286605
6700.817128
6732.422099
6767.675119
6805.997392
6847.781065
6894.151897
6944.740389
7002.252581
7062.316058
7128.026629
7191.683026
7262.606588
7334.674294
7410.501646
7485.884607
7557.386648
7635.913697
7699.932006
7779.115088
7853.218381
7911.521944
7976.250838
8035.07624
8099.503435
8158.388237
8212.184529
8269.37027
8321.611855
8372.609715
8427.161289
8475.514721
8523.008828
8572.147302
8616.868812
8663.876855
8706.238164
8746.435021
8788.596088
8825.352032
8864.867302
8901.836538
8938.138141
8977.032132
9010.492893
9046.060584
9079.742776
9109.48827
9141.733412
9170.957566
9201.114564
9233.59526
9259.590866
9289.305412
9315.880635
9338.005624
9367.296128
9390.532216
9415.170188
9436.047938
9462.422516
9483.573618
9502.54644
9522.431667
9545.863519
9563.819983
9583.509642
9600.424315
9617.758195
9633.102118
9646.226386
9661.105484
9680.186096
9694.129493
9706.785029
9718.586308
9730.935658
9741.396725
9749.582053
9758.551593
9769.379527
9778.947366
9785.440416
9791.927453
9798.262481
9802.892415
9808.771263
6475.547481
6484.471024
6494.487911
6505.559514
6517.739971
6531.176718
6545.957951
6562.287234
6580.183996
6599.842457
6621.385196
6644.961309
6670.695984
6698.859264
6729.914119
6764.74076
6802.792081
6844.128047
6889.787293
6939.710084
6995.746455
7055.24181
7120.513889
7183.633705
7254.271479
7325.797108
7400.526348
7474.844832
7545.552137
7623.507482
7685.757257
7764.529639
7838.592248
7896.201046
7960.902854
8018.086062
8082.220398
8141.165424
8193.796436
8250.869809
8302.840658
8352.703816
8407.20394
8455.485679
8502.209691
8551.220531
8595.695906
8642.573775
8684.859061
8724.637829
8766.708579
8803.036146
8842.19513
8878.9235
8914.807027
8953.900559
8987.206804
9022.726183
9056.525871
9085.89228
9117.880179
9146.835916
9176.717858
9209.338743
9235.333466
9265.027668
9291.617019
9313.415188
9342.756115
9365.874045
9390.099227
9411.038061
9437.893619
9459.044881
9477.479712
9497.030833
9520.732532
9538.637301
9558.241569
9575.271139
9592.84837
9608.227848
9621.05547
9635.478713
9654.806875
9668.756817
9681.441865
9693.228475
9705.702798
9716.220415
9724.358095
9733.178975
9744.03621
9753.689868
9760.117286
9766.662945
9773.06567
9777.744094
9783.653949
6475.75692
6484.441023
6494.409495
6505.342538
6517.349151
6530.586938
6545.160541
6561.277876
6578.940722
6598.427603
6619.834674
6643.26255
6668.814739
6696.72198
6727.401622
6761.56402
6799.129817
6840.274347
6885.190231
6934.628701
6989.110153
7047.927723
7112.563274
7175.205533
7245.738887
7316.699767
7390.375295
7463.638242
7533.566716
7610.849042
7671.417266
7749.745258
7823.68731
7880.633362
7945.455121
8000.883936
8064.707966
8123.814625
8175.19773
8232.192639
8283.948717
8332.563715
8387.01902
8435.315902
8481.197175
8530.061832
8574.303406
8621.050174
8663.294687
8702.644451
8744.65194
8780.555494
8819.33649
8855.815535
8891.220852
8930.526631
8963.690184
8999.152065
9033.123095
9062.123696
9093.84942
9122.520586
9152.049287
9184.842785
9210.825676
9240.493845
9267.158041
9288.632707
9317.992512
9340.978784
9364.748039
9385.739532
9413.114845
9434.295824
9452.222475
9471.355404
9495.341241
9513.19545
9532.674692
9549.804562
9567.649818
9583.08837
9595.654074
9609.564542
9629.12479
9643.07697
9655.79245
9667.546659
9680.140193
9690.712136
9698.804309
9707.468992
9718.342372
9728.082493
9734.425251
9741.023996
9747.48973
9752.2143
9758.143503
6475.687469
6484.193089
6494.124961
6504.951851
6516.811858
6529.871094
6544.231428
6559.935462
6577.450787
6596.725596
6617.947995
6641.226663
6666.632519
6694.375045
6724.796944
6758.192908
6795.180769
6836.038255
6880.457458
6929.462626
6982.353422
7040.417548
7104.236911
7166.411675
7236.973728
7307.403484
7380.084542
7452.237634
7521.441092
7597.937214
7656.94612
7734.755017
7808.519311
7864.857746
7929.860115
7983.485113
8046.975388
8106.318249
8156.400656
8213.335079
8264.937405
8312.201
8366.607993
8415.015785
8459.985277
8508.672944
8552.694175
8599.303363
8641.54776
8680.452903
8722.425128
8757.914464
8796.301838
8832.526477
8867.38946
8906.914527
8939.949334
8975.333167
9009.530424
9038.188753
9069.65281
9098.028037
9127.112479
9160.112008
9186.082628
9215.707009
9242.523239
9263.65592
9293.01141
9315.847576
9339.161429
9360.158329
9388.080575
9409.329072
9426.793481
9445.422864
9469.705423
9487.513459
9506.829431
9524.039936
9542.173574
9557.694195
9570.037621
9583.387102
9603.157022
9617.11355
9629.861625
9641.565116
9654.270731
9664.895084
9672.943882
9681.44696
9692.324573
9702.154515
9708.39352
9715.040209
9721.565401
9726.336181
9732.273429
6475.252954