/*--------------------------------*- C++ -*----------------------------------*\
| =========                 |                                                 |
| \\      /  F ield         | OpenFOAM: The Open Source CFD Toolbox           |
|  \\    /   O peration     | Version:  v1706                                 |
|   \\  /    A nd           | Web:      www.OpenFOAM.com                      |
|    \\/     M anipulation  |                                                 |
\*---------------------------------------------------------------------------*/
FoamFile
{
    version     2.0;
    format      ascii;
    class       volScalarField;
    location    "0.00953";
    object      rho;
}
// * * * * * * * * * * * * * * * * * * * * * * * * * * * * * * * * * * * * * //

dimensions      [1 -3 0 0 0 0 0];


internalField   nonuniform List<scalar> 
23482
(
0.0007780192804
0.0007835630523
0.0007890525276
0.0007943411885
0.0007994988488
0.0008043078179
0.0008087490126
0.0008132611891
0.0008176155469
0.000821969169
0.0008259544334
0.0008297829239
0.0008335619621
0.0008371581824
0.0008409062109
0.0008443729555
0.0008477436527
0.0008513015771
0.0008545403962
0.0008578595484
0.0008611222267
0.0008641877715
0.0008673578568
0.0008702368549
0.0008731642902
0.0008763312674
0.0008793597272
0.0008824348141
0.0008853510007
0.0008881262682
0.0008911722619
0.0008941620194
0.0008970741648
0.0008998886671
0.000902517824
0.0009052897828
0.0009080306006
0.0009107574308
0.0009134487006
0.0009159450143
0.0009184413869
0.0009208886688
0.0009234574457
0.0009262383758
0.000928997923
0.0009313455749
0.0009338575422
0.0009365885939
0.000939109548
0.0009410451961
0.0009428579258
0.0009447756598
0.0009466760615
0.0009484632612
0.0009504960168
0.0009528235725
0.0009552366428
0.0009573848968
0.0009593429805
0.0009611526328
0.0009626625955
0.000963853094
0.0009650159034
0.0009663144764
0.0009677395884
0.0009693119851
0.0009709511799
0.0009724821959
0.0009736379136
0.0009743441673
0.0009748480293
0.0009751831187
0.0009754587416
0.0006951828253
0.0006959725779
0.0006968388381
0.0006977605965
0.0006988016364
0.0006999291456
0.0007012078655
0.0007026321258
0.0007042228144
0.0007059573161
0.0007078946593
0.0007100027869
0.0007123611838
0.0007149288013
0.0007177817838
0.0007209264428
0.0007244517033
0.000728090301
0.0007323220076
0.0007366150509
0.000741459696
0.0007461909368
0.0007510743988
0.0007562741995
0.0007615479789
0.0007667605193
0.0007721217586
0.0007773551728
0.0007825738911
0.0007875720312
0.000792514049
0.000797094914
0.0008012669997
0.0008055653387
0.0008096925699
0.0008138735977
0.0008176718155
0.0008212945783
0.0008249287151
0.0008283385247
0.0008319603594
0.0008353065755
0.0008385310684
0.0008420222631
0.0008451578934
0.0008483992174
0.0008516132741
0.0008545920944
0.0008577226397
0.0008605388685
0.0008633965261
0.0008665499276
0.0008695380308
0.0008726044174
0.0008755222811
0.000878280229
0.0008813703781
0.000884401322
0.0008873557806
0.0008902284182
0.0008928901192
0.0008957323401
0.0008985479858
0.0009013504558
0.0009041328068
0.0009066960071
0.0009092707107
0.000911784756
0.0009144184938
0.0009173119058
0.0009201830898
0.0009226376525
0.0009252755115
0.0009282284335
0.0009309631661
0.0009330529769
0.0009349777695
0.000937021429
0.0009390053859
0.0009408548177
0.0009429563639
0.0009454339093
0.00094805116
0.0009504260733
0.0009526120635
0.0009546530375
0.0009563433686
0.000957656145
0.0009589163113
0.0009603227106
0.0009618637595
0.0009635852169
0.0009654251371
0.0009671830439
0.0009685389614
0.000969375161
0.0009699685924
0.0009703587046
0.0009706592324
0.0006917788098
0.0006925449106
0.0006933747897
0.0006942619893
0.0006952585759
0.0006963411321
0.0006975676016
0.0006989424506
0.0007004713425
0.000702142694
0.0007040040936
0.0007060351712
0.000708305316
0.000710787586
0.0007135411116
0.0007166069791
0.0007200254385
0.0007235624071
0.0007276592096
0.0007318046798
0.000736505029
0.0007410466352
0.0007457109672
0.0007507106699
0.0007557228372
0.0007606511766
0.000765723667
0.0007706381991
0.0007755764875
0.0007802730619
0.0007849887568
0.0007893367435
0.0007932309098
0.0007973046849
0.0008011965494
0.0008051965534
0.0008088017357
0.000812211583
0.0008156932001
0.0008189090981
0.0008223933369
0.000825609577
0.0008286788605
0.0008320908904
0.0008351144077
0.0008382691991
0.0008414253728
0.0008443109996
0.0008473938933
0.0008501400907
0.0008529195944
0.0008560458632
0.0008589795724
0.0008620218787
0.0008649258206
0.0008676523907
0.0008707711971
0.0008738298219
0.0008768146377
0.0008797341568
0.0008824185769
0.0008853215473
0.0008881997665
0.0008910702017
0.0008939313543
0.0008965614444
0.0008992067078
0.0009017812904
0.0009044726476
0.0009074650219
0.0009104300654
0.0009129749888
0.0009157224247
0.0009188905733
0.0009218407721
0.0009241010396
0.0009261497608
0.0009283300503
0.0009304029212
0.0009323107841
0.0009344679171
0.0009370814194
0.0009398931916
0.0009424966343
0.0009449238337
0.0009472159234
0.0009491059337
0.0009505561101
0.0009519246867
0.0009534469644
0.0009551071033
0.0009569806671
0.0009590321269
0.0009610365255
0.0009626141728
0.0009635979953
0.0009642950062
0.0009647482436
0.0009650766417
0.0006880539602
0.000688795322
0.0006895877812
0.0006904390316
0.0006913902195
0.0006924261579
0.0006935990044
0.0006949216712
0.0006963861779
0.000697989957
0.0006997708382
0.0007017179466
0.0007038925179
0.0007062797764
0.0007089250292
0.0007119007926
0.0007152049144
0.0007186322849
0.0007225868033
0.0007265775238
0.0007311213949
0.0007354629786
0.0007399022617
0.0007446983936
0.0007494435265
0.0007540816428
0.0007588616283
0.0007634506015
0.0007681022306
0.0007724919725
0.0007769740292
0.0007810883144
0.0007846990487
0.0007885397257
0.0007921911586
0.0007960037139
0.0007994125842
0.0008026055082
0.000805929129
0.0008089469825
0.0008122838515
0.0008153621126
0.0008182690931
0.0008215891518
0.000824492118
0.0008275515929
0.0008306398862
0.0008334266133
0.0008364537287
0.0008391236276
0.0008418181549
0.0008449037534
0.0008477697044
0.0008507720347
0.0008536447312
0.0008563255674
0.000859454468
0.0008625239021
0.0008655244308
0.0008684765706
0.0008711731363
0.0008741236416
0.0008770486375
0.0008799719423
0.000882899516
0.0008855903004
0.0008882942843
0.0008909238596
0.0008936631205
0.0008967379139
0.0008997758574
0.0009023893989
0.0009052234564
0.0009085889792
0.0009117484038
0.0009141852089
0.0009163683252
0.0009186947751
0.0009208604409
0.0009228223636
0.0009250198923
0.0009277492684
0.0009307366106
0.0009335608879
0.0009362348051
0.0009387914692
0.0009408965336
0.0009424972879
0.0009439839484
0.000945628144
0.0009474074332
0.0009494315837
0.00095170008
0.0009539656524
0.0009557840871
0.0009569320307
0.0009577455673
0.0009582701513
0.0009586290447
0.0006840298986
0.0006847454635
0.0006854999675
0.0006863141107
0.0006872194881
0.0006882077504
0.0006893263655
0.000690595024
0.0006919937229
0.0006935269495
0.000695224282
0.0006970821739
0.0006991552894
0.0007014390134
0.0007039676576
0.0007068420647
0.0007100234631
0.0007133328828
0.0007171377205
0.0007209671905
0.0007253426825
0.0007294727432
0.0007336790299
0.000738268025
0.0007427436574
0.0007470913258
0.0007515817448
0.0007558423046
0.0007602013663
0.0007642874
0.0007685319366
0.0007724173108
0.0007757422588
0.0007793426005
0.0007827513423
0.0007863720243
0.0007895836818
0.0007925584894
0.0007957208616
0.0007985399868
0.0008017220876
0.0008046564727
0.0008073965549
0.0008106123466
0.0008133872689
0.0008163429172
0.0008193528903
0.0008220356985
0.0008249989326
0.000827587292
0.0008301918439
0.0008332242129
0.0008360108472
0.000838957976
0.0008417824528
0.0008444030403
0.0008475213331
0.0008505824961
0.0008535819071
0.0008565509123
0.0008592478344
0.0008622285181
0.0008651830247
0.0008681398507
0.0008711204952
0.0008738567256
0.000876608947
0.000879284735
0.0008820604084
0.0008851991451
0.000888287029
0.0008909441256
0.0008938362948
0.0008973708
0.0009007222132
0.0009033334311
0.0009056577526
0.0009081360396
0.0009103971422
0.000912408357
0.0009146301242
0.0009174502264
0.0009205851357
0.0009236120709
0.0009265286877
0.0009293549207
0.0009316846573
0.000933445917
0.0009350580477
0.0009368274165
0.0009387222464
0.0009408901279
0.0009433744536
0.0009459092166
0.0009479825656
0.0009493087245
0.0009502503873
0.0009508534676
0.0009512450753
0.0006797329942
0.0006804209943
0.0006811376036
0.0006819136907
0.0006827731406
0.0006837130493
0.0006847772769
0.0006859908392
0.0006873231679
0.0006887841462
0.0006903962223
0.0006921613111
0.0006941285225
0.0006963015919
0.0006987059901
0.0007014684187
0.0007045183558
0.000707701472
0.0007113497471
0.0007150129025
0.0007192097745
0.0007231176965
0.0007270820373
0.0007314585048
0.0007356626621
0.0007397237444
0.0007439381908
0.000747879385
0.0007519274987
0.0007557275975
0.0007597289094
0.0007633994345
0.0007664405178
0.0007697929117
0.0007729594056
0.0007763858873
0.0007794017443
0.0007821595889
0.0007851594239
0.0007877823289
0.0007908048854
0.0007935919158
0.0007961633607
0.0007992639418
0.0008019047959
0.0008047488866
0.0008076701524
0.0008102447572
0.0008131361295
0.000815638629
0.0008181499492
0.0008211179375
0.0008238161821
0.000826694654
0.0008294554541
0.0008320021173
0.0008350885997
0.0008381211444
0.0008411018041
0.0008440692026
0.0008467544483
0.0008497463864
0.0008527120518
0.0008556822867
0.0008586980181
0.0008614620741
0.0008642495896
0.0008669595974
0.000869759931
0.0008729430257
0.0008760573434
0.0008787314924
0.0008816497862
0.0008853158918
0.0008888312337
0.0008916062412
0.0008940726352
0.0008967035752
0.000899061286
0.0009011168838
0.0009033468573
0.0009062290303
0.0009094757128
0.0009126767551
0.0009158215003
0.0009189121965
0.000921468839
0.0009233960285
0.0009251378451
0.0009270321838
0.0009290349273
0.0009313339366
0.0009340251242
0.0009368287021
0.0009391643351
0.0009406788261
0.0009417576623
0.000942444864
0.0009428708339
0.0006751914645
0.000675850381
0.0006765291513
0.0006772665551
0.0006780799484
0.0006789709758
0.0006799807924
0.0006811386227
0.0006824045943
0.0006837926739
0.0006853190086
0.0006869893893
0.0006888479893
0.000690905167
0.0006931792529
0.000695820462
0.0006987310972
0.000701780297
0.0007052666902
0.0007087606761
0.0007127716495
0.0007164496142
0.0007201638869
0.0007243199981
0.0007282472252
0.0007320204782
0.0007359909759
0.0007396348537
0.000743358337
0.0007468648733
0.0007506271709
0.0007541123972
0.000756882209
0.0007599736692
0.0007629013261
0.0007661329218
0.000768956892
0.0007715007247
0.0007743381581
0.000776770017
0.0007796308813
0.0007822695573
0.0007846735421
0.0007876499945
0.0007901526237
0.0007928787092
0.0007957015041
0.0007981644329
0.0008009762267
0.0008033893007
0.0008058056532
0.0008086997491
0.0008113032718
0.000814102092
0.0008167862654
0.0008192473585
0.0008222815975
0.0008252655595
0.0008282090471
0.0008311552238
0.0008338166044
0.000836800678
0.0008397590532
0.0008427231755
0.0008457531124
0.0008485262238
0.0008513328634
0.0008540633907
0.0008568761615
0.0008600840805
0.0008632023889
0.00086586778
0.0008687792495
0.0008725332472
0.0008761752078
0.0008790942851
0.0008816969599
0.0008844760758
0.0008869294624
0.0008890246041
0.0008912479645
0.0008941619586
0.0008974790024
0.0009008164832
0.0009041642161
0.0009075033552
0.0009102806288
0.0009123736428
0.0009142454585
0.0009162606495
0.0009183596442
0.0009207715172
0.0009236523589
0.0009267147297
0.0009293116391
0.0009310192526
0.0009322407114
0.000933015456
0.0009334766169
0.0006704355012
0.0006710649672
0.0006717049372
0.0006724030563
0.0006731701152
0.0006740118011
0.0006749671992
0.0006760689315
0.000677268997
0.0006785844061
0.0006800257288
0.0006816012316
0.0006833505426
0.0006852888628
0.0006874287872
0.0006899413664
0.0006927063241
0.0006956150233
0.0006989358945
0.0007022600022
0.000706080953
0.0007095247427
0.0007129838302
0.0007169128322
0.0007205573541
0.000724044464
0.0007277946428
0.0007311685196
0.0007345817222
0.0007377461972
0.0007412928521
0.0007446239164
0.0007471522942
0.0007499668502
0.0007526639211
0.0007556995987
0.0007583388206
0.0007606732766
0.0007633490055
0.0007655968945
0.0007682962322
0.0007707878182
0.0007730282387
0.0007758740685
0.0007782363893
0.000780839719
0.0007835554774
0.0007859042134
0.0007886291975
0.0007909498743
0.0007932707028
0.0007960830344
0.0007985881514
0.0008012991002
0.0008038967661
0.000806263434
0.0008092270562
0.0008121438789
0.000815031641
0.0008179379003
0.0008205627734
0.0008235209402
0.0008264543972
0.0008293942909
0.0008324166471
0.0008351795391
0.0008379877536
0.0008407231257
0.0008435360309
0.0008467499999
0.000849852181
0.0008524856647
0.0008553591002
0.0008591543297
0.0008628788079
0.0008659141164
0.0008686404402
0.0008715574526
0.0008741031739
0.0008762332475
0.0008784373693
0.0008813534127
0.0008846965936
0.0008881260407
0.0008916421676
0.0008952030646
0.0008981858049
0.0009004384016
0.0009024361756
0.0009045640518
0.0009067439706
0.0009092454424
0.000912290779
0.0009155918104
0.0009184395831
0.0009203387153
0.0009217037587
0.000922566695
0.0009230628485
0.0006654980465
0.0006660971155
0.0006666973086
0.0006673551962
0.0006680756094
0.0006688675053
0.0006697684436
0.0006708137779
0.0006719485822
0.0006731920881
0.0006745500261
0.0006760319212
0.000677673107
0.0006794918303
0.0006814960267
0.0006838745511
0.0006864889949
0.0006892517544
0.0006924051427
0.0006955608859
0.0006991908912
0.0007023994615
0.0007056015348
0.0007093027755
0.0007126681687
0.0007158824078
0.0007193938542
0.000722524022
0.0007256587706
0.0007284524797
0.0007318081086
0.0007349873195
0.000737311095
0.0007398483772
0.0007423330855
0.0007451668546
0.0007476328971
0.0007497652254
0.0007522791765
0.0007543513382
0.0007568910495
0.0007592386705
0.0007613217527
0.0007640330081
0.0007662549949
0.0007687327536
0.0007713345702
0.0007735677025
0.000776199412
0.000778425218
0.0007806508099
0.0007833750112
0.0007857803195
0.0007883979179
0.0007909024082
0.0007931689793
0.0007960467421
0.000798880306
0.0008016948285
0.0008045439749
0.0008071197218
0.000810035353
0.0008129280829
0.0008158280067
0.0008188215608
0.0008215558809
0.0008243475092
0.0008270709061
0.0008298716686
0.0008330741957
0.0008361431821
0.0008387256443
0.0008415339469
0.000845324418
0.0008490837437
0.0008522011862
0.0008550321155
0.0008580710872
0.0008607031411
0.0008628638226
0.0008650389841
0.0008679297717
0.0008712551349
0.0008747283431
0.0008783709796
0.0008821176523
0.0008852823025
0.0008876820535
0.0008897973186
0.0008920259047
0.0008942685074
0.000896832523
0.0009000103692
0.0009035203413
0.0009065989674
0.0009086810682
0.0009101856123
0.0009111342399
0.0009116640167
0.0006604115325
0.000660978629
0.0006615393022
0.0006621560571
0.0006628297182
0.0006635713989
0.0006644177849
0.0006654063086
0.0006664763999
0.0006676488903
0.000668925477
0.0006703159814
0.0006718516211
0.0006735519881
0.0006754210447
0.000677662139
0.0006801227176
0.0006827351
0.0006857204206
0.000688711706
0.0006921540649
0.0006951293864
0.0006980731829
0.000701553819
0.0007046617048
0.0007076095115
0.000710839835
0.0007137458159
0.0007166392854
0.0007190809612
0.0007222535576
0.0007252519151
0.0007274045183
0.0007296966802
0.0007319737528
0.0007346067608
0.0007369149387
0.0007388602728
0.0007412084653
0.0007431140575
0.0007454968348
0.0007477049522
0.0007496387592
0.0007522139062
0.0007542973894
0.0007566487357
0.0007591316452
0.0007612489865
0.0007637820149
0.0007659109628
0.0007680421711
0.0007706731795
0.0007729790382
0.0007755002472
0.0007779078538
0.000780071816
0.0007828522407
0.0007855895242
0.0007883154894
0.0007910924354
0.0007936067317
0.0007964651114
0.0007993034327
0.0008021505433
0.0008050958891
0.0008077854011
0.0008105428202
0.0008132369468
0.0008160135334
0.0008191886767
0.000822210687
0.000824727717
0.0008274495601
0.0008311932083
0.0008349396149
0.0008381013464
0.0008410125643
0.0008441525175
0.0008468621591
0.0008490493519
0.000851189047
0.0008540313453
0.0008572981423
0.0008607665627
0.0008644894498
0.0008683789458
0.0008716949096
0.0008742237496
0.0008764439505
0.0008787580692
0.0008810432577
0.0008836406027
0.0008869140185
0.0008905951573
0.0008938758069
0.0008961254908
0.0008977603085
0.0008987888816
0.0008993496968
0.0006552067954
0.0006557413695
0.0006562633532
0.0006568386959
0.0006574658813
0.0006581571668
0.000658948974
0.000659880194
0.0006608859022
0.0006619881027
0.0006631853451
0.0006644871023
0.0006659206769
0.0006675055189
0.0006692419477
0.0006713442898
0.0006736490847
0.0006761072664
0.0006789241687
0.0006817562806
0.0006850199641
0.0006877701521
0.0006904528952
0.0006937222323
0.0006966133757
0.0006992636157
0.0007022009087
0.0007048907845
0.0007075800292
0.0007097120688
0.0007126995338
0.0007154699699
0.000717490795
0.0007195846606
0.0007216251034
0.0007240810595
0.0007262545248
0.0007280296031
0.000730206734
0.000731956985
0.0007341848691
0.0007362587502
0.0007380526571
0.0007404922863
0.0007424406245
0.0007446665438
0.0007470275822
0.000749030199
0.0007514604471
0.000753491099
0.0007555291755
0.0007580630396
0.0007602710064
0.0007626947691
0.0007650041353
0.000767066038
0.0007697414889
0.0007723728399
0.0007749984015
0.0007776899032
0.0007801312529
0.0007829199818
0.0007856923651
0.0007884768421
0.0007913572051
0.0007939886461
0.0007966957927
0.000799343722
0.0008020845346
0.000805218008
0.0008081823596
0.0008106242521
0.000813244891
0.0008169060326
0.000820594849
0.0008237620378
0.000826725619
0.0008299415984
0.0008327174283
0.0008349271164
0.0008370279736
0.0008398036215
0.0008429766958
0.0008463946518
0.0008501503923
0.0008541357363
0.0008575673953
0.0008602027016
0.0008625119066
0.0008648940729
0.0008672011062
0.0008698022362
0.0008731317005
0.0008769405499
0.0008803872665
0.0008827831281
0.0008845342674
0.0008856340216
0.0008862221481
0.0006499131932
0.000650415724
0.0006509002597
0.0006514347775
0.0006520163256
0.0006526576075
0.0006533951417
0.0006542687417
0.0006552102947
0.0006562427138
0.0006573623328
0.0006585779752
0.0006599133414
0.0006613865752
0.0006629944683
0.0006649587776
0.0006671075226
0.0006694083676
0.0006720555688
0.0006747322417
0.0006778298492
0.0006803752995
0.000682800388
0.0006858543799
0.0006885537469
0.0006908858438
0.0006935506936
0.0006960253997
0.0006985308165
0.0007004014437
0.0007031980538
0.0007057162393
0.0007076262506
0.0007095573881
0.000711340422
0.0007136521543
0.0007157103285
0.0007173215919
0.0007193305172
0.0007209440423
0.0007230155271
0.0007249607532
0.0007266249334
0.0007289313827
0.0007307490876
0.0007328521194
0.0007350901866
0.0007369803118
0.0007393051306
0.0007412366936
0.0007431832352
0.0007456169885
0.0007477293103
0.0007500559889
0.0007522672978
0.0007542307563
0.0007567968606
0.0007593162401
0.000761833569
0.0007644277297
0.0007667868672
0.0007694950523
0.0007721923
0.0007749071917
0.0007777088044
0.0007802723348
0.0007829155455
0.0007855015059
0.0007881956373
0.0007912747948
0.0007941734335
0.000796534671
0.0007990459298
0.0008025967009
0.0008061888594
0.0008093243151
0.0008123106654
0.0008155750992
0.0008184033287
0.0008206313723
0.0008226927571
0.0008253890129
0.0008284403602
0.000831767657
0.0008355108065
0.0008395441249
0.0008430532188
0.0008457692583
0.0008481491331
0.000850580604
0.0008528893061
0.0008554661186
0.0008588120631
0.0008627023554
0.000866274433
0.0008687904632
0.0008706401412
0.0008717998265
0.0008724105824
0.0006445577212
0.0006450292635
0.0006454781214
0.0006459732403
0.000646510714
0.0006471032193
0.0006477874485
0.000648603682
0.0006494815407
0.0006504446823
0.0006514881268
0.0006526200576
0.0006538610452
0.0006552271351
0.0006567116312
0.000658540388
0.0006605346697
0.0006626765259
0.0006651524144
0.0006676736654
0.0006706132029
0.0006729809059
0.0006751824011
0.0006779951518
0.0006804868751
0.0006825425162
0.0006849483455
0.0006872092806
0.000689529241
0.0006911856763
0.0006937858754
0.0006960648596
0.0006978606838
0.0006996471689
0.0007011872623
0.0007033801369
0.0007053240192
0.0007067712963
0.0007086260741
0.000710125403
0.000712038115
0.0007138604087
0.0007154053247
0.0007175822809
0.0007192746569
0.000721258571
0.0007233741542
0.0007251549833
0.0007273731759
0.0007292055741
0.0007310625487
0.0007333941643
0.0007354134173
0.0007376442492
0.0007397590139
0.0007416294576
0.0007440847313
0.0007464890194
0.000748894599
0.0007513820928
0.0007536514759
0.0007562698043
0.0007588849637
0.0007615255903
0.0007642376585
0.0007667269376
0.0007692954482
0.0007718055517
0.0007744430777
0.0007774568509
0.0007802837403
0.0007825621497
0.0007849617569
0.0007883825341
0.0007918461753
0.0007949165144
0.0007978963234
0.0008011805252
0.000804045395
0.0008062873001
0.0008083107144
0.0008109200269
0.000813829453
0.0008170331113
0.0008207227382
0.0008247581312
0.0008283061567
0.0008310756801
0.0008335065787
0.0008359684089
0.0008382602135
0.0008407875332
0.000844112679
0.0008480382813
0.000851692963
0.0008543003502
0.0008562281913
0.0008574348315
0.0008580628534
0.0006391642942
0.0006396062418
0.0006400215956
0.0006404793916
0.0006409750765
0.0006415209408
0.0006421537223
0.0006429137615
0.0006437290377
0.0006446237993
0.0006455925305
0.0006466430221
0.0006477933483
0.0006490570173
0.0006504238225
0.0006521206683
0.0006539634635
0.0006559464561
0.0006582511169
0.0006606162593
0.000663397819
0.000665608134
0.0006676277336
0.0006701994067
0.0006724464631
0.0006742855703
0.0006764407729
0.0006784937547
0.0006806028191
0.000682099193
0.0006844977804
0.0006865579949
0.0006882456352
0.0006898914084
0.00069121717
0.0006933034488
0.0006951289194
0.0006964131982
0.000698134757
0.000699532331
0.0007012914584
0.0007029966069
0.0007044325553
0.0007064846688
0.0007080574975
0.0007099269885
0.0007119218341
0.0007135972413
0.0007157089153
0.0007174427871
0.0007192125818
0.0007214409788
0.0007233698756
0.0007255067178
0.0007275272756
0.0007293108745
0.0007316555677
0.0007339454907
0.000736238842
0.0007386133875
0.000740787157
0.0007433084531
0.0007458361344
0.0007483995696
0.000751014052
0.0007534259171
0.0007559119294
0.0007583347765
0.0007609070926
0.0007638459315
0.0007665964282
0.000768792208
0.0007710827136
0.0007743616903
0.0007776728404
0.0007806499897
0.0007835959694
0.000786871616
0.0007897559357
0.0007920066387
0.0007939950277
0.0007965143873
0.0007992693598
0.0008023244005
0.0008059258756
0.0008099217207
0.000813472049
0.0008162678186
0.0008187298448
0.000821203817
0.0008234625348
0.0008259191531
0.0008291903688
0.0008331079053
0.00083680301
0.0008394720507
0.000841456474
0.0008426962374
0.0008433358019
0.0006337540068
0.0006341678247
0.0006345519223
0.0006349747692
0.0006354314225
0.000635933511
0.0006365175654
0.0006372236117
0.0006379783366
0.0006388063597
0.0006397021995
0.0006406736566
0.0006417371241
0.0006429035019
0.0006441589523
0.0006457285007
0.0006474234471
0.0006492481636
0.0006513827462
0.0006535945145
0.0006562215061
0.000658278894
0.0006601403438
0.0006625056873
0.0006644881935
0.0006661435864
0.0006680631162
0.0006699125843
0.0006717909007
0.0006731729011
0.0006753675795
0.0006772244644
0.0006788189511
0.0006803266854
0.0006814654622
0.000683441742
0.0006851436907
0.0006862858363
0.0006878931003
0.0006891844108
0.00069080473
0.0006923986
0.000693735477
0.0006956679582
0.0006971272318
0.0006988876771
0.0007007644899
0.0007023387241
0.000704345028
0.0007059816188
0.0007076670559
0.000709792122
0.0007116334307
0.0007136785496
0.0007156076055
0.000717310724
0.0007195467812
0.0007217257862
0.0007239083716
0.0007261668165
0.0007282411085
0.0007306603454
0.0007330974238
0.0007355806657
0.0007380918312
0.0007404263548
0.000742824643
0.0007451517358
0.0007476518817
0.000750507739
0.0007531780457
0.0007552928268
0.000757480338
0.0007606125111
0.0007637549546
0.0007666169363
0.0007695051883
0.0007727456453
0.0007756314135
0.0007778851101
0.0007798421734
0.0007822722216
0.0007848671166
0.0007877564974
0.0007912424505
0.0007951629677
0.0007986824845
0.0008014785717
0.0008039524895
0.0008064218279
0.0008086340936
0.0008110033116
0.0008141928302
0.0008180636907
0.0008217598359
0.0008244616913
0.0008264812505
0.0008277403058
0.0008283856496
0.0006283459982
0.0006287329181
0.0006290877369
0.0006294778557
0.0006298982372
0.0006303597369
0.0006308983639
0.0006315534488
0.0006322505469
0.0006330143161
0.0006338395913
0.0006347346226
0.0006357151653
0.0006367899794
0.0006379415594
0.0006393902686
0.00064094234
0.000642609157
0.0006445722528
0.0006466320817
0.0006491147739
0.0006510274292
0.0006527443619
0.0006549263486
0.0006566519117
0.0006581385244
0.0006598362225
0.0006614854409
0.000663143922
0.0006644296183
0.0006664232736
0.0006680907621
0.0006696034256
0.0006709792026
0.0006719570134
0.0006738144696
0.0006753747956
0.0006764189211
0.0006779293291
0.0006790975315
0.0006805984892
0.0006820869091
0.0006833344981
0.0006851525829
0.0006865042787
0.0006881615684
0.0006899237949
0.0006914012263
0.0006933040295
0.0006948449829
0.0006964492509
0.000698471827
0.0007002284026
0.0007021844292
0.0007040248014
0.0007056537116
0.0007077842194
0.0007098568504
0.0007119324014
0.0007140741223
0.0007160476851
0.0007183618766
0.000720706798
0.0007231049631
0.0007255118371
0.00072776958
0.0007300773718
0.0007323034294
0.0007347264867
0.0007374928666
0.0007400796041
0.0007421156177
0.000744208582
0.0007471944214
0.000750158969
0.0007528900183
0.000755700956
0.0007588823607
0.0007617514196
0.000764001474
0.0007659310478
0.0007682751051
0.0007707100859
0.0007734239955
0.0007767745159
0.0007805905857
0.0007840507742
0.0007868235275
0.0007892914519
0.0007917412862
0.0007938966976
0.0007961664051
0.0007992523796
0.0008030439854
0.0008067062014
0.0008094143011
0.0008114488124
0.0008127140652
0.0008133596692
0.0006229585346
0.0006233192179
0.0006236462205
0.0006240053377
0.0006243916855
0.0006248155102
0.0006253121381
0.0006259197292
0.00062656275
0.0006272654716
0.0006280229485
0.000628844128
0.0006297453022
0.0006307343666
0.0006317906811
0.0006331277937
0.0006345453489
0.0006360571267
0.0006378451343
0.0006397465133
0.0006420933658
0.0006438827916
0.0006454678529
0.0006474741053
0.0006489603207
0.0006502906907
0.000651778597
0.0006532328025
0.0006546942764
0.0006558860262
0.0006576857558
0.0006591784865
0.0006606142457
0.0006618651168
0.000662707055
0.0006644358796
0.0006658426674
0.000666824149
0.0006682504365
0.0006692905985
0.0006706862646
0.0006720738569
0.000673243263
0.0006749513102
0.0006762012174
0.0006777616412
0.0006794133545
0.0006807983247
0.0006825999173
0.0006840470035
0.0006855734832
0.0006874952566
0.0006891700977
0.0006910400723
0.0006927945806
0.0006943552205
0.0006963838375
0.0006983552994
0.0007003289983
0.0007023557581
0.0007042296326
0.0007064381875
0.0007086877145
0.0007109974423
0.0007133033299
0.0007154824961
0.0007177009752
0.0007198233027
0.0007221661054
0.0007248382676
0.0007273381935
0.0007292977416
0.0007313057375
0.00073414982
0.0007369332207
0.0007395233678
0.0007422421866
0.0007453442406
0.000748178926
0.0007504178777
0.0007523234247
0.0007545865604
0.0007568663079
0.0007594010611
0.0007626033038
0.0007662926374
0.0007696701226
0.000772398789
0.0007748446407
0.0007772622252
0.0007793532289
0.0007815156206
0.0007844821032
0.0007881684461
0.0007917671164
0.0007944581134
0.0007964894817
0.0007977491254
0.0007983899292
0.0006176101272
0.0006179443596
0.00061824406
0.0006185733075
0.0006189270509
0.0006193152782
0.0006197727511
0.0006203363025
0.0006209290325
0.0006215744537
0.000622267337
0.0006230170785
0.0006238412853
0.0006247490943
0.0006257185692
0.0006269555129
0.000628251101
0.00062961684
0.0006312309717
0.0006329635657
0.0006351723826
0.0006368537665
0.0006383255161
0.0006401639516
0.0006414302199
0.0006426168212
0.000643907853
0.0006451750586
0.000646457535
0.0006475530878
0.0006491684752
0.0006505046039
0.0006518625141
0.0006529939711
0.0006537225932
0.0006553127846
0.000656577105
0.0006575043374
0.0006588487217
0.0006597784224
0.0006610765626
0.0006623641776
0.0006634696713
0.0006650704759
0.0006662240883
0.0006676942511
0.0006692401194
0.000670536914
0.0006722397984
0.0006735946446
0.0006750466447
0.0006768699276
0.0006784662026
0.0006802536693
0.0006819251806
0.0006834231109
0.0006853536719
0.0006872292244
0.0006891071153
0.0006910223846
0.0006927992046
0.0006949031095
0.0006970544049
0.0006992748791
0.0007014828636
0.0007035821808
0.0007057142026
0.0007077326894
0.000709994672
0.0007125691514
0.0007149789758
0.0007168635133
0.0007187971754
0.0007215065507
0.0007241101971
0.0007265544788
0.0007291712222
0.0007321776823
0.0007349614287
0.0007371811053
0.0007390653298
0.0007412535455
0.0007433860088
0.0007457427729
0.0007487901622
0.0007523369803
0.0007556136264
0.000758280655
0.0007606903931
0.0007630651254
0.0007650867295
0.0007671377806
0.0007699742754
0.0007735358514
0.0007770470382
0.0007797013126
0.0007817140285
0.0007829578892
0.0007835894298
0.0006123200428
0.0006126268458
0.00061289906
0.0006131982128
0.0006135198408
0.0006138732898
0.0006142931877
0.0006148155072
0.0006153615034
0.0006159536454
0.0006165857024
0.0006172667586
0.0006180153112
0.0006188434495
0.0006197319503
0.0006208801431
0.0006220686744
0.0006233033067
0.0006247558309
0.0006263156061
0.0006283711191
0.0006299392186
0.0006313243879
0.0006330057424
0.0006340750711
0.0006351286968
0.0006362368083
0.0006373273866
0.0006384446047
0.0006394379507
0.0006408766041
0.0006420813127
0.0006433578865
0.000644369777
0.0006450087076
0.0006464529433
0.0006475920247
0.0006484619073
0.0006497198984
0.0006505594993
0.0006517761455
0.0006529594835
0.0006540128323
0.0006555109997
0.0006565735789
0.0006579603203
0.0006594056226
0.0006606185475
0.0006622253707
0.0006634892646
0.0006648697181
0.0006665971137
0.0006681180899
0.000669827155
0.0006714187059
0.0006728592146
0.0006746955889
0.0006764801623
0.0006782685473
0.0006800766841
0.0006817600287
0.0006837620214
0.0006858143149
0.0006879455802
0.0006900581163
0.0006920771695
0.0006941259092
0.0006960428646
0.0006982258613
0.0007007004348
0.000703016253
0.0007048270876
0.0007066982246
0.0007092803363
0.0007117091206
0.0007140065774
0.0007165158674
0.0007194147534