/*--------------------------------*- C++ -*----------------------------------*\
| =========                 |                                                 |
| \\      /  F ield         | OpenFOAM: The Open Source CFD Toolbox           |
|  \\    /   O peration     | Version:  v1706                                 |
|   \\  /    A nd           | Web:      www.OpenFOAM.com                      |
|    \\/     M anipulation  |                                                 |
\*---------------------------------------------------------------------------*/
FoamFile
{
    version     2.0;
    format      ascii;
    class       volScalarField;
    location    "0.00953";
    object      Tt;
}
// * * * * * * * * * * * * * * * * * * * * * * * * * * * * * * * * * * * * * //

dimensions      [0 0 0 1 0 0 0];


internalField   nonuniform List<scalar> 
23482
(
33610.1742
33792.39525
33964.01212
34153.86105
34309.30431
34472.12465
34629.20967
34770.29808
34921.83635
35045.48196
35177.01125
35311.19771
35418.96717
35546.02436
35642.07647
35740.04825
35848.53317
35918.67328
36009.84434
36086.74421
36148.66979
36227.67473
36279.80472
36342.6433
36405.30194
36438.41752
36484.55714
36516.21578
36548.95075
36589.8189
36605.68391
36624.78875
36642.5106
36654.76309
36678.05661
36686.443
36692.65935
36700.8708
36698.73584
36707.0199
36709.43158
36707.44288
36705.21119
36683.97027
36667.43252
36651.43649
36643.9293
36613.11074
36592.99238
36584.91024
36586.68514
36575.27272
36566.34625
36553.20803
36536.07161
36502.07981
36463.25048
36428.69175
36401.35498
36372.4964
36353.37556
36342.95945
36333.11582
36315.14338
36290.78729
36260.65995
36224.00204
36187.20297
36159.34506
36146.82701
36141.05627
36137.92329
36138.97767
31869.64079
31886.57347
31908.67563
31933.04618
31960.21384
31989.96222
32021.6645
32053.92111
32090.46524
32130.70508
32176.03671
32226.24461
32281.80514
32342.11085
32410.02081
32477.01415
32553.56913
32636.92628
32727.19041
32825.28734
32926.81912
33050.82806
33191.12651
33326.49822
33493.66808
33672.44049
33864.07462
34054.32501
34233.52682
34432.76099
34595.42132
34766.36005
34930.55178
35077.7214
35236.51656
35365.30105
35502.94526
35643.37034
35755.56273
35888.5497
35988.08187
36089.91559
36202.88882
36274.27286
36368.57643
36447.26567
36510.08319
36591.59264
36643.91329
36708.45149
36772.77114
36805.17646
36851.87757
36882.46942
36914.37412
36954.90596
36967.63475
36984.11526
36998.86959
37007.7282
37028.87663
37033.36767
37035.6384
37040.13697
37033.14177
37038.06615
37036.8351
37031.18164
37025.69681
36998.92679
36977.2949
36956.0275
36943.04925
36902.79197
36874.06265
36859.39879
36856.62891
36839.89197
36827.3142
36811.21268
36790.7858
36750.64373
36703.74927
36660.48801
36624.44641
36586.52663
36560.38355
36545.28721
36531.68736
36509.44849
36480.45628
36444.74278
36400.662
36355.39129
36320.09269
36302.85393
36293.93333
36288.90643
36289.44645
32072.4651
32089.99664
32112.8915
32138.21122
32166.37974
32197.26087
32230.0566
32263.35634
32301.04063
32342.6076
32389.38424
32441.31794
32498.75086
32561.26485
32631.62527
32701.02548
32780.0854
32866.5885
32959.67007
33060.9219
33165.26763
33293.58897
33439.21887
33579.57551
33753.87872
33940.98947
34141.95018
34340.85537
34528.13495
34737.17658
34907.77359
35087.58634
35259.45476
35413.21799
35579.7598
35714.24564
35858.50541
36005.60384
36122.74341
36262.11598
36365.71338
36471.97961
36589.94025
36663.13463
36760.99785
36841.87818
36905.96898
36990.27117
37043.0879
37109.628
37175.95054
37208.13017
37255.90997
37285.98232
37317.60126
37358.27464
37368.28008
37382.50611
37394.56144
37400.24716
37419.47186
37420.28007
37418.79705
37419.75507
37407.87413
37409.47787
37404.50746
37395.16247
37386.58892
37354.4896
37328.1329
37302.01551
37283.82285
37233.92089
37195.98066
37174.02315
37165.96718
37143.18818
37126.61059
37107.53347
37084.08854
37037.99953
36983.02673
36930.66519
36885.11948
36837.07045
36802.93041
36782.43246
36764.54456
36737.58631
36703.64578
36662.02622
36609.90072
36555.2063
36511.44028
36488.70948
36476.08106
36468.82282
36468.75218
32289.80942
32308.02407
32331.80905
32358.18871
32387.48759
32419.64003
32453.69027
32488.20502
32527.22362
32570.31596
32618.75729
32672.63763
32732.19565
32797.19041
32870.32826
32942.51228
33024.5597
33114.7544
33211.29446
33316.36361
33424.13267
33557.27799
33708.72314
33854.52794
34036.2378
34232.08822
34443.06025
34651.25202
34847.02795
35066.08059
35245.20747
35434.59812
35614.71311
35775.5549
35950.26896
36090.99738
36242.33299
36396.46942
36519.03368
36665.16481
36773.3808
36884.62348
37008.05126
37083.67692
37185.55213
37269.08103
37334.88848
37422.28452
37475.93949
37544.76885
37613.411
37645.86874
37695.24862
37725.40758
37757.356
37798.74677
37806.6039
37819.08925
37828.84845
37831.70246
37849.31962
37846.78401
37841.89629
37839.60646
37823.0392
37821.48433
37812.76512
37799.80003
37788.34555
37751.22176
37720.65748
37690.31418
37667.44236
37608.0614
37560.64075
37530.81071
37516.77934
37487.27332
37466.32919
37444.27363
37418.16274
37366.53053
37303.76384
37242.1945
37186.55037
37127.43954
37084.38541
37057.77446
37035.07088
37002.9706
36963.84287
36916.11523
36855.44751
36790.46021
36737.23263
36708.22622
36691.30609
36681.47089
36680.68796
32521.07021
32540.05652
32564.81629
32592.35386
32622.90113
32656.45158
32691.90677
32727.80056
32768.34005
32813.14944
32863.46719
32919.50473
32981.42431
33049.14843
33125.35574
33200.66993
33286.15202
33380.56369
33481.21177
33590.79313
33702.6598
33841.18661
33998.98269
34150.77241
34340.07181
34544.79339
34766.22353
34984.31476
35189.07262
35418.08481
35606.15644
35805.67063
35994.59158
36162.98468
36346.21913
36493.69364
36652.52274
36813.99449
36942.39967
37095.57341
37208.9025
37325.61621
37454.94256
37533.64247
37639.98707
37726.66313
37794.68336
37885.48929
37940.36077
38011.75047
38082.99631
38116.23268
38167.70896
38198.57839
38231.51066
38274.25188
38280.67106
38292.06653
38300.06339
38300.55705
38316.95954
38311.51018
38303.70857
38298.59391
38277.76917
38273.31025
38261.00397
38244.57101
38230.48389
38188.72867
38154.5819
38120.8021
38094.04266
38025.75208
37968.95998
37930.92599
37910.33914
37873.48647
37847.8122
37822.77589
37794.40628
37737.82248
37667.86393
37597.32651
37531.27194
37460.3847
37407.62252
37374.23949
37346.22558
37308.61754
37264.1614
37210.27454
37140.74461
37064.74582
37001.14891
36965.11108
36943.32297
36930.56672
36928.9708
32765.3439
32785.34664
32811.17809
32839.9608
32871.8603
32906.91981
32943.91418
32981.33775
33023.56996
33070.27504
33122.66448
33181.05182
33245.54243
33316.20873
33395.72355
33474.46033
33563.75674
33662.85362
33768.22991
33883.01739
33999.68527
34144.16385
34308.8923
34467.36331
34664.52493
34878.07769
35109.96253
35338.31817
35552.83308
35791.53266
35988.81154
36198.65355
36396.85063
36573.3181
36765.33665
36920.00803
37086.70132
37255.75055
37390.35085
37550.76326
37669.61987
37792.22773
37927.81499
38010.21787
38121.47131
38211.81295
38282.5786
38377.12519
38433.62611
38507.834
38581.93378
38616.42648
38670.44604
38702.62911
38737.19396
38781.93283
38787.72312
38798.78829
38805.6842
38804.39025
38820.04149
38812.18911
38802.06327
38794.67758
38770.18625
38763.22702
38747.64823
38727.99212
38711.57024
38665.64189
38628.59812
38592.27605
38562.62677
38486.38722
38420.74952
38374.50094
38346.9485
38302.24648
38271.50332
38243.47832
38213.28032
38152.492
38076.25213
37997.36646
37920.93708
37837.85595
37774.78344
37734.0695
37700.31642
37656.91939
37607.11234
37547.19305
37468.70799
37381.19838
37306.47857
37262.72717
37235.53392
37219.53609
37217.0345
33021.63438
33043.00853
33070.03811
33100.14627
33133.48589
33170.14727
33208.7949
33247.88143
33291.95851
33340.71997
33395.35571
33456.26377
33523.50564
33597.28808
33680.29153
33762.67558
33856.07999
33960.2393
34070.89999
34191.55707
34313.73127
34464.69692
34636.90741
34802.88742
35008.43631
35230.93042
35472.83161
35710.87563
35936.6795
36184.39748
36391.33157
36611.17312
36818.80406
37004.02719
37204.99346
37367.2593
37542.12176
37718.94752
37860.04656
38027.81861
38152.527
38281.36673
38423.49522
38510.18241
38626.74373
38721.26386
38795.32139
38893.94874
38952.5216
39029.79749
39106.97266
39143.1655
39200.11088
39234.15864
39270.95836
39318.31373
39324.32975
39335.90046
39342.45066
39340.03371
39355.45311
39345.76805
39333.96881
39324.96182
39297.51847
39288.59968
39270.20317
39247.68193
39229.26814
39179.67289
39140.43155
39102.49717
39071.08588
38988.19325
38914.65181
38860.53924
38825.84457
38772.96212
38736.85858
38705.82782
38674.21972
38610.07918
38528.7356
38442.50108
38356.12219
38260.7915
38187.06143
38138.60632
38098.78458
38049.42729
37994.38011
37928.7492
37841.48201
37742.24489
37655.87026
37603.84833
37570.7897
37551.27603
37547.79168
33289.59618
33312.16109
33340.44053
33371.93615
33406.78593
33445.12391
33485.51876
33526.38303
33572.43724
33623.39717
33680.43462
33744.0151
33814.16473
33891.20488
33977.8301
34064.01804
34161.72912
34271.2083
34387.59892
34514.71537
34643.08237
34801.01772
34981.13845
35155.4273
35370.0838
35602.16471
35852.80987
36100.18777
36336.38705
36596.35381
36812.09681
37040.96037
37257.35869
37452.3889
37662.2992
37832.55148
38015.78298
38200.53607
38348.41187
38523.61227
38654.40819
38789.72676
38938.59092
39030.07043
39152.28021
39251.46129
39329.3452
39432.39251
39493.49972
39574.08976
39654.54129
39692.83991
39753.02531
39789.41652
39828.97535
39879.49846
39886.58526
39899.52459
39906.53799
39903.74585
39919.49006
39908.58685
39895.79003
39885.86068
39856.25607
39846.02051
39825.39465
39800.47209
39780.45943
39727.73468
39686.96854
39648.32027
39616.31536
39528.3073
39448.17314
39386.92155
39345.18836
39284.00925
39242.32894
39208.26652
39175.62175
39109.02496
39023.95066
38931.70774
38836.20364
38728.96841
38644.53757
38588.12224
38542.03214
38486.67295
38426.63462
38355.80779
38260.21838
38149.3681
38051.08816
37990.41356
37951.14423
37927.9106
37923.3901
33568.36188
33591.83228
33621.33985
33654.2606
33690.67365
33730.74638
33772.96434
33815.70367
33863.84853
33917.13157
33976.7095
34043.09913
34116.29602
34196.71285
34287.05806
34377.15094
34479.27957
34594.20847
34716.62377
34850.65546
34985.84902
35151.21212
35339.53725
35522.72167
35747.0739
35988.21007
36248.41506
36505.38613
36750.10379
37024.61213
37248.27134
37486.31573
37710.25404
37915.68982
38134.20934
38312.93708
38504.57936
38697.2979
38852.25077
39034.92181
39171.9687
39313.92514
39469.63792
39566.32832
39694.45743
39798.73098
39880.93901
39988.73061
40052.84019
40136.98819
40220.90537
40261.6785
40325.35472
40364.48835
40407.23434
40461.38058
40470.3238
40485.46994
40493.76781
40491.40272
40508.0553
40496.57275
40483.4533
40473.3089
40442.35599
40431.50826
40409.3406
40382.57936
40361.41296
40306.1164
40264.44196
40225.88994
40194.41097
40102.95025
40017.81722
39950.50068
39902.13647
39832.79174
39785.42028
39748.29593
39714.91694
39646.73981
39559.40984
39462.76555
39359.33165
39240.94279
39146.09818
39081.72551
39029.32006
38968.0578
38903.40897
38828.08039
38724.91272
38602.91918
38492.80731
38423.31382
38377.63707
38350.57115
38344.99227
33856.30007
33880.83642
33911.59737
33945.97139
33983.98824
34025.83878
34069.93904
34114.6334
34164.96375
34220.67734
34282.91958
34352.24422
34428.61811
34512.51934
34606.66254
34700.72505
34807.31655
34927.71856
35056.29725
35197.51044
35340.02957
35513.26613
35710.05664
35902.35078
36136.6853
36386.18209
36657.72194
36924.56908
37176.63377
37465.72596
37696.29322
37945.24286
38176.36058
38391.37551
38617.70216
38805.58924
39005.46621
39205.93983
39368.36174
39558.52635
39701.94978
39850.62482
40013.22802
40115.45232
40249.6981
40359.43147
40446.40511
40559.23588
40626.80411
40714.74826
40802.3149
40845.89807
40913.26369
40955.46231
41001.72326
41059.8377
41071.32527
41089.44139
41099.81471
41098.70129
41116.85812
41105.44789
41092.65943
41082.98257
41051.4681
41040.72798
41017.76444
40989.80454
40967.98261
40910.68584
40868.64811
40830.87571
40800.91688
40707.66882
40619.29936
40547.2801
40492.99262
40415.8754
40362.82475
40322.61252
40288.71454
40219.75568
40131.64517
40032.37142
39922.51093
39794.09399
39689.45137
39617.35998
39558.75719
39491.83122
39423.06619
39344.0749
39234.32841
39102.01147
38980.48212
38902.24533
38850.13704
38819.23429
38812.61174
34152.26092
34177.95957
34210.01848
34245.87059
34285.52136
34329.17861
34375.20322
34421.91346
34474.5029
34532.73456
34597.74853
34670.12471
34749.80165
34837.29516
34935.30954
35033.38884
35144.44636
35270.27345
35405.03888
35553.51434
35703.6204
35885.04746
36090.69195
36292.24078
36535.44617
36794.15011
37078.39944
37355.82689
37613.82024
37916.26333
38153.63571
38415.427
38653.74435
38875.88816
39111.44501
39307.91819
39515.7202
39723.14517
39893.67272
40091.27248
40241.22112
40396.63197
40566.11019
40674.0983
40814.58659
40930.07823
41022.19136
41140.31503
41211.76885
41303.73414
41395.13004
41441.82889
41513.04349
41558.56458
41608.57466
41670.89571
41685.4947
41707.22839
41720.40373
41721.34155
41741.59597
41730.91674
41719.08096
41710.50836
41679.15532
41669.21365
41646.21117
41617.74043
41595.81013
41537.09642
41495.16747
41458.7141
41431.09077
41337.61211
41247.81132
41172.65124
41113.41713
41029.17812
40970.6055
40927.29649
40893.0027
40823.93975
40736.42723
40636.34572
40521.77911
40384.77
40271.24424
40191.90348
40127.38612
40055.16535
39982.86455
39901.14763
39786.02492
39644.51741
39512.31379
39425.65679
39367.27561
39332.64697
39325.03538
34455.09582
34482.01278
34515.40085
34552.74999
34594.0539
34639.53278
34687.50497
34736.26932
34791.1643
34851.97401
34919.84252
34995.37172
35078.47424
35169.67673
35271.64732
35373.79426
35489.29805
35620.45322
35761.36315
35917.08589
36074.81942
36264.40496
36479.14494
36690.51645
36940.97704
37211.84038
37507.19326
37795.94333
38059.51583
38373.84306
38617.31335
38894.2415
39139.67107
39366.82982
39613.717
39817.55054
40032.25341
40246.45396
40425.41697
40630.12946
40786.85239
40948.96705
41125.26384
41239.16117
41385.95153
41507.43322
41604.98996
41728.61348
41804.3361
41900.52436
41995.92165
42046.01234
42121.2081
42170.2576
42224.17007
42290.85333
42308.999
42334.86238
42351.47094
42355.17898
42378.11844
42368.81596
42358.52458
42351.63977
42321.08494
42312.56891
42290.24914
42261.96614
42240.51382
42180.9772
42139.56597
42104.83007
42080.15286
41987.80584
41898.30115
41821.65764
41758.66724
41668.1908
41604.41008
41558.02826
41523.37629
41454.74013
41369.02831
41269.89734
41152.45713
41008.51399
40887.26557
40801.35224
40731.35558
40654.31823
40579.11483
40495.65313
40376.4907
40227.17432
40085.3272
39990.8046
39926.48616
39888.35566
39879.84929
34763.66843
34791.8416
34826.57626
34865.43305
34908.39846
34955.70092
35005.62505
35056.45669
35113.67065
35177.08011
35247.84628
35326.59808
35413.23215
35508.26597
35614.30129
35720.59694
35840.53217
35976.88057
36123.82613
36286.75476
36452.16317
36649.56718
36872.86081
37094.78035
37353.86076
37635.84828
37941.78846
38241.90357
38511.87748
38836.7008
39086.4391
39377.09334
39631.85465
39863.10017
40120.96663
40331.22376
40552.82714
40774.12543
40961.35139
41172.19381
41336.16693
41504.91072
41687.94561
41807.82563
41960.917
42088.5603
42191.80044
42321.08588
42401.40884
42501.98969
42601.54518
42655.271
42734.55973
42787.3032
42845.21603
42916.35221
42938.35875
42968.71594
42989.27666
42996.3663
43022.54081
43015.23543
43007.05653
43002.39047
42973.17716
42966.62974
42945.63949
42918.2136
42897.84818
42838.09177
42797.56052
42764.81839
42743.49424
42653.39372
42565.73426
42489.25407
42423.83957
42328.2028
42259.68684
42210.30659
42175.26451
42107.43196
42024.4939
41927.91059
41809.4352
41660.33862
41532.70413
41441.06515
41366.15496
41284.86217
41207.4072
41123.17066
41001.36194
40845.78506
40695.54858
40593.91102
40524.14691
40482.8396
40473.56856
35076.89709
35106.3524
35142.44051
35182.80749
35227.43436
35276.55336
35328.41965
35381.31035
35440.82399
35506.81064
35580.46284
35662.45076
35752.67713
35851.64543
35961.86782
36072.44084
36196.84044
36338.25214
36491.03691
36661.00845
36834.284
37039.88448
37269.77559
37502.04085
37773.08753
38063.64906
38380.03697
38691.22777
38969.34134
39303.01559
39559.09697
39862.30317
40127.09621
40362.64934
40630.71384
40846.45929
41075.36351
41304.19698
41499.09099
41715.45047
41886.79998
42062.02966
42251.71288
42377.59275
42536.92799
42670.85147
42779.95995
42915.03308
43000.23664
43105.34298
43209.1896
43266.75401
43350.22781
43406.80041
43468.77621
43544.41186
43570.48346
43605.58322
43630.48355
43641.43659
43671.3275
43666.60528
43661.08059
43659.12271
43631.70775
43627.5814
43608.46384
43582.49724
43563.8278
43504.45886
43465.14159
43434.576
43416.83128
43329.82571
43245.31107
43170.53429
43104.09007
43004.50925
42931.88234
42879.64572
42844.13476
42777.33747
42697.89094
42605.2181
42487.45705
42335.01111
42202.42725
42106.03361
42026.87784
41941.94494
41862.87538
41778.7747
41655.69531
41495.48398
41338.25805
41230.40274
41155.80754
41111.7294
41101.85308
35393.77043
35424.52528
35461.96549
35503.83902
35550.12302
35601.04898
35654.84296
35709.77486
35771.54834
35840.05352
35916.52352
36001.68788
36095.48877
36198.43168
36312.93555
36427.94159
36556.90839
36703.33688
36861.76192
37038.41251
37219.34854
37433.36279
37671.33163
37910.20501
38194.93776
38493.72599
38820.1242
39141.35801
39430.48624
39771.01088
40033.29977
40348.3087
40623.04088
40863.20739
41140.69294
41361.90607
41598.11241
41834.66411
42036.19213
42258.38446
42436.71986
42618.19164
42814.4268
42946.28745
43111.75665
43252.03114
43367.14754
43508.11008
43598.43155
43708.16248
43816.40374
43877.96246
43965.68775
44026.19709
44092.27605
44172.43507
44202.702
44242.69956
44272.19089
44287.3501
44321.34515
44319.73869
44317.39838
44318.58867
44293.35346
44292.03103
44275.20891
44251.20533
44234.81417
44176.43451
44138.65286
44110.38547
44096.30377
44012.98584
43932.62741
43860.9107
43794.81481
43692.58421
43616.60463
43561.73647
43525.65759
43460.00285
43384.51076
43296.83233
43181.37118
43027.31574
42891.24554
42791.14341
42708.48166
42620.55079
42540.46364
42457.31272
42334.25638
42171.03008
42008.28001
41895.19463
41816.46602
41770.07906
41759.77764
35713.33958
35745.40688
35784.19174
35827.56349
35875.49939
35928.22683
35983.93946
36040.9011
36104.89589
36175.8502
36255.03534
36343.25176
36440.51622
36547.37013
36666.16252
36785.71862
36919.37956
37070.88494
37234.89519
37417.88501
37605.95747
37828.01196
38075.33562
38319.35199
38617.19295
38924.70689
39260.7053
39591.71187
39891.91078
40239.06855
40507.23073
40833.49842
41117.96098
41362.9093
41649.20228
41875.98561
42120.53955
42363.16811
42570.38818
42799.55323
42984.20795
43171.57734
43374.23676
43512.0523
43683.49578
43830.14639
43951.37081
44098.31184
44193.9595
44308.39132
44421.10234
44486.75821
44578.76577
44643.28838
44713.49292
44798.19523
44832.74538
44877.71993
44911.94854
44931.51473
44969.8982
44971.8642
44973.21715
44977.92022
44955.23765
44957.02549
44942.80423
44921.15217
44907.56912
44850.76036
44814.83348
44788.95499
44778.52251
44699.26187
44623.77548
44556.23941
44491.78366
44388.21208
44309.7456
44252.56424
44215.82579
44151.32432
44080.0162
43998.12051
43886.32923
43732.2699
43594.13792
43491.40222
43406.01645
43315.73305
43235.16722
43153.65874
43031.78897
42867.08961
42700.27251
42582.98003
42500.85761
42452.65351
42442.11874
36034.69212
36068.08742
36108.2081
36153.06458
36202.64576
36257.17821
36314.81273
36373.81054
36440.01037
36513.36612
36595.17129
36686.29289
36786.84358
36897.43583
37020.39556
37144.50555
37282.91039
37439.56244
37609.26391
37798.54955
37993.50426
38222.43396
38479.50085
38728.61688
39038.58185
39355.201
39700.44542
40041.04187
40351.53401
40705.75523
40979.31486
41316.33801
41610.48557
41860.29418
42154.84402
42386.75331
42641.52691
42888.76702
43100.01361
43337.45629
43527.81518
43720.69926
43929.55057
44073.33303
44250.54434
44403.54952
44530.94309
44683.94508
44785.1135
44904.31713
45021.55465
45091.35916
45187.63366
45256.20528
45330.53546
45419.80658
45458.70959
45508.69886
45547.73336
45571.78618
45614.72924
45620.63515
45626.09353
45634.64954
45614.92372
45620.03026
45608.64867
45589.60883
45579.27685
45524.58412
45490.83034
45467.42704
45460.57489
45385.56566
45315.39051
45252.89253
45191.22646
45087.57651
45007.56235
44948.48433
44911.02844
44847.62485
44780.53245
44704.91915
44597.92386
44445.28253
44306.42291
44202.1167
44114.80519
44022.80018
43942.22642
43862.92034
43743.23995
43578.47907
43408.98393
43288.49417
43203.72155
43154.19699
43143.62357
36356.9124
36391.66408
36433.12274
36479.44961
36530.66102
36587.0093
36646.58811
36707.64987
36776.06906
36851.82166
36936.19889
37030.11438
37133.77469
37247.87627
37374.76913
37503.29515
37646.34025
37808.06652
37983.51359
38179.20256
38381.17803
38615.78448
38882.54741
39136.89747
39458.09833
39783.91095
40138.01266
40487.90226
40808.09767
41169.88468
41448.29279
41795.42693
42099.38831
42354.19132
42656.51368
42893.65182
43158.36303
43410.41054
43625.20136
43870.21539
44066.27385
44264.43071
44479.00304
44628.86238
44811.5887
44970.87718
45104.45776
45263.59439
45370.47617
45494.53672
45616.35788
45690.32248
45790.79663
45863.40014
45941.82068
46035.69147
46079.01371
46134.04305
46177.91196
46206.43748
46253.99627
46264.08766
46273.95777
46286.71132
46270.33764
46278.93907
46270.5778
46254.29609
46247.56216
46195.46304
46164.1922
46143.3524
46140.00938
46069.31851
46004.65384
45947.78493
45889.87679
45787.31101
45706.72234
45646.26003
45608.08579
45545.68843
45482.6888
45413.59339
45312.26843
45162.25373
45023.87235
44919.01386
44830.57024
44737.44794
44657.2659
44580.58898
44463.9261
44300.35155
44129.45591
44006.7275
43920.021
43869.65695
43859.23511
36679.074
36715.19855
36758.01295
36805.82424
36858.65597
36916.79675
36978.3761
37041.55716
37112.23741
37190.42676
37277.39037
37374.06164
37480.71923
37598.13878
37728.70651
37861.41586
38008.86284
38175.40139
38356.35798
38558.2618
38767.43844
39008.20337
39283.60984
39543.24046
39874.82454
40209.74328
40572.24502
40931.01799
41260.56314
41630.44497
41913.29464
42269.54283
42583.46533
42843.68228
43153.14427
43395.58698
43669.53254
43927.16275
44145.42037
44397.1032
44598.44386
44801.93628
45021.52494
45177.64582
45365.58242
45531.02885
45670.76378
45836.08927
45948.87907
46077.91161
46204.39873
46282.51695
46387.07522
46463.6307
46546.0518
46644.54689
46692.35614
46752.46257
46801.19171
46834.11603
46886.23961
46900.634
46915.11627
46932.38429
46919.74514
46932.02446
46926.82719
46913.36466
46910.47043
46861.34655
46832.83178
46814.66256
46814.81161
46748.41023
46689.26412
46638.36576
46584.98129
46484.51815
46404.31952
46343.071
46304.25292
46242.76107
46183.62156
46121.05172
46026.0276
45879.6228
45742.77275
45638.31036
45549.50752
45455.83911
45376.37996
45302.63361
45189.64118
45028.3213
44857.16474
44733.07878
44645.10435
44594.35037
44584.26015
37000.35325
37037.87543
37081.74596
37131.17424
37185.72073
37245.64955
37309.24298
37374.6395
37447.64824
37528.35005
37617.97336
37717.4375
37827.04477
37947.68973
38081.78983
38218.46906
38370.03606
38541.05973
38727.04948
38934.48442
39150.75209
39399.18531
39681.99494
39946.97653
40287.95828
40631.83119
41002.25399
41369.40364
41707.89883
42086.43692
42373.86364
42737.73491
43061.49165
43328.05996
43643.81675
43891.43507
44174.15308
44438.07702
44659.90745
44918.04319
45123.29626
45332.20742
45556.73279
45718.95168
45911.72638
46083.14593
46228.94424
46400.47675
46519.36516
46653.52084
46784.80691
46867.08547
46975.58086
47055.94334
47142.19979
47245.31639
47297.67429
47362.91921
47416.56542
47453.7955
47510.35224
47529.03379
47548.20799
47570.26216
47561.72052
47577.88431
47576.00103
47565.3579
47566.42338
47520.54747
47494.99928
47479.68404
47483.31468
47421.13935
47367.38831
47322.58508
47274.283
47176.76486
47097.86944
47036.50083
46997.20146
46936.52889
46880.94983
46824.72792
46736.41043
46594.37522
46459.94368
46356.73813
46268.31666
46174.63805
46096.17108
46025.54447
45916.70956
45758.5315
45588.10387
45463.44872
45374.80693
45324.07066
45314.47801
37319.71711
37358.57052
37403.6168
37454.68409
37510.93896
37572.73231
37638.15312
37705.94811
37781.38699
37864.71307
37957.11215
38059.57188
38172.02967
38295.77433
38433.53357
38574.15735
38729.61994
38904.8626
39095.72076
39307.27388
39530.51942
39786.73258
40076.89964
40347.72864
40696.85254
41049.49226
41427.40255
41802.40473
42149.23371
42536.65288
42829.85072
43199.47207
43532.49398
43806.51818
44127.85634
44380.32266
44671.50046
44942.25916
45167.82928
45432.24089
45641.18484
45854.40617
46084.3327
46252.26587
46449.44995
46626.59269
46778.29843
46956.00139
47081.15889
47220.61725
47356.90526
47443.39948
47555.68447
47639.65431
47729.48892
47837.16901
47894.11221
47964.58029
48023.25566
48064.71499
48125.5322
48148.37736
48172.18769
48199.21836
48195.10186
48215.40151
48217.00103
48209.18017
48214.1773
48171.71669
48149.2926
48137.03161
48144.17193
48086.15936
48037.60017
47998.8446
47955.98704
47862.06124
47785.29028
47724.51127
47684.98711
47625.08166
47572.73419
47522.54192
47441.13791
47304.02039
47172.72455
47071.53715
46984.19751
46891.01048
46813.75197
46746.33794
46641.99726
46487.67531
46318.81629
46194.28172
46105.49992
46055.14118
46046.19582
37636.38286
37676.06054
37723.02689
37775.43339
37833.30835
37896.91234
37964.4686
38034.53999
38112.48571
38198.62021
38294.05366
38399.09983
38514.87023
38641.90039
38783.21917
38928.04279
39087.55021
39266.38987
39461.97373
39677.66358
39905.39653
40169.93056
40467.15472
40745.35259
41101.03894
41462.18362
41847.2181
42229.65064
42584.14527
42980.0552
43280.71445
43654.64156
43996.2407
44277.79422
44604.79443
44861.65723
45160.93215
45438.94438
45668.47455
45939.16711
46151.94478
46368.31966
46604.17975
46777.25122
46978.39197
47160.93922
47318.32726
47502.09209
47633.64622
47778.5926
47920.16206
48011.00849
48126.97758
48214.32692
48307.38514
48419.48567
48480.99776
48556.78053
48620.66109
48666.32727
48731.24392
48758.04959
48786.2884
48818.38611
48818.96772
48843.68259
48848.98508
48844.00623
48852.82147
48813.81704
48794.59267
48785.58198
48796.32999
48742.41651
48698.82329
48665.94053
48628.71533
48538.82843
48464.87569
48405.40951
48366.01002
48306.86909
48257.42672
48212.84881
48138.39538
48006.55114
47878.94069
47780.42606
47694.82336
47602.59897
47526.72225
47462.53411
47362.89232
47212.98232
47046.38898
46922.56754
46834.09783
46784.42647
46776.26101
37949.76339
37990.21729
38038.9535
38092.79452
38152.2286
38217.56494
38287.09072
38359.515
38440.02568
38528.80091
38627.04787
38735.74605
38854.86519
38985.40153
39130.01802
39279.11432
39443.16936
39625.6364
39824.50506
40046.15244
40276.07859
40548.58105
40852.03172
41139.08882
41500.20647
41869.48769
42261.32655
42650.87395
43012.89494
43416.03816
43725.16951
44103.27322
44452.40717
44741.2906
45074.26684
45335.10674
45641.97203
45927.50259
46161.26221
46438.36281
46655.38435
46874.07826
47116.07697
47293.73466
47498.38118
47685.94673
47848.7217
48038.35408
48176.36453
48326.95511
48474.15089
48569.58882
48689.22674
48779.74224
48875.58446
48991.85171
49057.83016
49138.99504
49208.31414
49258.25348
49327.15749
49357.68687
49390.00884
49427.15285
49432.58838
49462.00552
49471.31702
49469.25263
49481.73088
49446.0955
49430.04848
49424.45586
49438.9496
49389.11328
49350.26605
49323.0046
49291.45592
49205.86055
49135.2638
49077.81322
49038.9727
48980.65478
48933.8186
48894.3834
48826.77777
48700.39334
48576.85765
48481.55977
48398.30023
48307.48334
48233.12901
48172.11668
48077.26553
47932.18235
47768.42166
47645.81503
47558.0362
47509.31274
47502.0429
38259.36934
38300.68702
38351.08266
38406.34879
38467.2882
38534.27727
38605.65714
38680.14591
38762.87716
38854.47682
38956.01861
39068.13834
39190.94222
39325.37745
39473.85365
39625.97997
39794.44886
39982.57401
40184.37742
40411.70859
40643.25527
40923.00021
41232.00098
41527.31241
41894.11266
42271.10695
42669.4965
43065.63291
43435.09375
43844.7014
44162.44417
44544.98463
44901.15285
45196.93399
45535.94703
45800.55739
46114.39787
46407.4249
46645.73707
46929.42314
47151.37273
47372.17293
47619.49689
47801.76629
48009.41551
48201.55396
48369.35357
48564.56426
48709.00066
48865.32039
49018.52266
49118.89679
49242.32365
49335.8622
49433.99813
49554.0533
49624.27675
49710.82333
49785.85209
49840.23219
49913.09941
49947.13522
49983.09576
50025.11323
50035.42513
50069.80822
50083.5318
50084.51873
50100.501
50068.05257
50055.05341
50052.99118
50071.39279
50025.64874
49991.36849
49969.44605
49943.51084
49862.28397
49795.40527
49740.61648
49702.83927
49645.47145
49600.98897
49566.20488
49505.23337
49384.35221
49265.13053
49173.4809
49093.11922
49004.13339
48931.41914
48873.48415
48783.42083
48643.45658
48482.98014
48362.00852
48275.23091
48227.669
48221.39446
38565.2745
38607.40569
38659.34079
38715.98105
38778.35504
38846.89334
38919.91094
38995.60271
39081.27244
39175.41233
39279.9441
39395.4514
39522.05942
39660.61619
39813.19947
39968.29383
40141.84999
40335.33718
40542.10396
40773.81668
41007.08671
41293.42475
41607.18957
41909.62987
42282.55182
42666.83819
43071.50142
43473.71617
43850.54682
44265.99022
44592.16316
44979.51619
45342.48773
45645.05027
45989.48989
46258.02981
46578.3306
46878.29835
47121.58695
47411.95418
47639.6873
47862.69727
48114.55715
48301.48898
48511.63129
48707.86351
48880.26706
49080.66883
49231.39481
49393.415
49552.99302
49658.73205
49786.23481
49882.78509
49982.73131
50106.07454
50180.17799
50271.98574
50352.99613
50412.0772
50489.00906
50526.40534
50565.4963
50612.07113
50627.13587
50666.67294
50685.28737
50689.534
50708.91506
50679.40335
50669.24665
50670.71
50693.18352
50651.58661
50621.75239
50604.89843
50584.44527
50507.51607
50444.5323
50392.95864
50356.79806
50300.57954
50258.25796
50227.64476
50173.01
50057.5596
49942.75327
49855.07036
49778.10709
49691.35942
49620.38932
49565.39819
49480.04196
49345.38322
49188.54251
49069.55575
48984.02759
48937.79755
48932.60325
38867.78622
38910.72668
38963.93747