/*--------------------------------*- C++ -*----------------------------------*\
| =========                 |                                                 |
| \\      /  F ield         | OpenFOAM: The Open Source CFD Toolbox           |
|  \\    /   O peration     | Version:  v1706                                 |
|   \\  /    A nd           | Web:      www.OpenFOAM.com                      |
|    \\/     M anipulation  |                                                 |
\*---------------------------------------------------------------------------*/
FoamFile
{
    version     2.0;
    format      ascii;
    class       volScalarField;
    location    "0.00953";
    object      Tv;
}
// * * * * * * * * * * * * * * * * * * * * * * * * * * * * * * * * * * * * * //

dimensions      [0 0 0 1 0 0 0];


internalField   nonuniform List<scalar> 
23482
(
29005.7864
29068.62718
29140.28648
29187.99548
29266.77414
29329.76556
29390.43299
29465.11924
29524.4758
29607.23976
29673.8627
29732.79419
29812.21446
29868.62764
29952.71991
30028.93604
30092.54698
30190.68688
30263.95824
30348.68682
30443.27054
30517.49192
30613.3936
30693.0939
30770.69563
30874.27233
30962.51753
31061.6328
31155.6935
31238.88063
31344.92915
31445.5327
31544.31506
31644.55238
31731.22271
31830.99754
31930.8221
32027.06328
32129.37703
32217.31417
32306.92622
32396.20712
32484.12573
32588.73978
32687.60732
32780.18258
32867.69083
32978.47999
33077.01532
33155.63901
33220.55248
33293.8472
33360.32282
33425.35577
33494.37036
33581.09596
33674.07423
33762.1323
33843.23916
33923.26193
33988.65469
34038.44529
34082.3501
34130.08968
34180.64705
34235.82601
34298.55527
34363.65908
34420.81525
34461.9402
34492.13692
34511.76087
34519.33632
27305.80331
27324.62043
27341.65447
27359.6737
27379.20703
27400.59979
27425.73109
27456.64343
27489.65927
27525.46612
27563.80072
27604.92669
27649.97513
27699.63365
27752.29968
27818.34997
27888.19933
27960.54894
28044.22998
28128.94699
28226.07817
28303.42672
28372.20853
28459.53437
28522.31099
28581.27954
28636.21285
28691.9433
28757.19298
28797.40106
28870.69894
28927.61831
28982.5154
29052.74341
29106.93165
29186.324
29248.83684
29303.31769
29379.72916
29431.69156
29513.01562
29586.16812
29646.1035
29743.21233
29814.19738
29897.86294
29992.33145
30065.28582
30161.76517
30240.80887
30317.58448
30422.09801
30510.16047
30610.4052
30705.60765
30789.55815
30898.84499
31002.35192
31104.26239
31207.98382
31297.00822
31400.72418
31504.69576
31605.21431
31713.04079
31805.43974
31899.90435
31993.83276
32085.82999
32196.33777
32300.47606
32398.18676
32491.32632
32612.09875
32720.46719
32807.19409
32878.4636
32958.82399
33030.38338
33099.3245
33172.17178
33265.58151
33367.23779
33464.94645
33556.2026
33647.10937
33721.4551
33777.72934
33826.99003
33880.40966
33936.7213
33998.46417
34069.67186
34144.44455
34210.38613
34257.64719
34292.32197
34314.82908
34323.47777
26987.14218
27005.34053
27021.58504
27038.7052
27057.23716
27077.52886
27101.53144
27131.36059
27163.13357
27197.55357
27234.32679
27273.70294
27316.81607
27364.34864
27414.64813
27478.55351
27545.98657
27615.56564
27696.32476
27777.80746
27872.05056
27945.32679
28009.25417
28092.16718
28148.90191
28200.92698
28248.36298
28296.60006
28355.05448
28387.50225
28454.75664
28505.10089
28553.73268
28618.99484
28667.65322
28743.22185
28801.3397
28851.17531
28924.27433
28971.63036
29049.76601
29119.43001
29175.25114
29270.59538
29338.73691
29420.72875
29514.45873
29585.75075
29682.33844
29760.3864
29835.97854
29940.78747
30028.02236
30128.60453
30224.14594
30308.15306
30419.89785
30525.6333
30630.09942
30736.75226
30827.62311
30934.64379
31042.06073
31146.20065
31258.94021
31355.39743
31454.41154
31552.70571
31648.41261
31764.27529
31872.96998
31975.01889
32073.04933
32203.3172
32321.45887
32416.59165
32494.6656
32582.5304
32659.36129
32732.06862
32808.27637
32907.8372
33017.76722
33125.11406
33226.9673
33329.52163
33413.59664
33476.97283
33532.0557
33591.52762
33653.80922
33722.33222
33802.53057
33887.81935
33963.48596
34017.61936
34057.33721
34083.08319
34092.93097
26657.37926
26674.90063
26690.29574
26706.44897
26723.90471
26743.01267
26765.79026
26794.41915
26824.82066
26857.71013
26892.76368
26930.21432
26971.19222
27016.36955
27064.05116
27125.49934
27190.17698
27256.62156
27334.02929
27411.84668
27502.73383
27571.58275
27630.38687
27708.63842
27759.27624
27804.28691
27844.04627
27884.51908
27935.91734
27960.56285
28021.38439
28064.78959
28106.72778
28166.55683
28209.38958
28280.71159
28334.19612
28379.26906
28448.844
28491.54906
28566.18918
28632.05093
28683.46264
28776.36292
28841.15032
28920.85346
29013.18358
29082.40886
29178.60781
29255.35149
29329.46685
29433.9722
29519.80013
29619.93816
29714.99002
29798.29686
29911.58164
30018.74326
30125.08138
30234.01816
30326.18554
30435.78068
30545.81427
30652.75769
30769.60184
30869.52718
30972.61726
31074.87158
31173.83727
31294.37951
31406.76839
31512.15829
31614.05822
31752.87874
31880.30486
31983.85372
32069.02665
32164.70025
32246.92735
32323.20166
32402.18246
32507.0918
32624.49708
32741.05888
32853.61195
32968.28759
33062.68218
33133.67649
33194.96909
33260.75717
33329.07277
33404.38903
33493.86121
33590.31182
33676.51096
33738.19289
33783.48806
33812.80891
33823.97298
26317.52395
26334.30907
26348.80798
26363.9391
26380.25772
26398.11504
26419.58862
26446.91858
26475.84136
26507.08097
26540.28429
26575.66496
26614.34257
26656.97355
26701.82702
26760.54373
26822.16437
26885.14598
26958.80244
27032.54748
27119.61654
27183.68671
27237.08698
27310.41024
27354.97678
27393.1253
27425.30155
27457.90056
27502.01996
27519.05888
27573.25513
27609.57912
27644.49302
27698.45875
27735.24319
27801.9383
27850.59152
27890.83859
27956.74421
27994.86795
28065.82796
28127.71518
28174.56915
28264.45171
28325.4597
28402.29349
28492.55645
28559.30853
28654.60103
28729.75912
28802.1707
28905.84646
28989.7935
29088.77645
29182.54931
29264.40226
29378.22597
29485.91899
29593.35744
29703.85929
29796.75769
29908.14964
30019.9035
30128.7237
30248.6957
30351.32895
30457.85843
30563.54623
30665.25524
30789.70653
30904.84241
31012.44814
31116.97501
31262.97406
31398.73876
31510.35888
31602.71337
31706.32161
31793.99183
31873.59095
31954.68239
32063.9038
32187.59774
32312.50062
32435.43609
32562.3248
32667.36342
32746.33376
32814.10536
32886.33009
32960.56249
33042.44274
33141.1758
33249.14389
33346.46656
33416.25418
33467.58757
33500.77284
33513.35219
25968.76879
25984.65599
25998.20784
26012.27261
26027.40689
26043.96226
26064.07021
26090.02179
26117.38103
26146.87748
26178.13007
26211.33098
26247.583
26287.52177
26329.38755
26385.15122
26443.4693
26502.71563
26572.27368
26641.58597
26724.40884
26783.38178
26831.0998
26899.16102
26937.63565
26969.18515
26994.23807
27019.21503
27055.66906
27065.57607
27113.06731
27142.50811
27170.24238
27217.91802
27248.50892
27310.25282
27353.91621
27389.30353
27451.44078
27485.13803
27552.35164
27610.23238
27652.53387
27738.96887
27795.89116
27869.35006
27956.91103
28020.79323
28114.65075
28187.96091
28258.49939
28360.9093
28442.63178
28539.86948
28631.67432
28711.38015
28824.72537
28932.01023
29039.72126
29151.02497
29244.09673
29356.5098
29469.08506
29578.81588
29700.8301
29805.28262
29914.47269
30022.95648
30126.84831
30254.3904
30371.31282
30479.97168
30585.7545
30737.20454
30879.92648
30998.88874
31098.24664
31209.69885
31302.7686
31385.42483
31467.94045
31580.26923
31708.72864
31840.65307
31973.19077
32111.93268
32227.60461
32314.69765
32389.06195
32467.67156
32547.50428
32635.45395
32743.08689
32862.55727
32971.29334
33049.56129
33107.27314
33144.53588
33158.60067
25612.31254
25627.0769
25639.615
25652.57779
25666.49294
25681.70927
25700.40603
25724.91783
25750.65006
25778.33501
25807.56569
25838.51133
25872.25273
25909.40064
25948.17357
26000.82409
26055.6634
26110.97671
26176.16514
26240.7522
26318.95823
26372.5799
26414.38879
26476.81033
26509.02141
26534.06977
26552.82106
26571.15978
26599.27135
26602.62781
26643.304
26666.5307
26687.29656
26728.17165
26752.51207
26809.03743
26847.60315
26878.10754
26936.39693
26965.86788
27029.36625
27083.33164
27121.23065
27203.95523
27256.62775
27326.31851
27410.61574
27471.25856
27563.15553
27634.36458
27702.90146
27803.7011
27882.99187
27978.04772
28067.34429
28144.32273
28256.22575
28362.17291
28469.31007
28580.638
28673.3512
28786.05568
28898.61198
29008.31992
29131.25671
29236.56919
29347.53438
29458.08533
29563.57361
29693.38689
29811.1914
29919.79768
30025.44949
30180.39428
30328.33146
30453.53439
30559.42921
30678.39407
30776.71999
30862.15823
30945.44239
31059.59363
31191.05413
31328.29201
31469.19238
31618.94479
31744.85878
31839.96889
31920.85526
32005.6085
32090.52469
32183.78468
32299.58368
32430.11208
32550.17825
32637.059
32701.32253
32742.76971
32758.35068
25248.88375
25262.64579
25274.14782
25285.98473
25298.65708
25312.50959
25329.76341
25352.78972
25376.84986
25402.67665
25429.83983
25458.48518
25489.66746
25523.96961
25559.59599
25609.03491
25660.29251
25711.56026
25772.20428
25831.86393
25905.15628
25953.24714
25989.01699
26045.48088
26071.17614
26089.53067
26103.20351
26115.71845
26136.65145
26131.34863
26166.1079
26184.19957
26198.91645
26232.29517
26250.47207
26301.53129
26334.96913
26360.57823
26414.92732
26440.3757
26500.25446
26550.48948
26584.25583
26663.17876
26711.58887
26777.25858
26857.84118
26914.92394
27004.35624
27073.21274
27139.63962
27238.56543
27315.34219
27407.9451
27494.37097
27568.19497
27677.80997
27781.55532
27887.29346
27997.88305
28089.74307
28202.08746
28313.89156
28422.73959
28545.52458
28650.73203
28762.5291
28874.3545
28980.84359
29112.14637
29230.04101
29337.6296
29441.86175
29598.26981
29749.43964
29879.46421
29991.1423
30117.04372
30220.37825
30308.33224
30391.81084
30506.51779
30639.10182
30779.6626
30927.28213
31086.73799
31222.11211
31324.86101
31412.00018
31502.46585
31591.76733
31689.34287
31812.21286
31952.90446
32083.79921
32179.13785
32249.92142
32295.52945
32312.60899
24879.46067
24892.40884
24902.89785
24913.59768
24925.01348
24937.488
24953.27871
24974.7869
24997.14468
25021.08372
25046.15386
25072.47786
25101.08193
25132.51972
25164.98917
25211.17228
25258.81128
25306.00302
25362.03423
25416.67872
25484.85714
25527.30052
25556.99028
25607.34431
25626.45926
25638.80191
25646.97111
25653.99327
25669.57634
25654.37023
25684.24121
25697.34508
25707.33203
25732.99581
25745.39802
25790.66626
25819.06177
25839.81886
25890.07973
25911.67734
25968.05542
26014.80198
26044.78896
26119.97697
26164.25763
26225.8087
26302.36636
26355.64065
26442.14822
26508.40067
26572.60955
26669.45905
26743.73851
26833.77459
26917.15267
26987.57128
27094.22048
27195.01499
27298.59021
27407.71994
27498.27505
27609.70353
27720.15995
27827.45562
27949.13054
28053.32691
28165.01038
28277.28723
28384.18544
28516.26184
28633.60361
28739.41047
28841.1307
28997.05319
29149.38016
29282.58129
29399.03377
29531.06893
29639.06188
29729.2866
29812.50651
29926.61439
30058.47308
30200.22542
30352.6198
30520.07804
30663.77072
30773.51393
30866.44258
30962.01805
31054.86426
31155.58122
31284.11784
31433.65226
31574.45044
31677.78401
31754.82949
31804.42975
31822.93658
24505.37618
24517.42886
24526.90749
24536.46708
24546.62193
24557.71398
24572.03192
24592.0008
24612.63803
24634.67267
24657.63851
24681.63662
24707.66382
24736.24476
24765.57914
24808.50488
24852.54003
24895.68965
24947.13373
24996.80139
25059.80463
25096.55258
25120.14286
25164.47405
25177.29004
25184.37497
25185.82326
25187.53799
25199.07092
25174.52526
25200.56194
25207.66129
25213.65523
25232.59082
25239.81155
25278.92359
25302.50883
25318.64011
25364.54282
25382.41584
25435.38799
25478.90512
25505.50776
25577.15674
25617.56698
25675.05734
25747.43813
25796.74952
25879.94139
25943.34379
26005.21292
26099.82139
26171.68468
26259.17263
26339.49871
26406.44139
26509.64634
26606.89461
26707.64048
26814.65179
26903.49406
27013.54986
27122.21179
27227.43462
27347.21042
27449.60473
27560.28242
27672.1938
27778.92388
27911.13889
28027.44759
28130.94072
28229.32136
28383.03041
28534.49835
28669.11977
28789.14117
28926.31883
29038.52527
29130.80407
29213.45644
29325.99833
29455.44545
29596.27293
29751.33354
29924.8129
30075.39306
30191.25427
30289.33932
30389.28697
30484.74984
30587.33244
30719.91026
30876.61474
31026.00794
31136.5765
31219.40013
31272.67851
31292.48729
24127.5561
24138.67235
24147.1369
24155.56041
24164.45939
24174.17449
24187.02063
24205.44072
24224.35072
24244.47554
24265.33639
24287.01455
24310.47787
24336.22438
24362.46486
24402.16129
24442.64393
24481.82693
24528.76828
24573.59484
24631.53801
24662.69431
24680.11535
24718.54258
24726.3045
24727.63991
24721.59256
24717.80894
24726.61524
24694.23763
24716.88201
24716.72057
24719.29402
24733.63816
24734.70311
24768.24515
24787.40989
24799.48074
24840.56334
24854.83352
24904.41396
24944.94021
24968.55362
25036.94978
25073.8449
25127.47403
25195.68826
25240.99268
25320.57153
25380.89652
25440.28484
25532.50374
25602.05928
25687.11502
25764.52986
25828.09394
25927.58684
26020.87121
26118.24793
26222.56362
26309.32751
26417.6454
26524.20762
26627.01545
26744.30294
26844.26066
26953.14291
27063.91398
27169.92165
27301.72454
27416.67596
27517.55683
27612.06697
27762.15657
27910.94357
28045.23852
28167.50323
28308.69705
28424.59071
28518.73677
28600.66299
28710.90868
28836.52761
28974.47463
29130.07707
29307.45605
29463.3023
29584.23117
29686.71114
29790.20816
29887.33518
29990.49405
30125.37929
30287.34169
30443.72188
30560.51277
30648.43071
30704.94303
30725.8798
23746.80754
23756.97582
23764.43345
23771.7336
23779.39139
23787.74546
23799.13247
23816.00751
23833.19683
23851.41889
23870.18492
23889.55762
23910.47647
23933.4164
23956.61013
23993.11994
24030.12433
24065.44355
24107.99192
24148.13819
24201.26033
24227.21104
24238.57272
24270.92268
24274.93098
24268.80896
24256.47801
24246.93378
24253.49095
24214.89835
24234.82099
24226.15984
24225.85162
24237.4482
24231.1025
24260.16181
24275.72367
24283.82792
24319.84375
24330.78041
24376.83277
24414.55612
24435.53786
24501.0145
24534.81038
24584.89402
24649.10438
24690.47615
24766.25932
24823.31682
24880.06839
24969.74997
25037.09918
25119.89593
25194.64758
25255.07249
25350.78971
25439.87973
25533.49356
25634.63342
25718.99437
25825.28619
25929.56509
26029.78194
26144.20012
26241.26651
26347.70423
26456.63521
26561.39702
26692.31604
26805.71954
26903.90038
26994.30332
27139.74484
27284.32454
27416.66564
27539.81092
27683.82059
27802.81124
27898.66379
27979.84591
28087.32102
28208.03256
28341.42027
28495.56259
28674.72378
28834.13696
28958.98157
29065.01846
29171.21269
29269.08938
29371.60701
29507.07767
29672.28247
29833.85722
29955.67694
30047.85307
30107.05494
30128.90787
23363.81704
23373.04014
23379.50803
23385.70592
23392.14623
23399.16516
23409.11753
23424.46585
23439.95631
23456.29829
23472.99429
23490.08801
23508.48969
23528.65351
23548.84406
23582.20807
23615.8135
23647.38999
23685.67976
23721.28635
23769.76975
23791.07582
23797.17988
23823.09249
23822.47836
23809.91279
23791.85409
23776.69245
23780.57084
23737.1994
23754.4545
23738.48891
23734.36419
23744.18747
23730.93382
23756.4469
23768.50757
23772.39957
23803.48095
23811.70573
23853.89378
23888.93728
23907.5767
23970.47167
24001.60757
24048.54491
24109.04492
24146.67494
24218.60884
24272.26733
24326.22481
24413.21577
24478.42631
24559.15526
24631.55749
24689.19006
24781.2519
24866.10068
24955.71289
25053.3068
25134.98123
25239.01963
25340.92558
25438.51607
25549.88158
25643.78708
25747.29608
25853.79024
25956.82182
26086.45401
26198.22109
26293.78601
26380.10939
26520.26262
26659.46458
26788.43042
26911.13512
27056.74775
27178.20081
27275.61742
27356.15705
27460.63534
27575.72334
27703.22406
27854.13685
28033.0951
28194.40737
28321.98982
28430.72388
28538.7877
28636.59093
28737.39271
28871.84837
29038.3146
29203.23557
29328.79812
29424.30684
29485.59362
29508.12761
22979.1268
22987.41635
22992.91876
22998.04226
23003.296
23009.01375
23017.5661
23031.41953
23045.24826
23059.75013
23074.41936
23089.27894
23105.20661
23122.63455
23139.86381
23170.11131
23200.37916
23228.32605
23262.52418
23293.77345
23337.66174
23354.41516
23356.85735
23376.67198
23369.25417
23352.24234
23328.75223
23308.31537
23308.32585
23261.67155
23276.31065
23254.10659
23246.15211
23254.37884
23235.1676
23258.02032
23266.40212
23265.80055
23292.4205
23298.21964
23336.40929
23368.84552
23385.34318
23445.96072
23474.86363
23519.10109
23576.28549
23610.46975
23678.63551
23728.84204
23779.867
23864.01216
23927.10166
24005.93782
24076.32865
24131.58475
24220.26551
24300.9961
24386.52293
24480.3196
24559.0678
24660.67207
24760.17963
24855.21563
24963.51903
25054.16916
25154.44034
25258.02551
25358.89097
25486.89074
25597.00062
25690.15926
25772.64754
25907.23618
26040.26593
26164.69822
26285.74881
26431.79443
26555.05116
26653.8978
26733.98839
26835.46434
26944.56416
27065.23164
27211.45021
27388.45026
27550.11666
27679.30155
27789.90136
27899.07696
27996.1133
28094.31625
28226.36329
28392.26459
28558.74978
28686.76759
28784.66159
28847.41218
28870.38504
22593.1224
22600.49603
22605.06208
22609.14371
22613.24646
22617.70221
22624.89619
22637.29651
22649.51227
22662.22828
22674.93169
22687.62339
22701.1445
22715.90038
22730.22472
22757.38372
22784.34945
22808.73105
22838.98008
22866.13745
22905.70651
22917.97479
22916.25307
22932.44925
22917.13196
22896.24463
22867.77956
22842.74088
22837.08635
22788.66417
22800.82463
22773.1086
22761.76494
22768.48285
22744.31932
22764.80685
22769.52221
22764.49789
22787.41748
22790.40156
22824.78653
22854.66303
22869.12632
22927.70463
22954.75764
22996.753
23051.08369
23082.20363
23146.81334
23193.6088
23241.60513
23322.76036
23383.69207
23460.76866
23529.47263
23582.79879
23668.49199
23745.37564
23826.88165
23916.75283
23992.38459
24091.41059
24188.53122
24281.15632
24386.53084
24473.98493
24570.88156
24671.22433
24769.54679
24895.6164
25004.08379
25095.12427
25174.18366
25303.24673
25429.67273
25548.70374
25667.0431
25812.44025
25936.83718
26036.97775
26116.87476
26215.52469
26318.58448
26431.84603
26572.24332
26745.8205
26906.48479
27036.23322
27147.93544
27257.56705
27353.29408
27448.23069
27576.7355
27740.48834
27906.92197
28036.18638
28135.55957
28199.17754
28222.3553
22206.02807
22212.50685
22216.16928
22219.24478
22222.23439
22225.46949
22231.35101
22242.34594
22253.00356
22263.99512
22274.80357
22285.40888
22296.61451
22308.79489
22320.30555
22344.43277
22368.13481
22388.96495
22415.30047
22438.55382
22474.2396
22482.40528
22476.06004
22489.72281
22466.90813
22442.09462
22409.02878
22379.54365
22368.24363
22318.28674
22328.17207
22295.48645
22281.16212
22286.51295
22258.2944
22276.63728
22277.03799
22268.9338
22288.89466
22288.11542
22319.07612
22346.42753
22358.89134
22415.57426
22441.09024
22481.27971
22533.25099
22561.74842
22623.13233
22666.65942
22711.59598
22789.64787
22848.33816
22923.73159
22991.02878
23042.86632
23126.04794
23199.47718
23277.16433
23363.1052
23435.4868
23531.82225
23626.58203
23716.9788
23819.66599
23904.10942
23997.65425
24094.56645
24190.03943
24313.92342
24420.7717
24510.018
24586.16172
24709.99298
24829.71001
24942.76443
25057.52226
25201.31202
25326.19879
25427.48588
25507.4782
25603.61763
25700.84405
25806.46467
25940.2504
26109.25588
26267.78847
26397.19393
26509.33016
26618.88241
26712.91388
26804.13322
26928.24282
27088.5576
27253.55825
27383.00037
27483.03804
27546.98516
27570.15472
21817.90877
21823.51217
21826.30479
21828.4135
21830.32962
21832.38391
21837.00076
21846.64215
21855.79908
21865.12844
21874.11233
21882.71345
21891.70268
21901.4283
21910.25795
21931.46625
21951.99724
21969.3059
21991.67176
22010.96562
22042.96866
22047.87931
22036.91551
22048.22094
22018.60092
21989.80501
21952.41628
21918.56508
21902.23255
21850.42104
21858.24218
21821.04906
21803.94956
21808.06607
21776.58542
21793.27349
21788.4042
21778.50703
21796.61441
21791.15321
21819.025
21843.84866
21854.33682
21909.14437
21933.34662
21972.11678
22022.22251
22048.57197
22107.15839
22147.66116
22189.59001
22264.47903
22320.81499
22394.54167
22460.64549
22511.39888
22592.59097
22663.05088
22737.24372
22819.37062
22888.43178
22981.99633
23074.4216
23162.78546
23263.09895
23344.81418
23435.16987
23528.60744
23621.00596
23742.49046
23847.73226
23935.5088
24009.30795
24128.39307
24241.57228
24348.34973
24458.8563
24600.22489
24724.98023
24827.2481
24907.63296
25001.67611
25093.47497
25191.50511
25318.20027
25481.7972
25637.30789
25765.61468
25877.62553
25986.68884
26078.78708
26166.03859
26285.17381
26441.07059
26603.52577
26732.25398
26832.26665
26896.08584
26919.0637
21428.67995
21433.41942
21435.36736
21436.5499
21437.43759
21438.34832
21441.74364
21450.08662
21457.80344
21465.5331
21472.75857
21479.42707
21486.28354
21493.66937
21499.97094
21518.42787
21535.96129
21549.87653
21568.2784
21583.4504
21611.65062
21614.051
21598.69213
21607.69839
21571.91033
21539.17692
21497.71815
21459.65474
21438.80162
21384.69395
21390.62021
21349.39764
21329.53474
21332.43316
21298.33735
21313.49626
21303.86992
21292.44688
21309.09189
21299.36275
21324.13999
21346.30424
21354.93642
21407.73511
21430.74781
21468.41402
21517.11843
21541.79956
21598.08994
21635.90521
21674.97267
21746.71602
21800.58052
21872.60513
21937.65039
21987.66135
22067.39832
22135.43705
22206.56506
22285.11079
22350.85176
22441.60054
22531.7133
22618.23273
22716.52319
22795.86334
22883.3085
22973.36369
23062.55418
23181.47139
23285.09743
23371.70179
23443.74431
23558.70271
23665.73712
23766.18205
23871.96836
24010.25972
24134.30544
24237.36604
24318.42854
24410.85317
24497.77296
24588.49026
24707.8867
24865.52603
25017.35749
25143.96427
25255.40249
25363.68864
25453.7487
25536.95512
25650.78437
25801.58053
25960.65181
26087.96702
26187.40749
26250.73504
26273.37192
21038.09931
21041.99425
21043.11446
21043.39145
21043.29089
21043.11136
21045.30985
21052.40498
21058.74527
21064.94109
21070.47524
21075.27716
21080.06384
21085.18363
21089.07968
21104.97007
21119.73452
21130.48936
21145.13972
21156.23009
21180.38276
21179.8798
21160.87694
21167.67331
21126.34607
21089.75812
21044.48068
21002.41489
20977.38647
20920.5233
20924.56366
20879.90675
20857.21691
20858.63948
20822.56712
20836.28457
20822.76121
20809.72054
20825.0718
20811.70899
20833.73889
20852.91075
20859.87265
20910.43353
20932.28672
20969.07934
21016.79307
21040.26442
21094.80625
21130.3485
21166.79795
21235.50872
21286.80921
21357.0631
21421.10501
21470.63373
21549.43283
21615.63285
21684.21077
21759.51744
21822.01673
21909.94726
21997.76702
22082.60993
22179.2372
22256.60051
22341.50497
22428.39403
22514.34106
22630.57842
22732.55469
22818.23887
22889.09675
23000.63229
23102.08401
23196.34915
23297.13709
23431.85762
23554.67086
23658.31309
23740.3106
23831.62973
23914.31288
23998.16551
24110.2791
24261.66391
24409.37232
24533.82512
24644.35067
24751.68191
24839.7115
24918.93711
25027.33936
25172.61858
25327.72481
25453.11748
25551.58365
25614.15202
25636.33405
20645.70423
20648.77846
20649.25053
20648.56466
20647.45457
20646.22522
20647.27593
20653.14832
20658.16981
20662.89731
20666.81064
20669.8147
20672.61736
20675.51098
20677.02435
20690.48451
20702.7102
20710.55205
20721.80509
20729.2152
20749.11563
20744.6818
20722.74142
20727.353
20681.21814
20640.8359
20591.96689
20546.12712
20517.22509
20457.18741
20458.99328
20411.68334
20386.192
20385.48752
20348.12973
20360.54659
20343.7974
20329.10251
20343.28057
20326.61642
20346.87069
20362.77559
20367.80968
20416.09675
20436.74635
20472.80626
20519.86877
20542.54414
20595.9041
20629.64598
20663.81245
20729.71272
20778.40999
20846.81742
20909.84173
20959.05635
21037.39345
21102.34435
21168.95175
21241.46152
21300.88294
21386.04522
21471.59433
21554.90202
21650.2159
21726.02208
21808.82308
21892.87096
21975.64075
22089.15319
22189.42677
22274.3851
22344.5891
22453.45176
22550.00523
22638.41318
22734.09927
22864.91667
22986.0406
23090.03278
23173.18417
23263.92472
23343.06872
23420.6251
23525.64897
23670.69442
23814.02354
23936.00223
24045.37254
24151.6672
24237.7658
24313.18488
24416.20904
24555.7805
24706.56743
24829.70212
24926.92954
24988.56333
25010.21054
20250.99296
20253.30452
20253.07484
20251.43273
20249.33485
20247.04585
20247.08379
20251.70698
20255.44417
20258.74947
20261.10681
20262.36425
20263.3442
20264.12065
20263.14024
20274.16675
20284.03083
20289.17888
20297.1881
20301.72605
20317.24242
20308.56338
20283.52755
20285.6122
20235.6063
20191.44826
20139.15432
20089.74188
20057.28524
19993.86231
19992.56096
19943.49472
19915.32648
19911.77532
19873.64849
19884.93303
19865.41594
19849.14117
19862.2994
19842.7216
19861.59426
19874.74257
19877.21665
19923.35747
19942.69865
19978.08252
20024.7527
20046.98055
20099.71996
20132.17079
20164.46883
20227.89533
20274.02879
20340.53801
20402.48119
20451.45661
20529.74844
20594.02232
20659.28331
20729.52732
20786.12493
20868.63375
20951.94649
21033.83443
21128.16316
21202.83382
21284.01418
21365.63692
21445.39873
21556.2224
21654.73505
21739.09605
21809.11939
21916.07764
22008.50042
22091.50685
22182.14239
22308.88053
22427.93398
22532.02923
22616.50843
22707.19594
22783.52484
22855.43206
22953.69407
23092.48817
23231.34143
23350.64325
23458.70105
23563.95846
23648.29815
23720.16656
23817.99243
23951.84767
24098.15143
24218.84442
24314.69257
24375.30041
24396.36352
19853.1969
19855.0046
19853.68946
19851.27549
19848.2443
19844.92186
19843.80259
19847.29884
19849.78071
19851.66567
19852.47537
19852.33625
19851.38803
19850.07539
19846.7011
19855.12524
19862.58506
19865.49392
19870.40615
19871.98464
19884.43635
19870.88909
19842.58076
19841.0622
19788.32879
19740.39087
19684.75241
19631.8926
19596.13653
19529.2894
19524.036
19473.76384
19442.88042
19436.45328
19397.49458
19407.80872
19385.83161
19368.10377
19380.41947
19358.26581
19376.04222
19387.06412
19386.30943
19430.61032
19448.48333
19483.17735
19529.63361
19551.68106
19604.33516
19636.01889
19666.9262
19728.32887
19772.03558
19836.6513
19897.42924
19946.15588
20024.75011
20088.88033
20153.44421
20222.03105
20276.15083
20356.19877
20437.33417
20517.89896
20611.54506
20685.48854
20765.5595
20845.24496
20922.26996
21030.53555
21127.24241
21211.06881
21281.31592
21387.13831
21476.25084
21554.41148
21640.1814
21762.81296
21879.49908
21983.4433
22069.37667
22160.52532
22234.77062
22301.72222
22393.6486
22526.41703
22660.831
22777.35389
22884.01485
22988.30115
23071.11021
23139.74181
23232.64607
23360.91852
23502.72856
23620.92276
23715.35873
23774.92336
23795.37985
19451.2982
19452.62955
19450.30953
19447.07359
19443.13707
19438.81176
19436.62086
19438.9689
19440.22581
19440.85199
19440.29189
19438.27955
19435.55143
19432.22354
19426.74563
19432.62489
19437.44891
19438.15795
19440.86484
19438.38838
19449.02532
19430.42587
19398.81884
19392.61895
19337.92502
19286.20418
19227.2066
19170.92482
19131.96786
19061.52147
19052.35794
19000.68018
18967.00109
18957.90976
18917.76984
18927.24085
18902.99192
18883.93654
18895.59661
18871.14186
18888.08527
18897.49088
18893.14054
18935.95586
18952.16432
18986.10434
19032.45505
19054.49875
19107.56098
19138.99514
19169.03412
19228.96923
19270.49542
19333.30968
19392.85223
19441.25479
19520.42936
19584.89368
19649.4173
19717.02179
19769.10034
19846.9706
19926.02876
20005.35957
20098.60286
20172.20457
20251.69327
20329.98414
20404.6393
20510.58428
20605.47674
20688.77438
20759.57281
20865.017
20951.67148
21025.61455
21106.81666
21225.45454
21339.56893
21443.11096
21530.57815
21622.68492
21695.57456
21758.28713
21844.37333
21971.44994
22101.57124
22215.29867
22320.54009
22423.97609
22505.52626
22571.27486
22659.60329
22782.53323
22919.95824
23035.69893
23128.78107
23187.34949
23207.19961
19044.08705
19044.95727
19041.67102
19037.59448
19032.75714
19027.44489
19024.22331
19025.57042
19025.75481
19025.00867
19022.83577
19019.1597
19014.5979
19009.23043
19001.5898
19005.84791
19008.1376
19005.5516
19006.31752
19000.04229
19009.11266
18985.44473
18950.32292
18939.58339
18882.67175
18827.13827
18764.67084
18704.89353
18662.72466
18588.46723
18575.75246
18522.16329
18485.58758
18474.00406
18432.24506
18440.95702
18414.50633
18394.21534
18405.4099
18378.8458
18395.17937
18403.22762
18395.64955
18437.0726
18451.46135
18484.55615
18530.85991
18552.98591
18606.89952
18638.57596
18668.29533
18727.41568
18767.12066
18828.33987
18886.62847
18934.59391
19014.56725
19079.77716
19144.90959
19212.26236
19262.82381
19338.90258
19416.04371
19494.23692
19587.34514
19660.96444
19740.40521
19817.88585
19890.62463
19994.60353
20087.73482
20170.46882
20242.06652
20347.873
20432.94064
20503.34571
20580.37161
20695.26036
20806.69883
20909.60268
20998.64061
21092.18299
21164.43682
21223.6346
21304.42326
21426.22681
21552.29323
21663.28158
21767.13317
21869.88491
21950.48231
22013.72876
22097.87516
22215.78145
22349.0205
22462.43361
22554.29683
22611.97177
22631.23503
18630.08964
18630.52095
18626.29293
18621.35803
18615.60606
18609.30734
18605.13015
18605.85881
18604.45059
18602.42973
18598.78033
18593.46714
18587.06712
18579.68945
18569.99695
18572.90731
18572.33377
18566.74527
18564.49496
18555.43096
18562.84258
18534.05223
18495.19858
18480.31861
18420.56948
18361.09816
18294.94837
18231.50277
18186.04103
18107.7112
18091.7843
18035.72035
17996.12134
17982.11956
17938.26631
17946.26493
17917.55487
17896.06339
17906.98642
17878.42489
17894.36292
17901.27684
17890.94144
17931.18507
17943.65633
17975.80479
18022.09913
18044.31317
18099.47262
18131.84199
18161.79977
18220.84528
18259.19943
18319.16652
18376.27201
18423.68512
18504.6386
18570.93681
18637.3078
18705.18696
18754.83924
18829.62785
18905.0932
18982.27134
19075.51638
19149.49046
19229.4208
19306.70923
19378.06168
19480.55435
19572.06563
19654.18316
19726.75106
19833.64202
19918.00753
19985.59089
20058.90952
20170.41762
20279.184
20381.24301
20471.85267
20567.28957
20639.62005
20696.02641
20772.09187
20889.10902
21011.43539
21119.80459
21222.34178
21324.61399
21404.59333
21465.73742
21546.12894
21659.38791
21788.70742
21899.98131
21990.82518
22047.75874
22066.4711