/*--------------------------------*- C++ -*----------------------------------*\
| =========                 |                                                 |
| \\      /  F ield         | OpenFOAM: The Open Source CFD Toolbox           |
|  \\    /   O peration     | Version:  v1706                                 |
|   \\  /    A nd           | Web:      www.OpenFOAM.com                      |
|    \\/     M anipulation  |                                                 |
\*---------------------------------------------------------------------------*/
FoamFile
{
    version     2.0;
    format      ascii;
    class       volVectorField;
    location    "0.00953";
    object      U;
}
// * * * * * * * * * * * * * * * * * * * * * * * * * * * * * * * * * * * * * //

dimensions      [0 1 -1 0 0 0 0];


internalField   nonuniform List<vector> 
23482
(
(2359.67842 3121.512692 0)
(2304.020768 3082.989225 0)
(2248.783502 3044.76918 0)
(2195.46146 3005.598297 0)
(2142.683552 2964.651604 0)
(2091.805501 2924.960975 0)
(2042.96238 2884.65071 0)
(1995.419941 2842.715463 0)
(1948.779505 2801.428942 0)
(1903.47408 2758.329109 0)
(1860.124692 2716.441424 0)
(1817.879239 2674.257288 0)
(1777.410721 2630.900236 0)
(1737.499116 2588.579186 0)
(1698.497021 2544.295374 0)
(1661.142537 2500.65289 0)
(1623.97696 2456.931545 0)
(1587.808288 2411.855494 0)
(1553.076654 2367.730137 0)
(1518.329378 2323.076096 0)
(1485.498309 2278.315822 0)
(1453.143677 2234.368467 0)
(1421.690994 2189.831302 0)
(1392.322217 2145.880996 0)
(1362.433441 2101.854169 0)
(1333.6329 2056.946317 0)
(1305.482478 2012.327548 0)
(1277.375413 1967.17191 0)
(1251.119051 1921.95383 0)
(1224.616797 1877.166684 0)
(1198.572697 1831.683068 0)
(1173.809031 1786.613261 0)
(1149.12111 1741.834359 0)
(1126.137535 1697.074411 0)
(1103.739109 1652.722406 0)
(1081.21215 1608.00726 0)
(1059.942344 1563.428463 0)
(1038.750106 1518.955673 0)
(1018.403599 1474.862722 0)
(999.4802113 1430.924129 0)
(980.4546145 1387.420313 0)
(962.88994 1343.995534 0)
(945.0276036 1300.09714 0)
(927.1303993 1255.992196 0)
(910.4939574 1211.124984 0)
(893.2255355 1167.018903 0)
(877.879737 1121.071024 0)
(859.4723908 1076.187197 0)
(845.3680823 1031.441393 0)
(830.0452394 989.0956329 0)
(818.7647027 946.5269816 0)
(806.1466495 905.7532542 0)
(797.0573036 864.7009265 0)
(786.0953973 823.9545505 0)
(777.2193743 781.2066299 0)
(764.3539812 737.1249397 0)
(751.9337418 691.5363314 0)
(737.6970789 646.1346873 0)
(724.8144286 600.9730465 0)
(712.5658402 557.5969563 0)
(704.7901349 515.3236534 0)
(697.8908582 474.3058605 0)
(693.1941272 433.7745268 0)
(688.8592355 393.5749638 0)
(685.3679698 352.796321 0)
(679.7335229 310.5030431 0)
(670.1811446 267.2337098 0)
(659.196333 224.1486706 0)
(650.1778066 182.0880183 0)
(646.3174687 140.731317 0)
(645.2772909 100.0522769 0)
(646.529211 60.0838538 0)
(650.4011831 19.82135235 0)
(3153.996407 3528.392208 0)
(3145.617842 3524.850974 0)
(3136.721561 3521.43247 0)
(3126.950281 3517.409288 0)
(3116.212143 3513.187407 0)
(3104.435009 3508.322708 0)
(3091.3751 3502.99988 0)
(3076.824497 3496.689254 0)
(3060.889205 3489.9776 0)
(3043.434246 3482.265528 0)
(3024.282509 3474.01225 0)
(3003.361659 3464.561549 0)
(2980.349296 3454.39389 0)
(2955.150597 3442.637605 0)
(2927.54492 3430.303653 0)
(2896.889634 3415.292199 0)
(2863.148211 3400.129606 0)
(2827.081253 3381.89858 0)
(2786.631594 3363.706624 0)
(2744.17126 3341.180421 0)
(2697.902102 3319.126652 0)
(2651.313939 3293.677561 0)
(2602.77094 3269.48438 0)
(2551.500895 3239.103001 0)
(2498.368919 3210.767763 0)
(2444.27477 3176.070611 0)
(2387.536225 3142.579893 0)
(2332.078439 3104.167098 0)
(2276.905261 3065.961865 0)
(2223.718165 3026.599054 0)
(2170.831027 2985.525304 0)
(2119.858995 2945.510549 0)
(2070.888626 2905.16219 0)
(2023.192179 2862.959598 0)
(1976.376461 2821.371771 0)
(1930.779239 2777.994969 0)
(1887.209433 2735.784905 0)
(1844.772149 2693.414832 0)
(1804.093069 2649.856864 0)
(1764.076436 2607.371698 0)
(1724.891706 2563.007992 0)
(1687.41552 2519.181869 0)
(1650.095636 2475.329471 0)
(1613.663913 2430.057509 0)
(1578.716085 2385.613084 0)
(1543.618903 2340.648019 0)
(1510.431382 2295.497832 0)
(1477.757242 2251.18166 0)
(1445.917872 2206.337184 0)
(1416.30786 2162.091843 0)
(1386.183661 2117.887518 0)
(1357.154834 2072.848189 0)
(1328.864304 2028.100201 0)
(1300.513577 1982.812576 0)
(1274.043698 1937.346895 0)
(1247.2744 1892.288156 0)
(1220.83213 1846.436712 0)
(1195.710663 1800.976725 0)
(1170.637242 1755.855703 0)
(1147.322166 1710.75978 0)
(1124.651399 1666.107282 0)
(1101.830346 1621.125995 0)
(1080.229435 1576.185722 0)
(1058.643205 1531.307527 0)
(1037.985504 1486.933724 0)
(1018.682515 1442.488173 0)
(999.2924711 1398.670094 0)
(981.524601 1355.048551 0)
(963.4288546 1310.968032 0)
(945.3262245 1266.805322 0)
(928.6060492 1221.825118 0)
(911.153384 1177.556763 0)
(895.6134747 1131.26769 0)
(876.7181623 1085.842038 0)
(862.0929431 1040.333688 0)
(846.2129253 997.3663458 0)
(834.3929134 954.1720697 0)
(821.3160932 912.9906952 0)
(812.0700038 871.6762199 0)
(801.0730151 830.9298581 0)
(792.4259149 788.2907342 0)
(779.782464 744.2526042 0)
(767.4139265 698.483798 0)
(752.9080045 652.6199984 0)
(739.4468215 606.8516948 0)
(726.5296126 562.8769013 0)
(718.2815369 520.0144789 0)
(710.9813529 478.4796891 0)
(705.9989504 437.5211881 0)
(701.5438075 397.0417847 0)
(698.2083909 356.085053 0)
(692.8240405 313.5731298 0)
(683.2692211 269.9534327 0)
(671.9518479 226.434526 0)
(662.4708635 183.9009363 0)
(658.3132845 142.10031 0)
(657.0650319 100.9948569 0)
(658.2142495 60.64670174 0)
(662.1645417 19.96535227 0)
(3180.419643 3549.303475 0)
(3172.056352 3545.77443 0)
(3163.192007 3542.338264 0)
(3153.456954 3538.342331 0)
(3142.758754 3534.110545 0)
(3131.026112 3529.276821 0)
(3118.009539 3523.954788 0)
(3103.493459 3517.68893 0)
(3087.604972 3510.977182 0)
(3070.200962 3503.323337 0)
(3051.113488 3495.06676 0)
(3030.263065 3485.669919 0)
(3007.334917 3475.471659 0)
(2982.22172 3463.74338 0)
(2954.719201 3451.29905 0)
(2924.120948 3436.307845 0)
(2890.481303 3420.922486 0)
(2854.494059 3402.737322 0)
(2814.156093 3384.376342 0)
(2771.846534 3361.941146 0)
(2725.6203 3339.876618 0)
(2679.211212 3314.400677 0)
(2630.837047 3290.193935 0)
(2579.666554 3259.898423 0)
(2526.686527 3231.477798 0)
(2472.80615 3196.839175 0)
(2416.175133 3163.259837 0)
(2360.915846 3124.968508 0)
(2305.808195 3086.819377 0)
(2252.79038 3047.296411 0)
(2199.820145 3006.138249 0)
(2148.790547 2965.806448 0)
(2099.721107 2925.466082 0)
(2051.900678 2883.033327 0)
(2004.936699 2841.147868 0)
(1959.042962 2797.480578 0)
(1915.240888 2754.908756 0)
(1872.592395 2712.316635 0)
(1831.67313 2668.51173 0)
(1791.540572 2625.829098 0)
(1752.164653 2581.375637 0)
(1714.581705 2537.370596 0)
(1677.142449 2493.418792 0)
(1640.484902 2448.001963 0)
(1605.369753 2403.280724 0)
(1569.954879 2358.03969 0)
(1536.423498 2312.510125 0)
(1503.431862 2267.806115 0)
(1471.176562 2222.619682 0)
(1441.294296 2178.030703 0)
(1410.907471 2133.607028 0)
(1381.62592 2088.413878 0)
(1353.207412 2043.538703 0)
(1324.634609 1998.154615 0)
(1297.9871 1952.489319 0)
(1270.993804 1907.195967 0)
(1244.185922 1861.027751 0)
(1218.698596 1815.157265 0)
(1193.225243 1769.672547 0)
(1169.56484 1724.219619 0)
(1146.612501 1679.263182 0)
(1123.507121 1634.031992 0)
(1101.629393 1588.816128 0)
(1079.62018 1543.538135 0)
(1058.683387 1498.863436 0)
(1038.980251 1453.912546 0)
(1019.206142 1409.799833 0)
(1001.201215 1365.868959 0)
(982.8461002 1321.580245 0)
(964.5213654 1277.368214 0)
(947.7414048 1232.313148 0)
(930.1326348 1187.962673 0)
(914.449657 1141.418115 0)
(895.1201382 1095.541436 0)
(879.9905797 1049.328471 0)
(863.4916165 1005.585937 0)
(851.1058031 961.8285129 0)
(837.506079 920.1562133 0)
(828.0331861 878.5212388 0)
(816.9382285 837.7381555 0)
(808.4975403 795.2113847 0)
(796.1040229 751.2711367 0)
(783.8462367 705.3924921 0)
(769.1218004 659.1150123 0)
(755.0818028 612.7639862 0)
(741.4608442 568.1989374 0)
(732.705704 524.7414973 0)
(724.9689852 482.6743785 0)
(719.6563193 441.2671703 0)
(715.0314607 400.4902003 0)
(711.8252652 359.3518603 0)
(706.697881 316.6332611 0)
(697.1548623 272.6772882 0)
(685.4989645 228.7404396 0)
(675.5299707 185.7579788 0)
(671.052839 143.4727464 0)
(669.5746771 101.9266528 0)
(670.6107101 61.20018875 0)
(674.6303653 20.10895087 0)
(3207.718524 3570.109426 0)
(3199.373576 3566.591295 0)
(3190.545 3563.132746 0)
(3180.848847 3559.158905 0)
(3170.194452 3554.912716 0)
(3158.509127 3550.101924 0)
(3145.539536 3544.776886 0)
(3131.061239 3538.547558 0)
(3115.22355 3531.834844 0)
(3097.873998 3524.233623 0)
(3078.854969 3515.979756 0)
(3058.078511 3506.637361 0)
(3035.23885 3496.423099 0)
(3010.214472 3484.728003 0)
(2982.818712 3472.18975 0)
(2952.279667 3457.213291 0)
(2918.740019 3441.604704 0)
(2882.825533 3423.433265 0)
(2842.590497 3404.870905 0)
(2800.410918 3382.496282 0)
(2754.207474 3360.392574 0)
(2707.957776 3334.878963 0)
(2659.723712 3310.621991 0)
(2608.616038 3280.385152 0)
(2555.75566 3251.847838 0)
(2502.054169 3217.249824 0)
(2445.507411 3183.540256 0)
(2390.45403 3145.371843 0)
(2335.427257 3107.322686 0)
(2282.632125 3067.665445 0)
(2229.613675 3026.467647 0)
(2178.580207 2985.82044 0)
(2129.456161 2945.536595 0)
(2081.558214 2902.924673 0)
(2034.491782 2860.757576 0)
(1988.312261 2816.799772 0)
(1944.27652 2773.834284 0)
(1901.401419 2730.986906 0)
(1860.211051 2686.884428 0)
(1819.940743 2643.958302 0)
(1780.350439 2599.388553 0)
(1742.657387 2555.191374 0)
(1705.117678 2511.157003 0)
(1668.264014 2465.640695 0)
(1633.029597 2420.688885 0)
(1597.338081 2375.219181 0)
(1563.489723 2329.339235 0)
(1530.19581 2284.244148 0)
(1497.508692 2238.693922 0)
(1467.327817 2193.716623 0)
(1436.648558 2149.0263 0)
(1407.081004 2103.645345 0)
(1378.529969 2058.627852 0)
(1349.743208 2013.169777 0)
(1322.951533 1967.348338 0)
(1295.768917 1921.857026 0)
(1268.639787 1875.429524 0)
(1242.810721 1829.17274 0)
(1216.923484 1783.308419 0)
(1192.89796 1737.468996 0)
(1169.632019 1692.174715 0)
(1146.239775 1646.713009 0)
(1124.135105 1601.268308 0)
(1101.729435 1555.664736 0)
(1080.501006 1510.620983 0)
(1060.419129 1465.252777 0)
(1040.233533 1420.771916 0)
(1021.952764 1376.45838 0)
(1003.308275 1331.935231 0)
(984.733736 1287.655663 0)
(967.9089087 1242.540446 0)
(950.1711152 1198.169553 0)
(934.4035051 1151.454866 0)
(914.7049505 1105.222923 0)
(899.1199792 1058.371249 0)
(881.972825 1013.864265 0)
(868.9670596 969.4362124 0)
(854.791128 927.2394541 0)
(845.0234135 885.2287421 0)
(833.7626606 844.3626096 0)
(825.4972955 801.937942 0)
(813.3774872 758.1430249 0)
(801.2949052 712.2268338 0)
(786.4145719 665.5902552 0)
(771.8053163 618.6864091 0)
(757.4502175 573.5455272 0)
(748.1559716 529.4919768 0)
(739.9492884 486.8803158 0)
(734.2627415 445.004744 0)
(729.417063 403.9123519 0)
(726.3106614 362.5870588 0)
(721.4461363 319.6730264 0)
(711.9306356 275.3939686 0)
(699.9302435 231.0504165 0)
(689.452771 187.6304924 0)
(684.6350687 144.8582728 0)
(682.9017636 102.8610565 0)
(683.8100183 61.74538325 0)
(687.891808 20.25838516 0)
(3235.876073 3590.77719 0)
(3227.552069 3587.265671 0)
(3218.761439 3583.781013 0)
(3209.105138 3579.82318 0)
(3198.496173 3575.558996 0)
(3186.858633 3570.762303 0)
(3173.93685 3565.429891 0)
(3159.496779 3559.227196 0)
(3143.710249 3552.510861 0)
(3126.414772 3544.954374 0)
(3107.463493 3536.707292 0)
(3086.759669 3527.418844 0)
(3064.007177 3517.204086 0)
(3039.07026 3505.550769 0)
(3011.780572 3492.942421 0)
(2981.300586 3477.984343 0)
(2947.858601 3462.166207 0)
(2912.010263 3443.98596 0)
(2871.870835 3425.199801 0)
(2829.800644 3402.856198 0)
(2783.600959 3380.688988 0)
(2737.494874 3355.133736 0)
(2689.383669 3330.800424 0)
(2638.317303 3300.600873 0)
(2585.572524 3271.922537 0)
(2532.030507 3237.350412 0)
(2475.545973 3203.44893 0)
(2420.695331 3165.373468 0)
(2365.770091 3127.460107 0)
(2313.243093 3087.677446 0)
(2260.203279 3046.477826 0)
(2209.208882 3005.500723 0)
(2160.069332 2965.314166 0)
(2112.141954 2922.584843 0)
(2065.026268 2880.165333 0)
(2018.583187 2835.933515 0)
(1974.321829 2792.55651 0)
(1931.210125 2749.431194 0)
(1889.72141 2704.983314 0)
(1849.285594 2661.761159 0)
(1809.448678 2617.034571 0)
(1771.628478 2572.614614 0)
(1733.991114 2528.49733 0)
(1696.96166 2482.915541 0)
(1661.651413 2437.779245 0)
(1625.729149 2392.136503 0)
(1591.60299 2345.95245 0)
(1558.034541 2300.480989 0)
(1524.914153 2254.560795 0)
(1494.415848 2209.158348 0)
(1463.415223 2164.151793 0)
(1433.526279 2118.539169 0)
(1404.82695 2073.347628 0)
(1375.822857 2027.821294 0)
(1348.91224 1981.874671 0)
(1321.581212 1936.235883 0)
(1294.173971 1889.604049 0)
(1268.042217 1843.001511 0)
(1241.750884 1796.769486 0)
(1217.352026 1750.531175 0)
(1193.739743 1704.868341 0)
(1170.044579 1659.176389 0)
(1147.719625 1613.486233 0)
(1124.968999 1567.623001 0)
(1103.435254 1522.202412 0)
(1083.029949 1476.503421 0)
(1062.396066 1431.56578 0)
(1043.822837 1386.860311 0)
(1024.849024 1342.048323 0)
(1005.984237 1297.66467 0)
(989.1136547 1252.48106 0)
(971.2645897 1208.130233 0)
(955.4693266 1161.321403 0)
(935.477649 1114.83462 0)
(919.5044188 1067.425326 0)
(901.7197496 1022.18728 0)
(888.040289 977.0103121 0)
(873.2320247 934.2493805 0)
(863.1060217 891.8009403 0)
(851.6059808 850.795042 0)
(843.4742332 808.4466012 0)
(831.645939 764.8337634 0)
(819.8082354 718.9513615 0)
(804.8479824 672.0153855 0)
(789.6912657 624.5942433 0)
(774.5784425 578.8977015 0)
(764.7173919 534.2519529 0)
(756.0106424 491.0872138 0)
(749.908704 448.7257899 0)
(744.7906329 407.3002437 0)
(741.7526488 365.7808088 0)
(737.1566757 322.6817606 0)
(727.6873925 278.0929166 0)
(715.339509 233.3525653 0)
(704.3340061 189.5042556 0)
(699.1565271 146.2511473 0)
(697.1436553 103.8032463 0)
(697.9070883 62.29547515 0)
(702.0452721 20.4099464 0)
(3264.855444 3611.288774 0)
(3256.553518 3607.777091 0)
(3247.798893 3604.263693 0)
(3238.180939 3600.31596 0)
(3227.616586 3596.03234 0)
(3216.025181 3591.242294 0)
(3203.149676 3585.899117 0)
(3188.746001 3579.713866 0)
(3173.008434 3572.990796 0)
(3155.764026 3565.470766 0)
(3136.877177 3557.232801 0)
(3116.242371 3547.997441 0)
(3093.574153 3537.797076 0)
(3068.723054 3526.197211 0)
(3041.540889 3513.547333 0)
(3011.12324 3498.621376 0)
(2977.785763 3482.619819 0)
(2942.007178 3464.421755 0)
(2901.972315 3445.400512 0)
(2860.004226 3423.062827 0)
(2813.803736 3400.809861 0)
(2767.83746 3375.210274 0)
(2719.843504 3350.776258 0)
(2668.802345 3320.584921 0)
(2616.189354 3291.735092 0)
(2562.806602 3257.178529 0)
(2506.352331 3223.007581 0)
(2451.650286 3184.961877 0)
(2396.839032 3147.187715 0)
(2344.6003 3107.301341 0)
(2291.561368 3066.124862 0)
(2240.630659 3024.790411 0)
(2191.502388 2984.72938 0)
(2143.593738 2941.953818 0)
(2096.488352 2899.325337 0)
(2049.816089 2854.854475 0)
(2005.349637 2811.066423 0)
(1962.001118 2767.657457 0)
(1920.195466 2722.826635 0)
(1879.565334 2679.255653 0)
(1839.443046 2634.321716 0)
(1801.46617 2589.631347 0)
(1763.717005 2545.410439 0)
(1726.518754 2499.779176 0)
(1691.166984 2454.497353 0)
(1655.06005 2408.739128 0)
(1620.704592 2362.311087 0)
(1586.901796 2316.496816 0)
(1553.363095 2270.219767 0)
(1522.53952 2224.368599 0)
(1491.192292 2178.998906 0)
(1460.9462 2133.103861 0)
(1432.073124 2087.690967 0)
(1402.837914 2042.083525 0)
(1375.821778 1996.027198 0)
(1348.378273 1950.287733 0)
(1320.741912 1903.511469 0)
(1294.357345 1856.613782 0)
(1267.675275 1810.036739 0)
(1242.924857 1763.41435 0)
(1218.929245 1717.349876 0)
(1194.915326 1671.410009 0)
(1172.373697 1625.456897 0)
(1149.310002 1579.356677 0)
(1127.477107 1533.61092 0)
(1106.783596 1487.593691 0)
(1085.71934 1442.213563 0)
(1066.82752 1397.091936 0)
(1047.49294 1351.93524 0)
(1028.290663 1307.402111 0)
(1011.359336 1262.124134 0)
(993.4023405 1217.813065 0)
(977.6270722 1170.972787 0)
(957.4227228 1124.330965 0)
(941.14453 1076.452875 0)
(922.7581152 1030.518613 0)
(908.3761799 984.5774224 0)
(892.8784735 941.201248 0)
(882.3335619 898.2475424 0)
(870.5160835 857.0373157 0)
(862.4633815 814.7235332 0)
(850.9344245 771.3152365 0)
(839.4143654 725.5334424 0)
(824.4641063 678.361153 0)
(808.7961205 630.4629076 0)
(792.9108459 584.236074 0)
(782.4612722 539.0070323 0)
(773.2290175 495.2846781 0)
(766.6735033 452.422351 0)
(761.2321847 410.6462966 0)
(758.2301234 368.9236679 0)
(753.9089022 325.6489208 0)
(744.5087366 280.7640998 0)
(731.8150936 235.6377869 0)
(720.2640524 191.3721496 0)
(714.7091337 147.6468033 0)
(712.393417 104.7527339 0)
(712.9957997 62.85288603 0)
(717.1858353 20.56307694 0)
(3294.616527 3631.62205 0)
(3286.332962 3628.122421 0)
(3277.608311 3624.578371 0)
(3268.025417 3620.638134 0)
(3257.504388 3616.335213 0)
(3245.957865 3611.547258 0)
(3233.12774 3606.191478 0)
(3218.759598 3600.016409 0)
(3203.070158 3593.28356 0)
(3185.87555 3585.791682 0)
(3167.052146 3577.562843 0)
(3146.485731 3568.378002 0)
(3123.902737 3558.20375 0)
(3099.140654 3546.668425 0)
(3072.073619 3534.005964 0)
(3041.727802 3519.130751 0)
(3008.511129 3502.978795 0)
(2972.816314 3484.762538 0)
(2932.908949 3465.501708 0)
(2891.049154 3443.146151 0)
(2844.85883 3420.783469 0)
(2799.036269 3395.135204 0)
(2751.153058 3370.57684 0)
(2700.104868 3340.350688 0)
(2647.619985 3311.28264 0)
(2594.40287 3276.733462 0)
(2537.93741 3242.254201 0)
(2483.354337 3204.132635 0)
(2428.536701 3166.507728 0)
(2376.719628 3126.472557 0)
(2323.653361 3085.373281 0)
(2272.786537 3043.649742 0)
(2223.672949 3003.726144 0)
(2175.833276 2960.972889 0)
(2128.798846 2918.188476 0)
(2081.942647 2873.529911 0)
(2037.304001 2829.349716 0)
(1993.730728 2785.671983 0)
(1951.603078 2740.437992 0)
(1910.754731 2696.472449 0)
(1870.307132 2651.277878 0)
(1832.135083 2606.256243 0)
(1794.243412 2561.889992 0)
(1756.866969 2516.202675 0)
(1721.493942 2470.799835 0)
(1685.242684 2424.977493 0)
(1650.710636 2378.373268 0)
(1616.723904 2332.26667 0)
(1582.79873 2285.666912 0)
(1551.656314 2239.361873 0)
(1519.945079 2193.591116 0)
(1489.309311 2147.361846 0)
(1460.229471 2101.668466 0)
(1430.738692 2055.948522 0)
(1403.6168 2009.779754 0)
(1376.08775 1963.97357 0)
(1348.270213 1917.112649 0)
(1321.69522 1869.981739 0)
(1294.651614 1823.10383 0)
(1269.570301 1776.102111 0)
(1245.177202 1729.624612 0)
(1220.816882 1683.396602 0)
(1198.060644 1637.165125 0)
(1174.708667 1590.838382 0)
(1152.587726 1544.825716 0)
(1131.649084 1498.497823 0)
(1110.174958 1452.712206 0)
(1090.960528 1407.1628 0)
(1071.241084 1361.609012 0)
(1051.653978 1316.877179 0)
(1034.638724 1271.46567 0)
(1016.564184 1227.195571 0)
(1000.842574 1180.370959 0)
(980.5045058 1133.670552 0)
(964.019699 1085.421844 0)
(945.0906809 1038.839248 0)
(929.9939587 992.1363983 0)
(913.7613828 948.1063852 0)
(902.7421602 904.5819623 0)
(890.5273352 863.0987362 0)
(882.4863249 820.7648813 0)
(871.2500316 777.5675804 0)
(860.1192044 731.9454121 0)
(845.2817646 684.6012593 0)
(829.1545614 636.2694068 0)
(812.4926153 589.5419534 0)
(801.4402074 543.7432263 0)
(791.6629308 499.4628178 0)
(784.6201789 456.0871813 0)
(778.8066029 413.9439237 0)
(775.8075468 372.007238 0)
(771.7682923 328.5646699 0)
(762.4652792 283.398016 0)
(749.4338655 237.8976148 0)
(737.3233017 193.2279023 0)
(731.3757899 149.0407488 0)
(728.735867 105.7074406 0)
(729.1627428 63.41747476 0)
(733.4015914 20.71849894 0)
(3325.109874 3651.770432 0)
(3316.845159 3648.301351 0)
(3308.151585 3644.731141 0)
(3298.602701 3640.79979 0)
(3288.125669 3636.479586 0)
(3276.625123 3631.691798 0)
(3263.842076 3626.323123 0)
(3249.511538 3620.152579 0)
(3233.872617 3613.406667 0)
(3216.730036 3605.933451 0)
(3197.972538 3597.709799 0)
(3177.477292 3588.568069 0)
(3154.983219 3578.424521 0)
(3130.315863 3566.958668 0)
(3103.372563 3554.307317 0)
(3073.108721 3539.499818 0)
(3040.028165 3523.232187 0)
(3004.430984 3505.000853 0)
(2964.672209 3485.499992 0)
(2922.928219 3463.101146 0)
(2876.766897 3440.603323 0)
(2831.101782 3414.907266 0)
(2783.333942 3390.216077 0)
(2732.250274 3359.913825 0)
(2679.870628 3330.570421 0)
(2626.734675 3296.049291 0)
(2570.29221 3261.229173 0)
(2515.845733 3222.891981 0)
(2460.916884 3185.439668 0)
(2409.521584 3145.151252 0)
(2356.382857 3104.205488 0)
(2305.614573 3062.051849 0)
(2256.523546 3022.256978 0)
(2208.772954 2979.591131 0)
(2161.860154 2936.706171 0)
(2114.874754 2891.92219 0)
(2070.107255 2847.384523 0)
(2026.333805 2803.474294 0)
(1983.896357 2757.839335 0)
(1942.816134 2713.447666 0)
(1902.007983 2667.944903 0)
(1863.598405 2622.524511 0)
(1825.519494 2577.952811 0)
(1787.937832 2532.178648 0)
(1752.545832 2486.65894 0)
(1716.178778 2440.809324 0)
(1681.520622 2394.096393 0)
(1647.406756 2347.760313 0)
(1613.142621 2300.892293 0)
(1581.704279 2254.15036 0)
(1549.623391 2207.955574 0)
(1518.572456 2161.345862 0)
(1489.248798 2115.306637 0)
(1459.468435 2069.426605 0)
(1432.225642 2023.123111 0)
(1404.624885 1977.265697 0)
(1376.666422 1930.371829 0)
(1349.966148 1883.073649 0)
(1322.60942 1835.95751 0)
(1297.224604 1788.582785 0)
(1272.435353 1741.69439 0)
(1247.703848 1695.135374 0)
(1224.727273 1648.604009 0)
(1201.09969 1602.051155 0)
(1178.707328 1555.82414 0)
(1157.565912 1509.197089 0)
(1135.713445 1463.055637 0)
(1116.187514 1417.078652 0)
(1096.07087 1371.083873 0)
(1076.053716 1326.102653 0)
(1058.926801 1280.507676 0)
(1040.714804 1236.262257 0)
(1025.065275 1189.482928 0)
(1004.665567 1142.813383 0)
(988.0831407 1094.298932 0)
(968.6932953 1047.129721 0)
(952.8879185 999.6821708 0)
(935.8874176 954.9725397 0)
(924.3467815 910.8179301 0)
(911.6564507 868.9921926 0)
(903.5497081 826.574161 0)
(892.5824827 783.5787942 0)
(881.9061636 738.1653515 0)
(867.2946426 690.7134591 0)
(850.7766353 641.9933674 0)
(833.3453053 594.798225 0)
(821.6841222 548.4476172 0)
(811.3492516 503.6127365 0)
(803.7911743 459.7141531 0)
(797.559151 417.1879594 0)
(794.5302308 375.0247142 0)
(790.781361 331.4204301 0)
(781.6092292 285.9860329 0)
(768.2555512 240.1239893 0)
(755.5764932 195.0652596 0)
(749.2248525 150.4283955 0)
(746.2420187 106.6648753 0)
(746.4813298 63.98864779 0)
(750.768072 20.87713608 0)
(3356.298 3671.759896 0)
(3348.058465 3668.314137 0)
(3339.404571 3664.727171 0)
(3329.892531 3660.805785 0)
(3319.462165 3656.472564 0)
(3308.010206 3651.684136 0)
(3295.277262 3646.303532 0)
(3280.987814 3640.132838 0)
(3265.402978 3633.37035 0)
(3248.315732 3625.904866 0)
(3229.626859 3617.678393 0)
(3209.205221 3608.566709 0)
(3186.802028 3598.450179 0)
(3162.232861 3587.050723 0)
(3135.417969 3574.427173 0)
(3105.243851 3559.701425 0)
(3072.311071 3543.355375 0)
(3036.824248 3525.118036 0)
(2997.230475 3505.384591 0)
(2955.605252 3482.915688 0)
(2909.489822 3460.252689 0)
(2864.000835 3434.512359 0)
(2816.368736 3409.700464 0)
(2765.237949 3379.295812 0)
(2712.942568 3349.624128 0)
(2659.785621 3315.180364 0)
(2603.384315 3279.956097 0)
(2549.059685 3241.297397 0)
(2494.062608 3203.945996 0)
(2442.954873 3163.383971 0)
(2389.650427 3122.635199 0)
(2339.024473 3079.992238 0)
(2290.024264 3040.263842 0)
(2242.32979 2997.764326 0)
(2195.558046 2954.836428 0)
(2148.51155 2909.990353 0)
(2103.663225 2865.140743 0)
(2059.725873 2821.053537 0)
(2017.010031 2775.04456 0)
(1975.698769 2730.215075 0)
(1934.505914 2684.370991 0)
(1895.819263 2638.486284 0)
(1857.499056 2593.636265 0)
(1819.66878 2547.722006 0)
(1784.239967 2502.065754 0)
(1747.76842 2456.203831 0)
(1713.025135 2409.440329 0)
(1678.841683 2362.942993 0)
(1644.298393 2315.877953 0)
(1612.604287 2268.739826 0)
(1580.163531 2222.118014 0)
(1548.683127 2175.093889 0)
(1519.079031 2128.64364 0)
(1488.968061 2082.54401 0)
(1461.575031 2036.065051 0)
(1433.900943 1990.150138 0)
(1405.829174 1943.260827 0)
(1379.064938 1895.857094 0)
(1351.458088 1848.575337 0)
(1325.807622 1800.85246 0)
(1300.640455 1753.563915 0)
(1275.514961 1706.634726 0)
(1252.307686 1659.775708 0)
(1228.405106 1612.98678 0)
(1205.759629 1566.588515 0)
(1184.454355 1519.675577 0)
(1162.260747 1473.235025 0)
(1142.451851 1426.845358 0)
(1121.938341 1380.37603 0)
(1101.450313 1335.096625 0)
(1084.181516 1289.260279 0)
(1065.803378 1245.006505 0)
(1050.228364 1198.282376 0)
(1029.827727 1151.722175 0)
(1013.262536 1103.049956 0)
(993.514389 1055.367974 0)
(977.0258456 1007.206982 0)
(959.2383082 961.805605 0)
(947.139113 916.9689271 0)
(933.8994024 874.732176 0)
(925.6426649 832.1597277 0)
(914.9040926 789.3431538 0)
(904.7368342 744.1766081 0)
(890.4709646 696.6797225 0)
(873.6465417 647.6174612 0)
(855.4649251 599.9898033 0)
(843.1977865 553.1087401 0)
(832.3003474 507.7267819 0)
(824.2052386 463.2984315 0)
(817.5121639 420.3748513 0)
(814.4207871 377.9712212 0)
(810.9717362 334.209328 0)
(801.9699673 288.5208309 0)
(788.3178553 242.3095833 0)
(775.0675011 196.8781719 0)
(768.3048284 151.8051984 0)
(764.9637406 107.6224013 0)
(765.0063006 64.56559703 0)
(769.3427534 21.03988313 0)
(3388.17063 3691.598123 0)
(3379.958957 3688.163132 0)
(3371.348423 3684.565056 0)
(3361.87673 3680.652284 0)
(3351.495587 3676.311234 0)
(3340.094851 3671.522128 0)
(3327.414689 3666.13217 0)
(3313.169755 3659.958635 0)
(3297.642309 3653.177777 0)
(3280.613625 3645.710227 0)
(3261.995449 3637.471898 0)
(3241.648806 3628.374353 0)
(3219.336133 3618.274941 0)
(3194.865351 3606.931531 0)
(3168.178376 3594.344367 0)
(3138.097688 3579.709611 0)
(3105.320149 3563.323211 0)
(3069.956902 3545.096668 0)
(3030.544328 3525.150281 0)
(2989.03955 3502.587161 0)
(2942.978161 3479.720266 0)
(2897.674907 3453.929095 0)
(2850.207636 3429.024509 0)
(2799.030705 3398.509994 0)
(2746.762899 3368.502512 0)
(2693.586844 3334.128332 0)
(2637.211096 3298.469789 0)
(2582.953891 3259.43287 0)
(2527.935067 3222.03271 0)
(2476.990148 3181.239812 0)
(2423.457842 3140.66647 0)
(2372.953945 3097.500206 0)
(2324.092416 3057.714849 0)
(2276.362794 3015.470405 0)
(2229.843308 2972.52453 0)
(2182.748782 2927.693723 0)
(2137.871327 2882.57991 0)
(2093.799564 2838.389748 0)
(2050.863609 2792.055849 0)
(2009.338262 2746.799706 0)
(1967.753375 2700.603084 0)
(1928.760255 2654.199833 0)
(1890.141932 2608.993833 0)
(1852.007117 2562.868854 0)
(1816.503878 2517.032229 0)
(1779.918202 2471.14587 0)
(1745.11428 2424.371804 0)
(1710.9127 2377.778088 0)
(1676.156834 2330.597882 0)
(1644.262988 2283.126931 0)
(1611.490142 2236.098415 0)
(1579.581045 2188.644228 0)
(1549.665441 2141.724564 0)
(1519.179555 2095.339487 0)
(1491.595058 2048.629249 0)
(1463.828932 2002.626525 0)
(1435.655649 1955.762252 0)
(1408.878522 1908.302411 0)
(1381.091577 1860.928263 0)
(1355.225442 1812.910186 0)
(1329.716894 1765.239363 0)
(1304.181128 1717.910566 0)
(1280.728668 1670.690605 0)
(1256.539301 1623.645142 0)
(1233.657527 1577.107444 0)
(1212.22064 1529.919398 0)
(1189.726343 1483.241045 0)
(1169.677665 1436.467932 0)
(1148.782425 1389.502912 0)
(1127.788881 1343.881849 0)
(1110.347528 1297.742015 0)
(1091.767306 1253.432074 0)
(1076.252454 1206.751949 0)
(1055.895644 1160.364524 0)
(1039.463043 1111.641344 0)
(1019.477318 1063.530497 0)
(1002.350786 1014.701181 0)
(983.7718396 968.6100124 0)
(971.088472 923.0485669 0)
(957.2314975 880.3345166 0)
(948.7360779 837.5337273 0)
(938.1700491 794.8600294 0)
(928.5524306 749.9669939 0)
(914.7545748 702.4858495 0)
(897.7230528 653.1273725 0)
(878.8217642 605.103733 0)
(865.9600749 557.7166967 0)
(854.5029323 511.7985903 0)
(845.8559818 466.8364506 0)
(838.6633585 423.502623 0)
(835.4772228 380.8439066 0)
(832.3379065 336.9264464 0)
(823.5512289 290.9967448 0)
(809.6330363 244.4481896 0)
(795.8153998 198.6611371 0)
(788.6401455 153.1668287 0)
(784.9293596 108.5773026 0)
(784.7691848 65.1472773 0)
(789.1604315 21.20751196 0)
(3420.71009 3711.273602 0)
(3412.52741 3707.846521 0)
(3403.960265 3704.239267 0)
(3394.53136 3700.332811 0)
(3384.200866 3695.9882 0)
(3372.853442 3691.199213 0)
(3360.227928 3685.803906 0)
(3346.030534 3679.627687 0)
(3330.56341 3672.829923 0)
(3313.596676 3665.354245 0)
(3295.051486 3657.097254 0)
(3274.781553 3647.998691 0)
(3252.558687 3637.903385 0)
(3228.184893 3626.600261 0)
(3201.621169 3614.049293 0)
(3171.631956 3599.507083 0)
(3139.009211 3583.113764 0)
(3103.778858 3564.919477 0)
(3064.564095 3544.793541 0)
(3023.189467 3522.123714 0)
(2977.18847 3499.009572 0)
(2932.058735 3473.135796 0)
(2884.772356 3448.170973 0)
(2833.558442 3417.569144 0)
(2781.270959 3387.25459 0)
(2728.187723 3352.848571 0)
(2671.759236 3316.821852 0)
(2617.478887 3277.385494 0)
(2562.498258 3239.755689 0)
(2511.577242 3198.786933 0)
(2457.783527 3158.31018 0)
(2407.39795 3114.616656 0)
(2358.622198 3074.640563 0)
(2310.800029 3032.699246 0)
(2264.643448 2989.717376 0)
(2217.488567 2944.988505 0)
(2172.588667 2899.667329 0)
(2128.461873 2855.447319 0)
(2085.365056 2808.862796 0)
(2043.657052 2763.213397 0)
(2001.69342 2716.679853 0)
(1962.381311 2669.724066 0)
(1923.413034 2624.088993 0)
(1884.911335 2577.673257 0)
(1849.279332 2531.591369 0)
(1812.547661 2485.63914 0)
(1777.685396 2438.869022 0)
(1743.503725 2392.230985 0)
(1708.601317 2345.019624 0)
(1676.57587 2297.29795 0)
(1643.517672 2249.90754 0)
(1611.199035 2202.031037 0)
(1580.951691 2154.596704 0)
(1550.047574 2107.86004 0)
(1522.224093 2060.853208 0)
(1494.327521 2014.707522 0)
(1466.048415 1967.871948 0)
(1439.296136 1920.387856 0)
(1411.389657 1872.982762 0)
(1385.377319 1824.754019 0)
(1359.580469 1776.724613 0)
(1333.626992 1728.983637 0)
(1309.914368 1681.365821 0)
(1285.415005 1634.034333 0)
(1262.309337 1587.376287 0)
(1240.763933 1539.918012 0)
(1218.0077 1493.063353 0)
(1197.775 1445.949645 0)
(1176.529001 1398.481544 0)
(1155.003429 1352.484012 0)
(1137.360551 1305.978458 0)
(1118.537179 1261.552887 0)
(1103.051174 1214.884524 0)
(1082.762655 1168.714909 0)
(1066.572496 1120.041842 0)
(1046.484462 1071.593434 0)
(1028.784437 1022.153475 0)
(1009.424869 975.3888797 0)
(996.1446566 929.0707285 0)
(981.6100084 885.8164332 0)
(972.7845727 842.7117789 0)
(962.3204032 800.1335301 0)
(953.2764879 755.5283583 0)
(940.0675275 708.121069 0)
(922.941607 658.5116433 0)