/*--------------------------------*- C++ -*----------------------------------*\
| =========                 |                                                 |
| \\      /  F ield         | OpenFOAM: The Open Source CFD Toolbox           |
|  \\    /   O peration     | Version:  v1706                                 |
|   \\  /    A nd           | Web:      www.OpenFOAM.com                      |
|    \\/     M anipulation  |                                                 |
\*---------------------------------------------------------------------------*/
FoamFile
{
    version     2.0;
    format      ascii;
    class       volScalarField;
    location    "0.14";
    object      meanCollisionTime_N2cold;
}
// * * * * * * * * * * * * * * * * * * * * * * * * * * * * * * * * * * * * * //

dimensions      [0 0 1 0 0 0 0];


internalField   nonuniform List<scalar> 
6000
(
2.774994022e-05
2.762412507e-05
2.722966934e-05
2.606477324e-05
2.214476436e-05
2.776410932e-05
2.755474182e-05
2.703929413e-05
2.554005998e-05
2.276567125e-05
2.771347084e-05
2.748505167e-05
2.690843825e-05
2.57275249e-05
2.392230648e-05
2.771216987e-05
2.747448976e-05
2.7046728e-05
2.61854775e-05
2.500185434e-05
2.769710488e-05
2.754903966e-05
2.720955707e-05
2.660969589e-05
2.579888286e-05
2.771594177e-05
2.763157892e-05
2.733513183e-05
2.694974141e-05
2.642963583e-05
2.775574398e-05
2.76238151e-05
2.745926074e-05
2.716092223e-05
2.675683198e-05
2.775953998e-05
2.767542903e-05
2.748503514e-05
2.73411083e-05
2.705387859e-05
2.776408847e-05
2.770354928e-05
2.76262621e-05
2.747082665e-05
2.722593042e-05
2.777438089e-05
2.768031849e-05
2.760923136e-05
2.750812011e-05
2.744296689e-05
2.778974058e-05
2.771489839e-05
2.770468468e-05
2.758477242e-05
2.752711697e-05
2.77762384e-05
2.781175772e-05
2.773168787e-05
2.769815918e-05
2.757225546e-05
2.778000426e-05
2.772619473e-05
2.772697118e-05
2.771874268e-05
2.770565387e-05
2.778463867e-05
2.776499115e-05
2.777078845e-05
2.772389054e-05
2.769318303e-05
2.77979117e-05
2.778670789e-05
2.774523559e-05
2.77457543e-05
2.766256787e-05
2.778513549e-05
2.778778364e-05
2.77824195e-05
2.773996045e-05
2.773516144e-05
2.782768623e-05
2.781091894e-05
2.780436665e-05
2.778290966e-05
2.777898904e-05
2.778505331e-05
2.779253414e-05
2.780580269e-05
2.781852635e-05
2.783230986e-05
2.782615177e-05
2.784922892e-05
2.784409765e-05
2.781960119e-05
2.776684287e-05
2.779571885e-05
2.78147014e-05
2.778987251e-05
2.780900764e-05
2.778392477e-05
2.781249067e-05
2.778991898e-05
2.776144292e-05
2.774739979e-05
2.776872537e-05
2.776842351e-05
2.778824892e-05
2.78109765e-05
2.784462577e-05
2.784087412e-05
2.782132612e-05
2.782181879e-05
2.781360502e-05
2.780431475e-05
2.780532099e-05
2.77844393e-05
2.780706185e-05
2.77977124e-05
2.778483387e-05
2.78193747e-05
2.779073973e-05
2.778976031e-05
2.782075341e-05
2.778836606e-05
2.777687557e-05
2.77881416e-05
2.77808809e-05
2.777894595e-05
2.782766313e-05
2.779453835e-05
2.781331535e-05
2.784712917e-05
2.783994256e-05
2.777801811e-05
2.775952781e-05
2.780736338e-05
2.778435407e-05
2.778717095e-05
2.781683628e-05
2.783305132e-05
2.781476112e-05
2.785062695e-05
2.780803195e-05
2.781201538e-05
2.778980169e-05
2.777248396e-05
2.77636064e-05
2.77844702e-05
2.779328572e-05
2.77985608e-05
2.778952487e-05
2.779772506e-05
2.780060365e-05
2.781251379e-05
2.783780535e-05
2.783381119e-05
2.783855516e-05
2.785802211e-05
2.780432812e-05
2.777168205e-05
2.779209424e-05
2.77961645e-05
2.779599589e-05
2.780518369e-05
2.784958973e-05
2.782081442e-05
2.779706742e-05
2.779643663e-05
2.779488247e-05
2.779826729e-05
2.778133574e-05
2.779256331e-05
2.780367304e-05
2.780888544e-05
2.781615774e-05
2.778966076e-05
2.77903167e-05
2.781355941e-05
2.778755766e-05
2.77976937e-05
2.777516143e-05
2.779564389e-05
2.780725104e-05
2.780185612e-05
2.781165546e-05
2.780031166e-05
2.779285867e-05
2.779083629e-05
2.780037168e-05
2.780400162e-05
2.780007271e-05
2.78137431e-05
2.782605992e-05
2.780042103e-05
2.778992296e-05
2.780947973e-05
2.780285906e-05
2.777800836e-05
2.778565263e-05
2.775164491e-05
2.77971496e-05
2.77988298e-05
2.780174008e-05
2.779212543e-05
2.777481e-05
2.781362925e-05
2.780473745e-05
2.78247485e-05
2.783704366e-05
2.782537515e-05
2.778829038e-05
2.780249878e-05
2.778036075e-05
2.77957028e-05
2.781016534e-05
2.781748968e-05
2.781977755e-05
2.781174272e-05
2.782607972e-05
2.779743109e-05
2.779388344e-05
2.778788048e-05
2.780935338e-05
2.780300622e-05
2.780942085e-05
2.783088387e-05
2.78170442e-05
2.783227378e-05
2.778878236e-05
2.778714345e-05
2.777962038e-05
2.778791912e-05
2.778939042e-05
2.78391354e-05
2.77987619e-05
2.78002576e-05
2.779712919e-05
2.775319419e-05
2.774840545e-05
2.779227295e-05
2.781252852e-05
2.783269352e-05
2.784188421e-05
2.782258313e-05
2.781036138e-05
2.779068933e-05
2.780504233e-05
2.777269368e-05
2.778279762e-05
2.77711312e-05
2.779492862e-05
2.778889182e-05
2.78356447e-05
2.783922178e-05
2.7822567e-05
2.781067728e-05
2.78242453e-05
2.781974809e-05
2.781506373e-05
2.781962487e-05
2.782940326e-05
2.78221621e-05
2.77985857e-05
2.781986322e-05
2.780675023e-05
2.778328999e-05
2.777238236e-05
2.779118228e-05
2.781672593e-05
2.780158644e-05
2.782504865e-05
2.782659233e-05
2.781807576e-05
2.779219263e-05
2.778331877e-05
2.778027887e-05
2.777827593e-05
2.782572553e-05
2.781598823e-05
2.782545116e-05
2.780607746e-05
2.779230167e-05
2.773445601e-05
2.77644765e-05
2.773937075e-05
2.77806842e-05
2.778857713e-05
2.778228724e-05
2.778119957e-05
2.777010217e-05
2.781382496e-05
2.780780024e-05
2.784662626e-05
2.784099855e-05
2.783194661e-05
2.781162387e-05
2.779391709e-05
2.780467675e-05
2.78042908e-05
2.782564693e-05
1.639938392e-05
1.558214777e-05
1.566184508e-05
1.584373008e-05
1.603995646e-05
1.624102098e-05
1.640666527e-05
1.659579954e-05
1.67981074e-05
1.695342091e-05
1.709925975e-05
1.730805619e-05
1.75468339e-05
1.775191635e-05
1.791661791e-05
1.806537495e-05
1.814515674e-05
1.832506289e-05
1.850353246e-05
1.871035783e-05
1.888302366e-05
1.898542867e-05
1.911407796e-05
1.92131218e-05
1.930574945e-05
1.950380821e-05
1.967056706e-05
1.990143359e-05
1.991357703e-05
2.011071223e-05
2.030062329e-05
2.030650374e-05
2.036609997e-05
2.057315874e-05
2.068855307e-05
2.080373101e-05
2.092871185e-05
2.100021492e-05
2.110659413e-05
2.126408732e-05
2.138039637e-05
2.143832544e-05
2.149107226e-05
2.158894176e-05
2.170068179e-05
2.182855344e-05
2.191757933e-05
2.20856819e-05
2.202267433e-05
2.217479878e-05
2.239785442e-05
2.238890749e-05
2.24739361e-05
2.254055502e-05
2.260089333e-05
2.275937277e-05
2.290586616e-05
2.285966831e-05
2.302084738e-05
2.310913273e-05
2.313737669e-05
2.326231742e-05
2.332409467e-05
2.347497864e-05
2.339729387e-05
2.355874678e-05
2.364516029e-05
2.379450572e-05
2.388124273e-05
2.387532406e-05
2.393376284e-05
2.406535322e-05
2.426114643e-05
2.414872511e-05
2.427413757e-05
2.440822226e-05
2.454779188e-05
2.465960107e-05
2.485710607e-05
2.504335553e-05
2.499519276e-05
2.526531641e-05
2.540789102e-05
2.558607575e-05
2.58586581e-05
2.610660319e-05
2.656585509e-05
2.698263106e-05
2.74288813e-05
2.797733426e-05
2.899602393e-05
3.025012325e-05
3.181661377e-05
3.42620766e-05
4.04092024e-05
1.967653843e-05
1.754224941e-05
1.643866882e-05
1.599446325e-05
1.588789446e-05
1.595443717e-05
1.608115118e-05
1.621329625e-05
1.646687503e-05
1.668943973e-05
1.689496528e-05
1.70812131e-05
1.731013537e-05
1.75406966e-05
1.774358125e-05
1.79089468e-05
1.810854963e-05
1.832342224e-05
1.853405912e-05
1.86469544e-05
1.890829744e-05
1.90318189e-05
1.913332961e-05
1.932998149e-05
1.941991335e-05
1.966551291e-05
1.987871263e-05
1.999498254e-05
2.018534021e-05
2.031661353e-05
2.047655611e-05
2.051626298e-05
2.065076826e-05
2.08492783e-05
2.093635138e-05
2.105222257e-05
2.1172741e-05
2.136281859e-05
2.142408388e-05
2.151402841e-05
2.161271557e-05
2.173636032e-05
2.185091657e-05
2.189463253e-05
2.208634401e-05
2.211629666e-05
2.223057135e-05
2.241151892e-05
2.244432364e-05
2.254999098e-05
2.27258794e-05
2.285171236e-05
2.284621912e-05
2.289076425e-05
2.297130245e-05
2.312783854e-05
2.321595152e-05
2.327946965e-05
2.342815285e-05
2.344703363e-05
2.356572671e-05
2.360655355e-05
2.372256961e-05
2.39115754e-05
2.39113036e-05
2.391192372e-05
2.408576792e-05
2.420622187e-05
2.433839565e-05
2.426107934e-05
2.432122712e-05
2.443086316e-05
2.460449475e-05
2.463924445e-05
2.471601477e-05
2.478922131e-05
2.499274578e-05
2.504541583e-05
2.521506235e-05
2.536641972e-05
2.546546265e-05
2.568061248e-05
2.582963579e-05
2.59823377e-05
2.630776711e-05
2.661338907e-05
2.710679901e-05
2.743513897e-05
2.785251752e-05
2.854286331e-05
2.946939599e-05
3.079180612e-05
3.245646393e-05
3.532252167e-05
4.212784471e-05
2.195595883e-05
2.013858821e-05
1.86966919e-05
1.766950217e-05
1.69762472e-05
1.653853213e-05
1.639361521e-05
1.638132075e-05
1.6418242e-05
1.654060589e-05
1.667902232e-05
1.687120263e-05
1.704273377e-05
1.723756519e-05
1.745276303e-05
1.762917673e-05
1.78675126e-05
1.805882199e-05
1.826186987e-05
1.84487002e-05
1.869782137e-05
1.884284637e-05
1.904604056e-05
1.917921209e-05
1.93704063e-05
1.956294494e-05
1.975884524e-05
1.995977483e-05
2.012500525e-05
2.028819187e-05
2.03914282e-05
2.049382757e-05
2.064656106e-05
2.081588291e-05
2.093122152e-05
2.114044401e-05
2.127820913e-05
2.141640217e-05
2.144244923e-05
2.162417099e-05
2.176387269e-05
2.186014457e-05
2.194814975e-05
2.204624003e-05
2.219208454e-05
2.235271991e-05
2.242493855e-05
2.256944207e-05
2.260278465e-05
2.275821646e-05
2.287582798e-05
2.292558234e-05
2.299170365e-05
2.314240158e-05
2.319145914e-05
2.331510325e-05
2.340859446e-05
2.35075574e-05
2.358953182e-05
2.372871377e-05
2.392565591e-05
2.388279552e-05
2.405587736e-05
2.405433255e-05
2.420884896e-05
2.430246968e-05
2.439677661e-05
2.447237316e-05
2.44415836e-05
2.448637404e-05
2.463943295e-05
2.466806775e-05
2.474597246e-05
2.49100267e-05
2.498668183e-05
2.512176925e-05
2.527826601e-05
2.53308193e-05
2.545322412e-05
2.566399339e-05
2.580402573e-05
2.587867426e-05
2.608517617e-05
2.63338566e-05
2.660756164e-05
2.68229668e-05
2.733262877e-05
2.77112227e-05
2.817822865e-05
2.885545092e-05
2.971015293e-05
3.113559545e-05
3.27845456e-05
3.558813433e-05
4.162865907e-05
2.363543548e-05
2.220808272e-05
2.080359465e-05
1.960263251e-05
1.859334838e-05
1.784628084e-05
1.732796435e-05
1.697471404e-05
1.675632388e-05
1.667620508e-05
1.664076804e-05
1.671427303e-05
1.68262855e-05
1.698332841e-05
1.716069338e-05
1.734779954e-05
1.751206424e-05
1.771030862e-05
1.796194841e-05
1.812544418e-05
1.834532657e-05
1.857151894e-05
1.87563699e-05
1.889502771e-05
1.90920028e-05
1.926920204e-05
1.955804039e-05
1.96959816e-05
1.984496941e-05
1.99811703e-05
2.016704589e-05
2.036033551e-05
2.055952575e-05
2.065078331e-05
2.073277547e-05
2.090401924e-05
2.111374232e-05
2.12546092e-05
2.143774763e-05
2.153992306e-05
2.166456962e-05
2.182726278e-05
2.190721164e-05
2.199216154e-05
2.218111196e-05
2.226241033e-05
2.248811931e-05
2.259054457e-05
2.271054746e-05
2.277617749e-05
2.291160243e-05
2.300424753e-05
2.310622415e-05
2.322473592e-05
2.332960544e-05
2.342739245e-05
2.353587312e-05
2.362059849e-05
2.373004941e-05
2.38972722e-05
2.390900259e-05
2.397386118e-05
2.409159387e-05
2.424775653e-05
2.436119393e-05
2.440676905e-05
2.448309123e-05
2.451649316e-05
2.466628242e-05
2.474063375e-05
2.484137691e-05
2.487216661e-05
2.499047991e-05
2.50130413e-05
2.520371032e-05
2.528778951e-05
2.549191987e-05
2.556853021e-05
2.571442911e-05
2.584524908e-05
2.590415733e-05
2.6112349e-05
2.633030299e-05
2.65361487e-05
2.679983914e-05
2.707572889e-05
2.750782503e-05
2.787151277e-05
2.842716979e-05
2.904860225e-05
2.989406707e-05
3.117351675e-05
3.283276947e-05
3.565924074e-05
4.065354534e-05
2.489469986e-05
2.375460648e-05
2.252011679e-05
2.138917081e-05
2.031250631e-05
1.938325916e-05
1.861712587e-05
1.799967761e-05
1.750880327e-05
1.720022248e-05
1.700743575e-05
1.688208206e-05
1.686884926e-05
1.689373428e-05
1.698685665e-05
1.705047686e-05
1.721800395e-05
1.732076536e-05
1.752448724e-05
1.770787553e-05
1.791006202e-05
1.809382663e-05
1.831582393e-05
1.850265447e-05
1.866902039e-05
1.891551286e-05
1.913984849e-05
1.931960383e-05
1.947912938e-05
1.968448563e-05
1.987393891e-05
2.00158786e-05
2.020391349e-05
2.043625576e-05
2.055187884e-05
2.069705476e-05
2.089433933e-05
2.104923422e-05
2.120772518e-05
2.134289988e-05
2.147295957e-05
2.167931402e-05
2.186485809e-05
2.187028839e-05
2.211538884e-05
2.230798805e-05
2.241032832e-05
2.254971687e-05
2.25903834e-05
2.277986196e-05
2.291298102e-05
2.299152276e-05
2.306011488e-05
2.320733203e-05
2.327379389e-05
2.347169287e-05
2.350969425e-05
2.371539199e-05
2.377684945e-05
2.389847111e-05
2.394005266e-05
2.40221648e-05
2.403485193e-05
2.41764783e-05
2.437755041e-05
2.445493277e-05
2.453716729e-05
2.460840413e-05
2.470312286e-05
2.487440206e-05
2.493317649e-05
2.500139128e-05
2.510375622e-05
2.518019085e-05
2.524411395e-05
2.53550469e-05
2.558161185e-05
2.559727086e-05
2.583730897e-05
2.590486877e-05
2.607908063e-05
2.619950846e-05
2.646820524e-05
2.665276636e-05
2.696898075e-05
2.723551847e-05
2.757516267e-05
2.797819818e-05
2.855073415e-05
2.927349216e-05
3.004217676e-05
3.117321241e-05
3.271929641e-05
3.513406381e-05
3.9592255e-05
2.572899715e-05
2.486835927e-05
2.395077363e-05
2.300754414e-05
2.198038786e-05
2.09913216e-05
2.010250414e-05
1.933280313e-05
1.865583522e-05
1.814493382e-05
1.770146104e-05
1.741780828e-05
1.717706487e-05
1.707057966e-05
1.701362601e-05
1.702519155e-05
1.708749918e-05
1.717306971e-05
1.727071192e-05
1.735866413e-05
1.750303047e-05
1.766855289e-05
1.786975072e-05
1.809180224e-05
1.82882891e-05
1.847978864e-05
1.864652053e-05
1.890374309e-05
1.90646775e-05
1.927557131e-05
1.944259009e-05
1.95992888e-05
1.979639982e-05
2.001162981e-05
2.016253954e-05
2.036176139e-05
2.055593774e-05
2.074648818e-05
2.086813854e-05
2.106022206e-05
2.124752048e-05
2.145124282e-05
2.153984847e-05
2.169533399e-05
2.19023584e-05
2.198944782e-05
2.214209547e-05
2.224646319e-05
2.239882795e-05
2.257281651e-05
2.273834263e-05
2.286435472e-05
2.294181253e-05
2.315861566e-05
2.327460535e-05
2.340267807e-05
2.348169324e-05
2.364264705e-05
2.37654053e-05
2.383306989e-05
2.3850757e-05
2.396710941e-05
2.412817392e-05
2.417768436e-05
2.436117123e-05
2.450615067e-05
2.455936497e-05
2.461390299e-05
2.470544078e-05
2.486858672e-05
2.497009059e-05
2.504736827e-05
2.513175238e-05
2.52707788e-05
2.533613878e-05
2.546259169e-05
2.554271078e-05
2.566091291e-05
2.577840959e-05
2.589869932e-05
2.609011432e-05
2.630577824e-05
2.653485557e-05
2.674438068e-05
2.697439599e-05
2.72585363e-05
2.754105043e-05
2.803497696e-05
2.862048406e-05
2.919656043e-05
3.005449137e-05
3.095247123e-05
3.243388666e-05
3.476564451e-05
3.835416982e-05
2.631446717e-05
2.569129987e-05
2.499156172e-05
2.41769705e-05
2.333507486e-05
2.249550561e-05
2.157457118e-05
2.076406725e-05
1.996048324e-05
1.931959519e-05
1.873040574e-05
1.822189289e-05
1.783943068e-05
1.750505705e-05
1.732977265e-05
1.716653866e-05
1.710059721e-05
1.706677473e-05
1.710445758e-05
1.718355997e-05
1.724880419e-05
1.736200492e-05
1.748265727e-05
1.764998919e-05
1.785872144e-05
1.803623978e-05
1.821639486e-05
1.837866971e-05
1.856673156e-05
1.880484204e-05
1.898658196e-05
1.920431498e-05
1.937243431e-05
1.95274335e-05
1.974382265e-05
1.998479113e-05
2.012921944e-05
2.027834977e-05
2.054186423e-05
2.073981017e-05
2.088930181e-05
2.103534151e-05
2.116814526e-05
2.135458316e-05
2.155809654e-05
2.173485909e-05
2.184476281e-05
2.198268602e-05
2.214183404e-05
2.228881213e-05
2.246296073e-05
2.256554824e-05
2.272961365e-05
2.286896768e-05
2.301875894e-05
2.313710253e-05
2.330430803e-05
2.337737487e-05
2.356453019e-05
2.366409046e-05
2.384351213e-05
2.38852487e-05
2.406337125e-05
2.407590301e-05
2.421907349e-05
2.438102795e-05
2.442661557e-05
2.452078173e-05
2.467895598e-05
2.479538626e-05
2.489941866e-05
2.495945676e-05
2.512950035e-05
2.52773471e-05
2.536324048e-05
2.542730239e-05
2.549339431e-05
2.561464719e-05
2.575753847e-05
2.587517577e-05
2.606320077e-05
2.628048491e-05
2.64828951e-05
2.671768694e-05
2.690351754e-05
2.725171548e-05
2.759466383e-05
2.793341815e-05
2.850984257e-05
2.907455581e-05
2.983230251e-05
3.081835568e-05
3.215861372e-05
3.427140972e-05
3.738021377e-05
2.671264743e-05
2.628961124e-05
2.578155689e-05
2.517791011e-05
2.450817482e-05
2.371581319e-05
2.297103992e-05
2.213387677e-05
2.134387227e-05
2.063293958e-05
1.989780495e-05
1.929551582e-05
1.873230911e-05
1.825976535e-05
1.784190169e-05
1.759719607e-05
1.740466639e-05
1.726127313e-05
1.717332251e-05
1.712823399e-05
1.71526375e-05
1.713914771e-05
1.723941464e-05
1.735612928e-05
1.747544763e-05
1.760959466e-05
1.777457567e-05
1.793400573e-05
1.80982647e-05
1.832637462e-05
1.849121056e-05
1.865647391e-05
1.887062e-05
1.904204934e-05
1.92354834e-05
1.944461659e-05
1.96723619e-05
1.979115392e-05
2.003707957e-05
2.018259218e-05
2.03638646e-05
2.05412767e-05
2.077803301e-05
2.095683893e-05
2.110235803e-05
2.129288764e-05
2.143167805e-05
2.16011593e-05
2.179754608e-05
2.1876629e-05
2.213942098e-05
2.228866665e-05
2.242794312e-05
2.261013088e-05
2.272783457e-05
2.28718815e-05
2.301076368e-05
2.315356321e-05
2.338715343e-05
2.348116092e-05
2.353350844e-05
2.365345979e-05
2.378147441e-05
2.391147818e-05
2.403349351e-05
2.410837299e-05
2.430182366e-05
2.444201009e-05
2.455175521e-05
2.465803556e-05
2.476238177e-05
2.489907965e-05
2.496964347e-05
2.515644614e-05
2.52529938e-05
2.530678884e-05
2.539481528e-05
2.548295215e-05
2.56540382e-05
2.589025709e-05
2.604390173e-05
2.615418314e-05
2.646362445e-05
2.663112756e-05
2.691862183e-05
2.719263523e-05
2.751595974e-05
2.794728529e-05
2.831917914e-05
2.895051046e-05
2.955616941e-05
3.054745605e-05
3.17802041e-05
3.355439434e-05
3.620802996e-05
2.705751677e-05
2.670792529e-05
2.626381106e-05
2.582427833e-05
2.533764204e-05
2.474608061e-05
2.412687454e-05
2.339876858e-05
2.261093257e-05
2.18946291e-05
2.117759384e-05
2.049495343e-05
1.984149024e-05
1.924789627e-05
1.873280699e-05
1.830764732e-05
1.796409023e-05
1.767849599e-05
1.744964996e-05
1.727204226e-05
1.720057589e-05
1.716893657e-05
1.715302235e-05
1.712903886e-05
1.724618697e-05
1.731726264e-05
1.740017052e-05
1.7557851e-05
1.769825001e-05
1.784379914e-05
1.802609617e-05
1.818217548e-05
1.838350265e-05
1.856069688e-05
1.871540901e-05
1.892329687e-05
1.915629942e-05
1.937710582e-05
1.954271336e-05
1.973576103e-05
1.99464671e-05
2.012389117e-05
2.033417581e-05
2.048449519e-05
2.065754759e-05
2.083547398e-05
2.103805765e-05
2.12096204e-05
2.141368018e-05
2.154663697e-05
2.172710908e-05
2.192104289e-05
2.209782768e-05
2.222554906e-05
2.235592186e-05
2.253748259e-05
2.27021498e-05
2.286377556e-05
2.303031567e-05
2.316488131e-05
2.329806961e-05
2.343762546e-05
2.352501339e-05
2.365968359e-05
2.383531439e-05
2.388060782e-05
2.396005265e-05
2.412812123e-05
2.43379447e-05
2.439018249e-05
2.454399103e-05
2.463682359e-05
2.477382985e-05
2.487169827e-05
2.500671883e-05
2.515927546e-05
2.530221825e-05
2.543208258e-05
2.561708453e-05
2.572128104e-05
2.58428393e-05
2.609482964e-05
2.622079474e-05
2.648361515e-05
2.677209136e-05
2.691670706e-05
2.731297381e-05
2.768418383e-05
2.822059477e-05
2.868236674e-05
2.935515797e-05
3.008918488e-05
3.130074202e-05
3.275185518e-05
3.509859157e-05
2.731126064e-05
2.708864971e-05
2.68073715e-05
2.648912692e-05
2.609073813e-05
2.556318062e-05
2.500237315e-05
2.445690818e-05
2.379783584e-05
2.309688298e-05
2.242251643e-05
2.172967919e-05
2.103789737e-05
2.039643682e-05
1.974841399e-05
1.922847676e-05
1.87734636e-05
1.834105568e-05
1.800497225e-05
1.775217099e-05
1.751401306e-05
1.730581831e-05
1.722907462e-05
1.71694159e-05
1.711645407e-05
1.715274544e-05
1.721290368e-05
1.725880069e-05
1.732940445e-05
1.746624739e-05
1.759759257e-05
1.774276644e-05
1.788942236e-05
1.811110125e-05
1.827523424e-05
1.843914429e-05
1.863990997e-05
1.880824506e-05
1.90091592e-05
1.923922028e-05
1.940272994e-05
1.95908026e-05
1.97888651e-05
1.994067893e-05
2.017116765e-05
2.034289425e-05
2.058589229e-05
2.073187722e-05
2.08813459e-05
2.104851268e-05
2.123978461e-05
2.142617107e-05
2.159659112e-05
2.172265558e-05
2.190162161e-05
2.2095016e-05
2.230598421e-05
2.251439662e-05
2.26577772e-05
2.279090877e-05
2.291897859e-05
2.305886905e-05
2.317236747e-05
2.329966675e-05
2.350721582e-05
2.36521837e-05
2.373922079e-05
2.38365034e-05
2.401485491e-05
2.414583973e-05
2.426345581e-05
2.4369356e-05
2.447812077e-05
2.466273348e-05
2.480068929e-05
2.49401201e-05
2.508818373e-05
2.525058271e-05
2.533751842e-05
2.551031202e-05
2.569427398e-05
2.590638334e-05
2.610808391e-05
2.62490348e-05
2.649973616e-05
2.677534743e-05
2.709929012e-05
2.741394128e-05
2.77934511e-05
2.830470561e-05
2.891633868e-05
2.970964449e-05
3.075881174e-05
3.211160224e-05
3.406986088e-05
2.741074598e-05
2.729939986e-05
2.708830663e-05
2.677174257e-05
2.648603606e-05
2.611847181e-05
2.575251164e-05
2.532852049e-05
2.477213318e-05
2.420164234e-05
2.358956394e-05
2.292279527e-05
2.225702173e-05
2.165920228e-05
2.09845175e-05
2.036736849e-05
1.977944919e-05
1.923827628e-05
1.878815971e-05
1.839923331e-05
1.805624408e-05
1.778529576e-05
1.756117545e-05
1.738197733e-05
1.725465112e-05
1.71817979e-05
1.712694536e-05
1.70961364e-05
1.712870274e-05
1.719759673e-05
1.727856609e-05
1.741168124e-05
1.753652658e-05
1.764345335e-05
1.778658931e-05
1.792197536e-05
1.812480127e-05
1.828816848e-05
1.846723167e-05
1.867793183e-05
1.886525305e-05
1.904146259e-05
1.922279601e-05
1.944878166e-05
1.963016901e-05
1.98403535e-05
1.999503216e-05
2.020012007e-05
2.035163535e-05
2.053473554e-05
2.071319651e-05
2.091939716e-05
2.10949621e-05
2.127759918e-05
2.143276574e-05
2.159950983e-05
2.180781575e-05
2.203547196e-05
2.220138115e-05
2.231920937e-05
2.250295351e-05
2.263547384e-05
2.274282344e-05
2.291360032e-05
2.304235244e-05
2.325162136e-05
2.336187676e-05
2.354485965e-05
2.36859386e-05
2.383983954e-05
2.392800731e-05
2.409539782e-05
2.424784531e-05
2.439187518e-05
2.451114076e-05
2.468261855e-05
2.482223223e-05
2.488925611e-05
2.506319141e-05
2.528062396e-05
2.540366228e-05
2.557553101e-05
2.580009698e-05
2.60496262e-05
2.629116922e-05
2.650213755e-05
2.672858546e-05
2.71422915e-05
2.748275359e-05
2.798885303e-05
2.856963081e-05
2.932930269e-05
3.021565141e-05
3.139524118e-05
3.313135232e-05
2.749378636e-05
2.733783876e-05
2.722904724e-05
2.708294818e-05
2.689058319e-05
2.669584157e-05
2.634409085e-05
2.596776108e-05
2.555789448e-05
2.51094532e-05
2.462371563e-05
2.408604405e-05
2.347272898e-05
2.284252736e-05
2.218217858e-05
2.156805406e-05
2.09405453e-05
2.033845496e-05
1.974391462e-05
1.92630292e-05
1.881784917e-05
1.838802685e-05
1.804725651e-05
1.776291776e-05
1.754740222e-05
1.739874503e-05
1.726439774e-05
1.71832041e-05
1.711341417e-05
1.709807553e-05
1.711943692e-05
1.71509148e-05
1.719547134e-05
1.731260395e-05
1.743681465e-05
1.754156758e-05
1.769424685e-05
1.788514371e-05
1.800807239e-05
1.817763258e-05
1.834206905e-05
1.855435285e-05
1.871664027e-05
1.889067746e-05
1.905006606e-05
1.929289222e-05
1.948317793e-05
1.964967102e-05
1.984037598e-05
2.000192824e-05
2.020028593e-05
2.041444575e-05
2.064042633e-05
2.079532325e-05
2.096445124e-05
2.115260495e-05
2.132101065e-05
2.148791268e-05
2.169846253e-05
2.185482997e-05
2.20053227e-05
2.210461797e-05
2.22523791e-05
2.247812854e-05
2.26923333e-05
2.282427859e-05
2.29755235e-05
2.313568822e-05
2.328314859e-05
2.343274297e-05
2.361998294e-05
2.375680518e-05
2.391332929e-05
2.407340706e-05
2.422913609e-05
2.432933888e-05
2.44579325e-05
2.467354873e-05
2.475321524e-05
2.493711389e-05
2.511187727e-05
2.529811203e-05
2.550950268e-05
2.569424009e-05
2.590604699e-05
2.614145176e-05
2.642507641e-05
2.673908836e-05
2.713863157e-05
2.762062457e-05
2.819821943e-05
2.88105889e-05
2.956323974e-05
3.057941565e-05
3.214636358e-05
2.762803987e-05
2.758448617e-05
2.748155973e-05
2.733808966e-05
2.715018998e-05
2.692984962e-05
2.671190775e-05
2.644987109e-05
2.615262196e-05
2.577600549e-05
2.53740745e-05
2.490887212e-05
2.44243161e-05
2.385802294e-05
2.33033492e-05
2.266491259e-05
2.208345878e-05
2.146308489e-05
2.09181062e-05
2.029144415e-05
1.97835664e-05
1.927349596e-05
1.883208989e-05
1.843090187e-05
1.807874566e-05
1.780922473e-05
1.759276984e-05
1.74379229e-05
1.726879552e-05
1.717141125e-05
1.708742812e-05
1.7097865e-05
1.709401046e-05
1.713996337e-05
1.719168646e-05
1.725223302e-05
1.734769871e-05
1.748613038e-05
1.76096923e-05
1.772626958e-05
1.78692944e-05
1.804765643e-05
1.819241647e-05
1.83470387e-05
1.855880091e-05
1.874177065e-05
1.892354957e-05
1.909870519e-05
1.927328662e-05
1.950309773e-05
1.965527789e-05
1.98914076e-05
2.004765118e-05
2.028357601e-05
2.044862515e-05
2.060693085e-05
2.081113756e-05
2.101225223e-05
2.114077161e-05
2.131535652e-05
2.146277657e-05
2.164666507e-05
2.187077848e-05
2.201969207e-05
2.220126963e-05
2.23531426e-05
2.250309215e-05
2.267065045e-05
2.282604432e-05
2.29205357e-05
2.315842188e-05
2.333722811e-05
2.349993326e-05
2.359053503e-05
2.382683053e-05
2.397223445e-05
2.410422067e-05
2.428089099e-05
2.446325394e-05
2.461116768e-05
2.477467436e-05
2.492422048e-05
2.511231752e-05
2.53467219e-05
2.554142957e-05
2.581722486e-05
2.607002721e-05
2.636105721e-05
2.671216706e-05
2.713354289e-05
2.755537875e-05
2.822565439e-05
2.904220707e-05
2.989454078e-05
3.122711538e-05
2.767713897e-05
2.762408956e-05
2.755286242e-05
2.7415641e-05
2.732250809e-05
2.717601561e-05
2.698739077e-05
2.681994275e-05
2.660707626e-05
2.631084728e-05
2.595899048e-05
2.561173887e-05
2.522733474e-05
2.477985621e-05
2.430849736e-05
2.377317032e-05
2.324025412e-05
2.265252671e-05
2.203232576e-05
2.145357241e-05
2.087947679e-05
2.0308962e-05
1.978663937e-05
1.933317484e-05
1.883772595e-05
1.845717914e-05
1.811542186e-05
1.785126218e-05
1.76119139e-05
1.741119007e-05
1.726034945e-05
1.716031914e-05
1.709963595e-05
1.703883112e-05
1.700857945e-05
1.703325648e-05
1.708855509e-05
1.71411315e-05
1.726884851e-05
1.737572976e-05
1.750567063e-05
1.763489736e-05
1.77873972e-05
1.791627853e-05
1.805527745e-05
1.82617968e-05
1.843899475e-05
1.857546516e-05
1.876960881e-05
1.896628891e-05
1.913278533e-05
1.934916192e-05
1.951608536e-05
1.968247915e-05
1.988569465e-05
2.002919591e-05
2.022584284e-05
2.042693017e-05
2.06095051e-05
2.08041552e-05
2.097354618e-05
2.114762828e-05
2.133978706e-05
2.149379999e-05
2.16172494e-05
2.182360924e-05
2.20157583e-05
2.217046739e-05
2.233469974e-05
2.252518582e-05
2.265161266e-05
2.287945681e-05
2.304399279e-05
2.324030527e-05
2.340623734e-05
2.361686059e-05
2.369097551e-05
2.387213201e-05
2.406215464e-05
2.423003309e-05
2.439802421e-05
2.452887263e-05
2.473186193e-05
2.491533863e-05
2.515976046e-05
2.5439258e-05
2.565116313e-05
2.599055172e-05
2.622951744e-05
2.655413315e-05
2.706843265e-05
2.766635441e-05
2.833174441e-05
2.914919316e-05
3.027021075e-05
2.764470885e-05
2.761572828e-05
2.760395437e-05
2.751657007e-05
2.746368402e-05
2.736434714e-05
2.726552379e-05
2.709306968e-05
2.690925095e-05
2.67548092e-05
2.651156973e-05
2.620347926e-05
2.589352546e-05
2.550732137e-05
2.510801409e-05
2.468763018e-05
2.419529399e-05
2.3654591e-05
2.31236064e-05
2.255376154e-05
2.199500955e-05
2.139817801e-05
2.083889542e-05
2.030400731e-05
1.981357839e-05
1.931769671e-05
1.88761173e-05
1.846868836e-05
1.814738071e-05
1.786889749e-05
1.761288762e-05
1.740554795e-05
1.724479042e-05
1.711589682e-05
1.703235919e-05
1.700254173e-05
1.698756235e-05
1.698707892e-05
1.699877131e-05
1.708647227e-05
1.717764286e-05
1.729043092e-05
1.74298965e-05
1.753936869e-05
1.765294531e-05
1.77785163e-05
1.798978859e-05
1.813609037e-05
1.82680308e-05
1.84503617e-05
1.859687384e-05
1.876724441e-05
1.896540867e-05
1.914483062e-05
1.932045882e-05
1.94999705e-05
1.966854386e-05
1.986844872e-05
2.005765316e-05
2.023650417e-05
2.044760993e-05
2.06061821e-05
2.071586058e-05
2.095341896e-05
2.11357629e-05
2.135455035e-05
2.150565652e-05
2.168670709e-05
2.184650396e-05
2.203134657e-05
2.222657656e-05
2.237514265e-05
2.255428567e-05
2.277395382e-05
2.297592704e-05
2.314075502e-05
2.326890875e-05
2.338662926e-05
2.357428594e-05
2.371521238e-05
2.388373554e-05
2.408796398e-05
2.425958359e-05
2.446642881e-05
2.466974997e-05
2.491564206e-05
2.518729412e-05
2.547687764e-05
2.577730393e-05
2.617423472e-05
2.652191635e-05
2.693263646e-05
2.761579533e-05
2.835144536e-05
2.940088935e-05
2.769815181e-05
2.769803599e-05
2.766913138e-05
2.764410497e-05
2.757401335e-05
2.754496484e-05
2.748627404e-05
2.739739187e-05
2.726352433e-05
2.708538893e-05
2.688057931e-05
2.670854616e-05
2.651195165e-05
2.618895416e-05
2.585579593e-05
2.548128856e-05
2.510077968e-05
2.463192644e-05
2.415705273e-05
2.365117115e-05
2.312290393e-05
2.258093676e-05
2.200925042e-05
2.144663334e-05
2.087477841e-05
2.034358774e-05
1.981451793e-05
1.933421197e-05
1.888540753e-05
1.85031321e-05
1.815318518e-05
1.786685534e-05
1.762884011e-05
1.744450978e-05
1.72455306e-05
1.71150153e-05
1.702774874e-05
1.698112724e-05
1.695633061e-05
1.695969579e-05
1.698470046e-05
1.703457608e-05
1.711086474e-05
1.71905916e-05
1.729896393e-05
1.741258738e-05
1.751947192e-05
1.76787849e-05
1.782810382e-05
1.797494117e-05
1.81504538e-05
1.829459565e-05
1.848047811e-05
1.864497674e-05
1.879688456e-05
1.899483206e-05
1.916739419e-05
1.931988059e-05
1.951009104e-05
1.967279484e-05
1.983663419e-05
2.006397751e-05
2.023573898e-05
2.040015418e-05
2.060613218e-05
2.079595527e-05
2.098523365e-05
2.117634012e-05
2.135056855e-05
2.150840813e-05
2.170504016e-05
2.18657251e-05
2.20290486e-05
2.223149863e-05
2.244248688e-05
2.260423768e-05
2.275427929e-05
2.291512306e-05
2.305694302e-05
2.325916627e-05
2.345845141e-05
2.360777064e-05
2.379257382e-05
2.400918509e-05
2.421777916e-05
2.449660264e-05
2.475916162e-05
2.502661293e-05
2.532489894e-05
2.56006192e-05
2.594782729e-05
2.64517261e-05
2.701008716e-05
2.759608573e-05
2.845553828e-05
2.775854525e-05
2.772740712e-05
2.772826638e-05
2.768662084e-05
2.766414223e-05
2.757957328e-05
2.752316073e-05
2.742323628e-05
2.732781232e-05
2.725296364e-05
2.715044109e-05
2.697886031e-05
2.677155934e-05
2.653423731e-05