/*--------------------------------*- C++ -*----------------------------------*\
| =========                 |                                                 |
| \\      /  F ield         | OpenFOAM: The Open Source CFD Toolbox           |
|  \\    /   O peration     | Version:  v1706                                 |
|   \\  /    A nd           | Web:      www.OpenFOAM.com                      |
|    \\/     M anipulation  |                                                 |
\*---------------------------------------------------------------------------*/
FoamFile
{
    version     2.0;
    format      ascii;
    class       volScalarField;
    location    "0.14";
    object      overallT_N2cold;
}
// * * * * * * * * * * * * * * * * * * * * * * * * * * * * * * * * * * * * * //

dimensions      [0 0 0 1 0 0 0];


internalField   nonuniform List<scalar> 
6000
(
301.1264075
303.5040122
311.9202552
338.2001024
449.6337599
301.2691087
305.4094752
316.6204227
351.4702061
428.6777388
301.5565034
305.6756673
317.7940117
344.3011386
389.4640562
301.5535422
306.1924267
315.1495675
334.6528295
361.5959962
301.9385401
305.3262126
312.4353219
325.1503655
342.667734
301.3787455
303.9967348
309.2035637
317.8639091
328.6156358
301.3261119
303.3739734
307.0709882
312.6647451
320.3587092
300.642925
302.4313838
305.5471147
309.1116217
314.8051499
300.6633048
302.2574198
303.8126782
306.4498041
310.4878856
300.1593339
301.3605219
302.7382254
304.6170958
307.2353376
300.2800069
301.1687063
302.1341025
303.4474339
304.7813238
300.5395626
300.8118378
301.4080547
302.3062793
304.023687
300.3791185
300.7670615
301.0954027
301.8583363
302.2895038
300.2978527
300.7072571
301.0283512
301.5269241
301.8713391
300.1898394
300.5683696
300.5985029
301.1731852
301.599864
300.260864
300.0928912
300.4444758
300.567412
300.9776082
299.9467056
300.0074299
300.6564357
300.696814
300.9192599
299.9309942
300.1084243
299.8451491
299.8753863
300.0990195
299.5653813
299.5114121
299.6534852
300.0364659
300.2607128
299.9585733
299.9336379
299.9536446
299.9052056
299.7263935
299.8076575
299.9754005
300.1277774
300.2569579
300.3291984
299.8052604
300.0113605
299.8252899
299.6370975
299.9347811
300.1330777
300.004122
300.0596209
300.2561431
300.3629179
300.0976192
300.207814
300.1514757
299.9497113
300.038531
300.1355644
299.8441798
300.0543096
300.0900562
300.2385047
299.9021451
299.9873964
300.1555601
300.064338
299.974797
299.6707149
299.5830621
299.6232113
299.6898083
299.9777953
299.8819317
299.8340845
299.615269
299.5404045
299.4617051
300.1272813
299.8131516
300.0551715
300.011417
299.9997248
300.0059673
300.0921657
300.1717185
300.0753007
300.2300761
300.0360849
299.8862879
299.713033
299.4818638
299.4199493
299.6876456
299.6027351
299.6808279
300.0602799
300.1134972
299.8229867
299.9315549
299.7146799
299.5692716
299.3919236
299.8173387
299.7191492
299.8055737
299.8906207
300.1412387
300.0016215
300.1186463
300.1061291
299.9746825
299.7955752
300.1061569
299.9966136
300.0969153
300.1891053
300.3378022
300.200216
300.0312523
299.7730904
299.7528781
299.9090189
300.06889
299.9863569
300.0693703
299.8481751
299.7166259
299.7291838
299.8411473
300.074635
300.1381297
300.175059
299.5552527
299.5620897
299.7299772
299.7765254
299.8374257
300.1256429
300.1070803
300.0285271
300.0573961
300.0619012
299.7817413
299.7701092
299.7250976
299.5436412
299.6017332
300.2946925
300.0496284
300.1193169
300.2510551
300.135435
299.861633
299.9662125
299.7217794
299.8038227
299.8268701
299.6251293
299.6750016
299.7000372
299.7847949
299.597216
299.9061883
299.9238058
299.8556052
300.0241127
300.0397321
300.0841101
300.1447894
300.1725937
299.9636635
299.8646607
299.9631733
300.2115152
300.3190209
300.2899887
300.1664229
300.0380099
299.6991531
299.7921743
299.8705566
299.8562182
299.7694799
299.9147683
299.9634307
299.9525476
299.9813544
300.0611359
300.1486551
299.9749637
299.9628058
300.0221519
299.9659486
299.7243832
299.8099912
299.7889161
299.7985064
299.7847046
299.9234998
299.7944655
299.7748647
299.7630126
299.8713016
299.884995
299.7490787
299.6124756
299.7950924
299.6852675
299.7625094
299.8768552
299.9324764
300.078835
300.4198204
300.4744296
300.419507
300.3477113
300.2882232
300.0114365
300.0131919
300.1472445
300.199152
300.0516724
299.7443939
299.6597576
299.8094275
299.719582
299.6531949
300.4098172
300.3645953
300.1330736
300.1312578
300.2701329
299.8349785
299.9405213
300.1129714
300.1466008
299.9910191
643.5132677
684.7900316
706.3191748
717.8838747
724.7089267
726.0354597
725.6942808
724.1250108
721.1127201
717.3040508
713.2863172
708.0525442
705.2990643
701.1346599
696.9822401
694.0580612
688.0824959
684.4452394
681.2101046
678.4579742
674.2667596
671.9923629
668.9443935
665.6118361
661.1407626
657.7974923
656.0037641
652.9348377
651.3645579
648.9393456
646.7227226
644.9652488
642.0308502
640.226186
639.3094647
636.1800627
635.1904754
632.7939639
631.1972538
631.4258636
629.0850614
627.1992206
626.8711686
624.1062222
622.677284
620.4256862
618.8196334
617.6056816
615.0983017
615.4735792
615.9984423
614.044805
612.403316
610.8178622
608.8739353
607.9996767
607.9067297
607.5937536
605.5393737
605.1373779
604.1597373
602.8028004
601.5297661
600.3549625
599.1222479
598.460548
596.5233865
597.110128
596.1478021
595.3132655
593.5019888
594.0633437
594.7801627
593.603325
592.141707
591.0169302
590.1394702
589.7625358
588.8003826
590.0243773
586.9538902
587.0212007
586.2103775
584.9096441
586.2408973
585.2861338
584.9470463
582.8774976
582.3057489
580.5859346
578.9196232
580.0586747
580.9473886
579.2581238
569.5074565
518.1037586
569.121321
594.5816772
614.2133111
632.720195
648.8316288
661.8243241
673.226944
681.1201891
687.1669218
692.5000462
696.0889381
696.4069757
698.2335918
698.5246819
698.2611991
698.2974603
697.8508376
696.1274573
694.3888697
693.0530632
692.1852624
689.9697754
688.0455587
686.1443093
684.3054356
681.1816846
681.5596595
678.1980735
675.1172363
674.0142055
672.9688121
670.2990264
668.6246778
666.7216653
665.2103654
662.6973566
661.2805506
659.6810671
658.7894127
656.2467814
655.1524644
652.8457566
650.0645619
649.9365205
647.8068922
645.2793127
644.4995258
644.0606821
644.1865866
642.1088594
641.0377445
639.0538986
637.7121299
635.7500341
634.9765126
633.8693485
633.6510036
631.0874596
630.2784171
629.2551523
628.2691904
626.7700736
625.058165
624.1172993
624.0122895
622.7277787
621.7644662
620.6846343
618.8249936
620.0951769
619.4553138
617.6775319
616.8385892
614.468769
613.0631762
613.0897395
611.6161952
611.2726998
610.5516835
608.431764
609.5178098
606.6898138
605.6571481
605.6454316
604.1426762
604.1539278
600.9578669
598.9198925
597.5717822
595.835101
594.5243019
591.4513368
585.211138
561.5093978
442.0843087
488.1098699
521.0972375
542.4966368
561.3535824
576.027733
588.9307185
601.8663895
614.7072761
625.4189059
635.3632583
643.5867603
651.9366969
658.3404477
663.3478336
668.6586493
672.4700343
675.4848522
677.8526444
679.6882152
680.2317766
682.2149289
681.893895
683.5285104
683.7584105
683.3974049
683.505386
682.0143562
681.0454324
679.1458166
678.7111483
678.7590753
676.9943415
677.0387437
676.0154377
674.8456316
674.5694947
672.4481138
670.2819154
670.7478185
668.3812276
666.4781853
665.3676942
663.7684726
662.9490901
661.8746171
661.7224149
659.7841073
659.1873839
657.1383518
656.3895414
655.7381489
654.1308203
653.5543224
652.3202611
650.9141102
648.7542745
648.0968406
646.4641994
646.6450558
646.6303016
644.04489
643.2963417
641.6336786
640.9179823
640.0803721
638.7263743
637.2377113
636.9814517
634.8224462
633.9800414
632.843527
631.9740235
631.8514173
629.2301714
628.5038696
627.8551154
625.8411826
625.0566233
624.3900047
623.7243846
622.6784806
621.4196014
619.429867
617.7080903
616.6422962
615.5895862
614.0858235
610.4501453
608.1521653
606.071165
601.7157285
595.3307695
584.4202162
559.1320321
394.4845475
428.7006688
461.0653586
486.2758819
506.6908977
521.8836951
534.3122597
546.2138607
557.8837302
568.793595
579.9823248
589.5689869
599.0696255
607.6422078
616.13616
624.3484099
630.6458573
636.8611278
641.6744651
646.9397373
650.6431159
655.1208751
659.0145134
662.3093271
663.5135219
665.2949021
666.2010944
668.4122429
669.6212006
669.8051183
670.2934266
670.0877615
671.5849395
671.2730717
671.9716496
672.0422654
670.9097166
669.8320529
670.7726209
670.1682992
669.0534199
668.5420327
667.9328338
667.8709424
667.3593908
667.3577195
665.9199993
664.4158201
663.8001018
663.1893881
662.9746676
661.2956203
661.9582497
660.85378
659.4592994
657.9198575
657.359156
656.3441009
655.0660366
654.4438928
654.0718711
653.1936451
653.229962
651.4611149
650.2990647
649.2192742
647.7788917
646.4461128
646.6597846
645.2358023
645.5156886
643.491958
641.9133103
639.9561972
639.327987
638.9015354
637.9533503
637.3631012
636.4551283
635.6297809
634.1531104
633.273663
631.0191476
628.7020906
628.5659546
625.6908869
623.083749
621.0105629
620.2432898
617.0878567
612.7613136
607.6221486
598.6077717
584.5725195
560.5590897
362.6069229
388.7218401
414.7354986
438.5793864
459.9879471
476.9654767
491.4941671
503.6147709
515.0055957
524.455725
533.908311
543.8142606
551.9123675
560.950425
569.6560847
578.4649605
585.8023205
593.5261687
600.6840863
608.3233716
614.1169402
619.9644689
624.7855305
630.3864445
634.6479703
638.5778796
641.6685335
645.6220052
649.0747717
651.3955009
652.5724677
655.0507594
656.9421737
656.8787364
659.1397234
660.9369939
660.8745008
660.903055
662.8405868
663.9242566
663.6455664
663.6737214
665.0549867
666.2510638
665.0215847
664.381596
662.9835141
663.5482053
663.5491499
663.3892421
663.1198641
662.7438423
663.2217485
660.5587034
660.753482
660.2413557
660.4175183
658.9190725
658.6574324
658.5726979
658.5831351
657.0579123
656.7575057
656.8297068
655.2690501
654.3230498
653.3018799
652.8289426
652.2872329
651.3461714
651.1686152
650.1301642
648.6418311
647.3730347
645.806211
646.0126007
644.1647712
643.5008059
642.8335756
641.7377773
639.6097636
639.2251125
637.8597999
635.7144888
634.7613888
632.1142649
630.7425422
627.5288026
624.2326642
620.6665202
615.7945744
609.7188852
600.5832152
585.9188173
562.9878155
342.4877906
360.9264164
380.4401492
399.5155615
419.8039692
437.7606069
453.6939451
467.1128366
478.4823139
488.5422812
498.6339335
506.7245219
515.3100824
523.3117677
531.2154454
538.4034495
546.5032392
554.1630885
561.4401735
568.9695827
575.9952516
583.0544046
588.7374919
594.5286111
600.7758899
605.4806469
610.5093182
614.5909785
620.1196808
623.5848468
627.6496792
631.5878118
633.843088
636.5489011
639.4539659
641.4423473
643.0385447
645.4631069
647.1377492
649.9905227
651.710603
652.7895797
654.836467
655.8881468
654.7078919
654.5115275
655.3775784
656.4238666
656.9859523
658.1100799
656.8656601
657.1954142
658.5080822
657.558609
658.0969842
658.0793322
657.5628616
657.1446888
656.6377049
657.5353148
656.6232697
657.0206935
657.5640479
656.350699
654.7836311
655.4550443
654.8747663
654.9012477
653.646101
652.1175058
652.4774555
652.8694282
651.4321927
650.1456815
650.897434
649.0943504
647.6512919
648.1536559
645.8658345
645.0190959
642.9221704
642.7087798
641.5303407
639.6002859
638.6910743
637.3541676
633.5514115
631.0116141
628.2871789
623.3543804
617.6514936
609.6138161
599.821359
586.6432699
563.6262584
329.4115924
341.6128744
356.2564395
371.6153245
388.2276709
403.568731
419.4999081
433.444248
447.0856883
456.9372916
466.9763205
476.4854899
484.1755017
492.8306805
499.2742952
507.2734871
513.7851806
520.6039563
527.4994305
533.956544
540.4897513
548.3102473
554.4891924
560.6401019
566.4622622
572.9915292
578.3152545
584.6138598
589.1754177
594.0640078
599.6738359
603.6532611
607.7467218
612.5255804
615.6022081
618.5498853
621.5958284
625.0272886
627.018638
630.5039464
632.5085345
635.0272905
637.6394027
638.8614741
639.6313104
641.8625729
644.4307342
645.4939843
646.8182622
646.4862994
648.1168854
649.3267426
649.0543898
649.9789635
651.5243914
652.5525672
650.9267135
652.499517
652.6561095
652.6797199
652.5598485
652.7385338
653.8528733
653.3737573
651.7738507
652.54786
652.7448008
651.6156401
651.3045806
651.107536
651.5584801
651.0349449
651.2690479
650.6231229
650.6498342
649.9787555
649.3586341
646.3234621
647.846639
645.7724493
645.9207109
645.1774164
643.1430076
641.9802708
640.387866
638.3302043
635.9774597
632.6206483
628.4878126
624.5871608
618.2386768
612.2876743
601.0769569
585.5201397
565.5358108
320.809664
329.0583817
338.6358302
350.9426203
363.4287483
376.6713123
390.028803
404.4097263
417.5813104
427.9771816
439.4489953
448.5478132
457.4467977
466.2415246
473.9957227
479.3108257
485.2033302
492.4578463
498.7646193
505.4434833
511.4221222
518.5935991
524.4767712
530.0445653
535.8685608
541.8666964
547.9118646
553.8707843
559.5820887
564.0245897
569.6429482
575.1857687
580.0724635
583.9640585
589.3165527
593.8089184
597.3286107
602.2615321
603.8927919
608.3566839
611.030726
615.3244743
617.9058925
619.3488647
622.356285
624.8895779
626.9816979
628.6358399
630.1495505
634.0569894
633.9332174
635.0109196
636.2909136
637.8723838
640.3907168
641.2953764
641.6214913
642.6949949
643.6679572
644.2283003
645.1010428
646.3616468
646.4071704
647.2026331
647.184553
647.0130879
648.186728
647.5603714
648.6334407
648.1803769
647.9588478
647.7096315
647.7486801
647.8643924
647.7942831
648.4595042
646.9509948
646.0942781
645.0449154
645.321178
645.7265435
643.8636122
641.8586049
641.3850784
639.411111
636.7388587
634.7278059
631.8205142
628.0179525
623.2902493
618.3528757
609.8581791
600.685765
587.6301296
568.5670969
314.1590637
319.7397236
327.6614846
335.7033471
345.1949139
356.1845196
366.7371425
378.271995
391.6669766
402.597889
413.441772
423.6020861
432.7064609
441.439179
449.6842488
456.2831179
462.9375101
468.5907845
474.7158302
480.5695923
486.2315892
491.7364353
496.7633172
503.3143719
508.421565
514.2273641
519.7078127
525.5321208
531.7222435
536.7149779
541.6469644
547.444781
552.686545
557.187356
562.4585702
567.1693768
572.0033354
575.8627049
579.8676435
583.7721254
588.678488
591.7473133
594.7338812
598.7967331
601.1491663
603.4345339
606.2048066
609.4265913
612.5739696
615.6869002
617.9534236
619.0889161
620.6396906
623.886031
624.7064767
626.1298137
628.2263648
629.1930687
631.5248895
632.4438531
634.0623419
634.8344022
636.3213325
638.2753042
638.1286617
637.8989982
639.4087161
639.9371931
640.3783855
640.9461664
641.8269606
641.1710692
641.1013469
642.45414
642.2508423
642.648261
642.9409841
642.3394433
641.6456762
640.9025199
641.6740526
641.5321721
638.4484471
638.0665868
636.9586376
634.90029
632.817765
629.255284
625.9629221
621.3211157
616.5093055
608.832783
600.0349912
587.0250259
569.6856893
309.7111199
313.7622938
318.8079935
324.5001774
331.4572973
339.79993
348.9394139
357.7233493
369.1599874
379.8248489
389.5649945
399.7428613
409.4891628
418.3052213
427.0123129
434.3135109
440.7901626
447.7262965
453.8005951
458.5267837
463.9539077
470.0235917
474.6911507
479.9917573
485.170343
490.0920198
495.1139281
501.5661997
506.7237033
511.7772787
516.3537533
521.5403595
526.8008216
530.9557434
536.2813482
541.5468186
546.0112592
550.764558
555.9222177
559.4205328
563.6048287
567.7367785
571.8417836
576.3621793
579.7000329
583.2913909
585.6745246
589.7155914
592.8555654
596.7301605
599.2359595
601.8221573
604.2165932
606.4270627
609.3227671
610.7997411
612.5445989
613.2152812
615.4093659
618.2893596
619.6631496
621.5973141
623.7756255
625.0771447
626.1601705
627.6202702
629.6031649
630.6241734
630.6639582
631.1577805
632.0210481
633.7735726
633.7765905
634.4216943
634.9984196
635.2374241
635.4599249
635.9726251
636.5323197
634.960246
635.5895719
635.2152054
634.2893756
634.1377509
632.9207996
631.2548657
629.134297
625.5427256
622.9916991
617.8952108
613.645368
607.5890105
598.6660362
587.236808
570.0213844
306.9485048
309.2141425
313.1435166
317.9166562
322.7096681
328.6367367
334.8356112
341.9867888
351.045554
359.649294
368.6776308
378.4092182
388.2433976
396.9351721
405.7893803
413.9962225
420.9634902
428.3384079
433.9912954
439.9001862
445.6571244
450.8067166
455.7283239
460.6106828
465.4514841
469.593093
474.6518386
479.6762
484.5252351
489.3722564
494.7708857
498.736353
504.0158997
508.3542132
512.7750785
517.9539394
521.4718312
526.3364525
531.1926381
535.150261
539.9389703
544.5891332
549.1422398
553.0609904
556.3908499
560.0852504
564.462496
568.0959864
572.2922118
575.3127236
578.1346819
582.0163026
585.4386714
587.9385207
590.3865081
591.6192645
594.5891735
597.6078253
599.8601833
602.7392907
604.9616948
607.5268665
610.1064382
611.2145412
612.7238353
613.9318594
616.2504172
616.6378947
618.8674124
620.2564418
621.6206156
622.1846166
623.1706738
623.8812024
624.2111866
625.5581966
626.5278769
627.0633976
626.7793455
627.3589094
628.2684933
627.9124985
627.1150399
627.5281475
626.4627737
623.9758939
623.2536356
620.6670426
617.7091246
614.5444085
609.0359163
603.296286
594.1674557
583.9343507
569.6974
304.9394422
306.8166687
309.055324
312.3507054
315.7037554
320.2670368
325.1151908
330.8748773
337.7651157
344.5523775
351.8156142
360.1661645
368.5774228
376.7456428
386.0447022
393.7159831
401.6688032
408.9406555
416.4768682
422.1001877
427.596804
434.0657202
439.1650905
443.9764187
447.8572205
452.1704764
456.5119196
460.8104093
465.3203352
469.5562048
474.3940873
478.8760959
483.5093524
487.8065527
492.2763055
497.3606567
500.9275216
504.5646494
509.0787315
514.0708904
517.9760408
521.5728621
526.4183331
530.5244901
535.3335895
538.0269927
542.481685
546.7300949
550.9622248
554.2009526
557.5413966
560.8777299
563.9731603
567.3229861
570.5261941
573.598652
576.0777832
578.4341917
580.7054109
584.4587753
587.9821325
590.9110741
592.6461217
594.9154667
596.525689
599.145665
601.1812435
603.0090129
605.2214174
606.6609373
607.8472184
609.8525843
611.905278
613.2557195
613.2327315
614.1791267
616.20605
617.1801839
617.3859971
617.7850744
618.2486017
619.0460284
618.3537033
618.0756486
617.6475022
616.9103484
615.5902979
612.8607407
611.4762168
607.883088
603.5426174
597.9940246
590.4749494
580.1409868
566.6540019
303.4937795
304.740593
306.4663584
308.8399774
311.3881887
314.7912776
318.3028365
322.0815187
326.5812796
332.3702316
338.1690264
345.0009092
351.9192573
358.9706493
367.2963849
374.9967424
382.9828114
390.593882
397.4328952
404.7575585
410.7436304
416.6159721
422.2794221
427.0150624
432.6618365
436.8940635
441.1190601
444.7999893
449.0706461
453.2686345
457.5897908
460.7415277
464.6989994
468.9344139
472.7635
477.3868579
481.4935151
484.9520314
488.8286702
493.2171894
497.5114882
500.8096521
505.3123893
509.7921725
513.4855133
516.7550966
521.3119522
526.0869754
529.7939028
533.3860638
537.7053528
540.3353921
544.4576788
547.6623145
551.6398663
555.9476477
558.0678209
560.5975095
564.1179897
566.256147
569.2086253
572.6578265
574.8995999
578.189003
580.3500306
582.9148652
585.3972829
587.1585958
588.6709944
591.9055414
594.1698588
595.5090511
597.9681133
599.1283989
600.2214967
600.8623069
603.2457438
604.5745327
606.7617037
607.1615401
607.886447
608.7788434
608.9932759
608.4940397
608.2977763
607.1870708
605.585397
604.6724004
602.9416795
600.4042894
596.8458216
591.2703451
583.5063001
576.0265701
563.15067
302.7592362
303.274106
304.2383509
306.1633844
307.9101679
310.1060006
312.9121907
315.4170434
318.7559374
322.9275387
327.8463765
333.1070231
338.4958558
344.5418268
351.2430678
358.1842132
365.1466757
372.4231245
380.0915406
387.0750652
393.676969
400.2168112
406.3320748
411.5731048
416.8235134
421.3889133
426.1636822
429.7507179
434.043909
438.2237618
442.0775976
445.2735798
449.0592819
453.1577769
456.7197972
460.7153516
464.7548575
468.2782725
471.4981696
475.6014022
478.997779
482.6304306
485.9567467
490.4610577
494.4428142
497.9316021
501.1536989
505.5714422
509.4676541
513.2544851
517.9342944
520.4441008
524.6454499
527.9471309
531.386469
535.1161465
538.4480216
541.7407402
545.3816119
548.2711721
551.4995122
554.4739883
557.4254912
559.8680594
563.4174466
565.7966662
567.9650149
570.8661475
573.6651931
575.9055692
578.4150511
579.9964251
582.7625122
585.3106404
586.1419726
587.6143829
590.0454632
592.0706729
593.1911776
594.6148918
594.9253667
596.0299542
597.2552474
597.9971586
597.5485213
597.0459203
596.2042642
595.3011721
593.7487011
591.9055902
588.6799161
584.1109515
577.4940225
569.9629038
559.1160263
302.1771754
302.7667752
303.1883115
304.3164398
305.5313317
306.8799315
308.7243279
310.9558238
313.6764862
316.3606391
319.8197278
323.8830364
327.8855514
333.0110511
338.4264405
343.9957503
349.994437
356.9599563
363.4308893
369.8572523
376.5127662
383.6469907
389.9435823
396.1071773
401.9144263
407.2483699
412.4818932
417.0985643
420.7527949
424.4596165
428.4616277
431.9321143
435.3531598
438.8558075
442.8205614
446.1450621
449.0944019
453.1767077
456.6914966
459.8799133
463.4772715
466.5388809
469.9956037
473.4407657
477.2155785
481.0916772
483.5133581
487.2897478
491.1554031
494.5141014
498.3163202
502.280176
505.0374776
509.6133562
512.8265731
516.3372049
520.2704768
523.1962763
526.658717
530.1897808
532.9755027
536.2746089
539.5394641
542.8025734
545.5064363
547.7113587
550.7535986
553.6697794
557.3212848
559.735212
561.268888
563.5556184
566.3170245
568.2400672
570.818244
572.7865591
576.0343188
577.0668536
578.8073832
579.8775381
581.9759627
583.7237397
584.5461098
584.9177505
586.0960635
585.9711404
585.5767631
584.4944866
584.1069069
582.1771628
578.9268488
575.9019311
570.3838888
563.6886385
554.3788862
301.3080507
301.5585175
302.1674387
302.960285
303.9871035
304.6438368
305.9024585
307.5773645
309.6265013
311.7386816
313.9793064
317.1799733
319.9318393
324.3747787
328.4217574
333.1628784
338.2023437
343.7731981
349.4967576
355.5179914
361.672241
367.8567037
374.2299284
380.5470639
386.2428805
391.9577576
397.4881001
402.70022
407.2528153
411.7551073
415.5511201
420.0269781
423.6798532
426.4741235
430.1166802
433.2229386
436.1842638
439.1206285
442.4762933
445.2494339
448.64928
451.5357949
454.7516021
458.080408
461.1376681
464.4450666
467.9155166
470.6888047
474.2332881
477.6300107
481.3161358
485.1661964
487.6977381
491.3992912
494.8844404
497.9159814
501.1536807
505.2197049
508.0852551
511.9819668
515.2061243
517.9260791
521.5856149
524.7872215
527.6620623
531.3844084
534.2549159
536.7526159
539.5061167
542.362942
544.2019974
547.3447367
550.355202
552.8089045
554.7589479
556.958767
559.4977507
562.2651894
564.5967976
566.5732106
567.9689365
569.1506987
570.6185628
571.5973344
572.6561921
572.9733801
573.5103024
572.6664325
571.9164653
571.0514318
569.449121
565.7862876
561.331744
556.3567062
547.6593494
301.3120204
301.6015927
301.6476691
301.8551826
302.4740258
303.5351947
304.6548098
305.5375579
306.8534944
308.5289029
310.0447523
312.5222363
314.5694304
317.4938183
320.7785023
324.3186218
328.07631
332.4939879
337.6919737
342.8529483
348.6352295
353.8850917
359.5108485
365.4142031
371.6322213
377.1841334
382.8287008
388.8190958
393.8634985
398.4661599
403.0833087
406.8358006
411.2778049
414.8956918
418.0141857
421.0320776
423.7481949
427.368127
430.3970508
433.3925954
436.1754369
439.1544401
441.8523345
444.7688372
447.4948115
450.524315
453.8939117
456.7006854
459.571852
462.9691227
465.8038526
468.7221853
471.7114005
475.3005326
478.9212496
481.8363916
484.7127772
488.2357413
491.440389
495.2973495
497.7943942
501.4053384
504.0357002
507.7304811
511.1937152
513.8686593
516.7398943
519.6855462
522.4995017
525.6514528
528.0314284
531.6120832
533.4108506
535.7618929
538.1322261
541.2270293
543.2761289
545.7509232
547.9917517
550.3474786
553.0746755
554.4443919
555.9291702
557.4770609
559.3088685
559.0058662
559.9369108
560.3067954
559.7986201
559.9147343
558.5370507
555.8254413
552.579677
548.0775359
541.5302256
299.9854506
300.3933466
301.0000136
301.3423811
301.7803547
302.5301287
303.3752657
303.9665284
304.7378292
305.9107138
307.1479088
308.8548347
310.2231875
312.6019154
314.8813683
317.9088733
320.9060572
324.2781216
327.9759094
332.0060949
336.4445563
341.841926
347.1282802
352.395038
357.9720094
363.640064
369.2798542
374.4037492
380.2754026
385.145932
389.9577165
394.5168333
398.4797099
402.5912829
406.5101437
410.3577439
413.7295431
416.3385427
419.1873897
422.2221397
425.254555
428.0045595
430.4579561
433.3025577
436.1479004
438.9752663
441.8503526
444.6640405
447.0703396
449.7389336
452.230254
455.2352831
458.011298
460.8544109
463.7954663
466.8668219
469.8243922
473.076034
475.666765
478.8693419
482.2569382
485.5484253
487.9922274
490.6846989
494.2563253
497.5980013
500.7205813
503.4302253
506.2470409
509.034417
511.7560159
514.8166366
517.3266929
520.086832
522.2972666
524.6684473
527.8068473
530.3659299
532.3932212
534.5939363
537.0553529
539.0760225
541.2391038
543.15159
544.5431666
545.84047
546.5482991
547.7213542
548.0913503
547.5315532
547.021373
545.0656642
543.353997
539.5091817
533.0163291
300.2462681
300.5594131
300.6810415
300.9433153
301.0249422
301.4588595
302.1635685
302.8705121
303.4394206
304.1754293
305.2365237
306.3859464
307.5525763
308.6669631
310.558177
312.1879496
314.7688239
317.4584242
320.543427
323.7184892
327.610543
331.4179262
335.6664749
340.0340304
344.8901984
350.3079478
355.6900541
360.8772022
366.219267
371.7788819
377.0848371
381.9331587
386.5388045
390.8634767
395.192438
399.2838753
402.8368083
406.3060401
409.310493
412.2346421
415.0776392
417.3277262
420.2794672
423.0009049
425.7030506
427.9855629
430.1547785
432.8858582
435.6957643
437.7312039
440.236134
443.0406761
445.7642358
448.5852573
450.7861562
453.2776965
455.8403105
458.5846367
461.5460956
463.7778217
466.6930952
469.923624
472.7326287
475.2862033
478.541696
481.413556
484.3508652
487.1777067
490.0592556
492.3968199
495.7600044
498.306188
501.5162269
504.4013554
506.9717548
510.1130223
511.9130458
514.6574233
516.7102005
519.6762764
522.0456796
524.9320835
526.875801
529.3679261
530.7950559
531.821631
532.9247401
534.4026084
535.0053101
535.5779592
534.4224745
533.5328997
531.6602129
529.9272634
525.0682677
300.102807
300.2962446
300.4158089
300.3782853
300.746611
300.9570526
301.2402829
301.4600803
302.4645719
302.7001535
303.3666071
304.228155
305.0947322
306.3000384
307.6064695
308.8345838
310.3135035
312.1654838
314.4375097
316.6619655
319.6237257
322.8458009
326.6760363
330.3394387
334.4163299
338.7230003
343.516012
348.5655122
353.2112638
358.8770591
364.1524701
368.8174323
374.0565245
378.9266776
383.3499937
387.625154
391.6227074
395.3245843
398.9941534
401.9756914
405.200509
408.3856968
410.8418086
413.7979819
415.7643193
418.3517637
420.8626459
422.8169671
425.2156716
427.9080064
429.8860525
432.1882982
434.6712144
436.5111898
438.9808372
441.5150121
443.9949487
446.8207218
448.9762833
450.9865593
453.6733647
456.6698203
459.0023395
461.9412035
465.2797981
467.9505233
470.2098693
473.0604016
475.8243876
478.4483048
481.2024519
483.622736
486.2142661
489.1466013
492.162261
495.0158952
497.5501067
499.9450418
502.123035
504.1222999
507.3421316
509.5682691
512.1449102
514.6360158
515.7126937
517.9078216
519.2657914
520.1262025
521.6223769
521.5867252
521.7054396
521.9346438
520.9583453
518.4773968
515.1664819
299.9284709
300.1562352
300.3513223
300.2586573
300.4916589
300.9149736
301.1671399
301.2003864
301.4517624
302.0377494
302.6104795
303.4376205
304.2350694
304.5048798
305.2480032
306.3449081
307.5620827
309.1030576
310.2040549
311.975322
314.2222415
316.6314602
319.4083781
322.2531756
325.8154842
329.5903648
332.9709917
337.3070869
342.1714523
346.1630557
351.1859457
356.5581526
361.5162758
366.346714
371.5056133
376.0370003
380.5989579
384.4996797
388.490352
392.0503932
395.3307719
398.5560927
401.6970865
404.7007217
407.091107
409.4077422
411.9148417
414.0264461
416.5398836
418.7624507
420.7225858
423.0126466
424.845117
427.273756
428.9091311
430.8499974
433.2719252
435.2699989
437.2931421
439.8600603
441.892521
444.554618
447.018823
449.342028
451.7486579
454.2091002
456.7581482
459.2133738
462.2142126
465.0076747
467.4812108
469.7582339
471.6158677
474.6755566
477.2329883
479.5097847
482.555637
485.2320663
487.5157004
489.4785737
492.3513588
494.7992493
496.960015
499.188639
501.2486563
504.3147063
505.5640872
506.6088122
507.8690823
509.3279594
509.3642172
509.5477149
508.8256434
507.3993631
504.8433279
299.9722067
300.1293373
300.0268861
300.3111359
300.3506974
300.3509909
300.459071
300.7186078
301.1197535
301.4119584
301.3637077
301.8805627
302.4464014
303.0774279
303.8710371
304.4194336
305.0258489
306.3653372
307.3193971
308.817351
310.3627221
311.917777
313.8669104
316.0786686
318.6832388
321.6399029
325.0479468
328.2585234
332.0409051
336.4331089
340.693374
345.2422159
349.6289756
354.4382508
358.6977465
363.5704319
368.4413984
373.1792599
377.8092851
381.82405
385.6301764
389.2662568
392.1779862
395.0654124
398.272526
400.7388385
403.2737399
405.6779112
407.8291848
410.1305352
412.1407586
413.8158553
416.1173942
418.0971545
420.005052
421.6463728
423.3723537
425.7914791
427.5755772
429.664917
431.8417091
433.3865099
435.6789011
438.0992354
440.278295
443.1388383
445.1712274
447.4168782
449.8185878
452.5129328
454.7883107
457.1684405
459.550366
461.7034907
463.9798269
466.6345269
469.0932672
471.457128
473.8885978
476.2967195
478.3539923
480.4206511
482.8357511
485.2176029
487.7645144
489.9934965
491.9089536
493.254064
494.5007309
496.2387306
495.5814583
496.8269653
496.7180819
496.2383775
495.1733052
300.1988255
300.0876881
299.9972168
299.9772894
300.1408691
300.3498997
300.4125073
300.3862713
300.4733451
300.7810371
300.8840199
301.4160126
301.6606995
302.3293098
302.4006493
302.9128948
303.5631687
304.0648189
304.9600456
306.0719778
307.0870572
308.1567183
309.2606696
311.2620646
313.1982321
315.0647695
317.8234926
320.7678932
323.4547845
327.0770858
330.4737203
334.2976267
338.3931833
343.0964193
348.1392404
352.7475568
356.9552491
361.5283724
366.193788
370.5361663
374.6472162
378.7726336
382.6280439
385.7197788
389.0999449
392.2924215
394.5368555
397.4076776
400.1230342
402.1794717
404.3478604
406.3282051
408.1975988
410.0546549
411.8371609
413.5515629
415.523719
417.1247159