/*--------------------------------*- C++ -*----------------------------------*\
| =========                 |                                                 |
| \\      /  F ield         | OpenFOAM: The Open Source CFD Toolbox           |
|  \\    /   O peration     | Version:  v1706                                 |
|   \\  /    A nd           | Web:      www.OpenFOAM.com                      |
|    \\/     M anipulation  |                                                 |
\*---------------------------------------------------------------------------*/
FoamFile
{
    version     2.0;
    format      ascii;
    class       volScalarField;
    location    "0.14";
    object      rotationalT_N2cold;
}
// * * * * * * * * * * * * * * * * * * * * * * * * * * * * * * * * * * * * * //

dimensions      [0 0 0 1 0 0 0];


internalField   nonuniform List<scalar> 
6000
(
300.3296109
300.6548669
302.5814437
307.0745522
327.6142954
299.9621805
300.9254567
303.0256411
309.5315643
325.6608501
301.0829524
301.3284293
303.8036934
308.8819028
320.080448
300.2037229
300.7275275
303.5160492
308.2517771
314.3293728
300.5787604
301.363881
302.85034
305.9704083
310.1776855
299.721127
300.6098942
301.8834048
303.7581023
306.564758
300.4726276
300.7805838
301.5290281
302.9489771
305.2664742
300.0952804
300.8607961
301.7570435
302.9934296
304.6674707
300.3454292
300.6057983
301.0397442
301.4475848
302.9431186
300.1178875
300.3814541
300.7080707
301.2153986
302.1064133
299.9173714
300.0891356
300.4621191
300.4356645
300.6040978
299.8535532
300.0643381
300.5955002
301.0413961
301.3680326
300.0753445
300.2400672
300.2086497
300.0732918
300.578615
299.9931822
300.2146832
300.5371109
300.7740898
300.8347052
300.7232603
300.9759252
300.6682274
300.9434364
301.020624
300.3059221
300.0223954
300.0052703
299.8405528
299.7996722
299.8010249
299.8396976
300.3624929
300.5080903
300.8442822
299.89766
299.9205362
299.6946843
299.4536606
299.2907805
299.8157664
300.0798849
300.1129965
300.5630479
300.3036139
300.0359384
300.0807107
299.933813
300.0354115
299.4207168
300.2571298
300.5245179
300.329455
300.4295435
300.6477466
299.8081637
300.1621271
300.0718495
300.1084047
300.406852
300.2720909
299.6541659
300.0017403
300.4639325
300.2903373
300.0052238
300.5624838
300.0182372
299.7547303
300.0800011
299.9713148
299.7033251
300.1388437
300.1340168
299.7374481
299.7115753
299.8153653
299.5830786
299.8086325
299.4955445
299.6245882
299.5744082
299.4461966
299.4334651
299.8243535
299.5127985
299.5265325
299.5294169
299.3241496
299.2845601
300.2685808
300.2067405
300.1831128
300.1817386
300.0335863
299.9560941
299.8173795
300.0086192
300.0462908
300.3520397
299.851472
299.738852
299.6006973
299.5372934
299.2939288
300.076527
299.9636797
300.1342033
300.4146199
300.3900294
299.9817155
299.9182758
299.7995642
299.7561469
299.5352631
299.8061723
299.7808136
299.9827367
300.1949805
300.1695794
300.1355691
300.3175945
300.0443142
299.8973691
299.6984087
300.0508335
299.8773293
300.3364632
300.2247602
300.2255987
299.8903274
299.6376639
299.3209663
299.6385692
299.909642
300.1389319
300.0439463
299.9507337
300.145429
299.8366737
299.6759338
299.9233762
300.4197382
300.3601647
300.2699426
299.9444676
299.9941151
299.9234575
299.7987471
299.8167212
300.6590678
300.4267818
300.0096573
300.0166174
300.1397313
299.7510724
299.8731695
300.0634412
300.006125
299.9422403
300.4648479
300.499181
300.427986
300.4387698
300.1654513
299.7768783
299.8690082
299.5852144
299.9257787
299.9539131
300.0673343
300.0006046
300.0549052
300.2983489
300.1077284
300.6031337
300.5825326
300.5798927
300.3022464
300.3535876
299.9664479
300.2040801
300.2970456
300.0787796
299.5656514
300.1694354
300.2873247
300.1606151
300.4504878
300.2885773
300.2660696
300.0820613
300.3155327
299.982765
300.017938
299.8796013
300.1217559
299.9765585
300.0566901
300.0308681
300.2417153
300.0432369
300.0360624
300.0472332
300.1915048
300.0426207
300.0429399
300.155259
300.3122136
299.9080975
299.7813101
299.9196647
299.7900487
299.5842603
299.8853179
299.9429226
299.8077758
299.7198224
299.5649909
299.7366245
299.7609391
300.0464453
299.8664113
299.8344733
299.8763352
300.0231421
300.1274171
300.264764
300.331611
300.3793554
299.8963327
299.7278252
299.6052252
299.8779013
299.673595
299.3434634
299.4073938
299.6780187
299.3133633
299.3487402
300.4072705
300.5264245
300.370488
300.4917331
300.410345
299.4787308
299.6108089
299.9573272
300.1937653
300.0167626
382.9890064
415.4229727
440.3021942
458.6574141
475.2223688
487.2255439
497.4067803
506.0023062
514.6573127
519.7026194
525.7169274
530.3997244
535.649618
539.3692556
542.8583742
546.0859752
549.0284331
550.1539028
552.9422328
555.610153
554.2450527
558.4834244
558.4430222
559.971915
558.9206804
558.9098746
560.2813864
560.5452195
562.0178676
562.4929855
562.4095829
565.3845063
564.220365
562.7843104
564.2988579
563.4107598
564.8999215
563.5325175
564.0797663
565.1036197
564.3691063
563.892876
565.3303114
563.350335
562.7817445
564.8838702
563.6840369
561.8444278
560.5946461
564.045907
563.8472172
563.8280828
562.6920169
561.9067599
560.5218491
560.6551669
561.4693442
562.4461444
559.9768908
561.3015468
560.5302483
559.3736375
560.102907
555.9052975
558.6591397
557.3982644
555.7978147
556.6008827
556.6805672
558.2545756
555.8946672
556.1615563
557.0843922
557.5755776
557.5012298
556.3376083
555.426968
556.4595952
554.5433892
557.0680777
555.5325439
555.0505842
555.198228
553.8518633
554.8647991
553.8164975
552.4978939
550.9477443
550.6460622
548.9541512
546.0822974
546.5029585
549.0571767
545.5871506
545.5612692
351.0193119
376.9755353
398.9333819
418.728941
436.875713
453.994349
468.798961
482.4601638
494.6577541
504.8315697
515.9996664
523.6118742
528.8394195
538.5587809
542.2909615
547.8085201
553.1510104
558.0908867
561.2804962
562.7708442
566.0928559
569.5501645
571.2925995
573.8107958
576.7715464
577.7125865
577.760407
580.6156522
581.2747386
580.0239096
581.7330065
584.9720796
584.3760806
583.7780411
584.4392236
583.383368
584.2168825
584.5615863
585.9337563
586.2754698
584.2315913
585.7169582
585.3339341
583.283408
584.7945947
583.5503288
582.5895691
581.9018359
583.0175206
584.9657952
585.9191173
584.8971082
583.4703548
584.3507688
582.6081465
583.0323332
582.3195456
584.58132
581.5865042
582.124642
583.591763
582.0843759
579.6570141
577.0442788
579.1988317
580.320114
579.2071138
579.2098652
578.152022
577.2969566
580.1052314
579.352243
578.4951111
577.9646515
576.4759023
575.3587577
575.6284651
575.5709134
573.7421881
575.7067166
573.0200701
574.0094804
571.4704674
570.9363106
572.458542
572.0288391
570.7000725
568.3262543
565.8239692
565.1010305
564.1244778
563.1745826
562.767285
561.6982853
561.4344481
334.9378021
353.9773352
372.9511627
390.2904514
406.3239595
421.3217228
435.7647257
450.9503514
464.4922668
477.7555402
488.125451
498.7071793
509.7047095
518.8745286
526.1417024
533.1603438
540.2196624
546.6872555
553.5862072
557.2619298
561.8298777
567.0054964
570.7862804
574.3529892
577.8074062
580.268521
582.597976
583.8865042
584.4989891
585.6574751
585.9420106
589.0287455
590.1669348
592.6570671
593.1996392
595.0616402
595.7329726
593.9961373
593.3557731
596.9316048
595.3984646
597.1933402
596.6881087
597.3042612
596.9970692
597.8914486
598.4015627
598.7622496
597.7986163
596.4057453
596.8845538
598.8813535
598.1441221
597.8793755
597.4709705
597.5914626
597.1456521
597.5690121
596.7457634
597.3190416
596.9941737
594.4310705
592.5937739
593.2215921
594.5571195
594.6039115
592.5595733
591.2231199
593.2272699
593.097727
591.4109525
589.1628736
590.2206976
591.7788977
588.6425736
587.5621835
587.7123476
588.4770949
586.9584398
586.5482842
586.9751541
585.8447469
584.9816038
584.7268904
584.4350322
584.4950295
581.5174733
580.7395515
578.1213236
576.9122429
576.6592954
572.1753434
571.3876907
570.1324452
568.0733738
324.0841756
335.9322785
350.734049
366.1276909
381.9237446
395.194626
408.7720306
422.9089377
435.5424239
447.2764409
458.8061009
469.8364428
480.1524711
490.5437594
501.5974093
509.9675242
519.1442998
526.8075733
533.2728239
541.3579054
545.3670524
552.1161328
558.9334514
563.8709925
566.378351
568.8942742
573.3119038
578.1635417
581.8944563
582.620882
584.9558687
585.5649914
589.8228748
590.1745713
593.8287486
594.9557615
594.6772511
595.775351
597.9314745
598.8859427
598.2827442
599.612423
600.8633214
602.066164
602.7436668
605.3012313
603.1328425
601.9177034
602.1482047
603.2811933
606.8751956
605.9378213
606.2717441
604.7330142
605.1256649
604.650623
605.100225
606.5168857
605.2577943
605.4855757
605.0045199
606.2019126
606.1994973
604.8959953
604.3522542
603.7477115
602.2109462
600.4086925
602.8201477
600.6800129
600.6272973
600.5409072
600.2359754
597.9016122
598.7759697
597.9696179
597.2989262
598.871346
598.2644784
598.2157662
599.0860919
595.5507014
594.6840986
592.2929289
593.843096
591.7054264
588.8530589
587.6751579
588.618568
586.5058244
585.7921157
583.6046081
579.079992
575.8769166
576.3340176
316.2539137
324.8230518
335.4162882
346.9762635
358.8990767
371.6266875
384.753537
397.296994
409.4004308
421.0259964
432.2443169
443.1193739
453.0625681
463.7986977
473.6166443
484.4014424
493.1698837
501.1313657
509.1040364
517.8490178
524.8274667
532.3597309
538.1720581
545.4724833
550.5773612
556.7181663
560.1013385
565.3201728
570.7364697
574.6050361
576.7880851
579.5275664
583.4810986
584.6987035
586.9734863
591.0909543
593.0119241
594.1109484
596.2017585
598.4433812
597.5759803
599.339487
601.0885783
602.512855
603.3061188
603.4110037
602.9460824
605.7486514
607.1658005
607.826843
608.546135
608.7591538
609.6172738
608.1325318
607.9033928
610.3365295
611.7624744
610.6088076
609.5608681
611.7562792
611.416214
610.8868637
610.2545111
612.1336594
610.8354286
609.9309174
608.7991831
608.218343
609.0325845
607.6390399
608.0268516
607.3959749
606.4448112
605.8384331
605.9070768
606.1402089
605.246534
605.6447577
605.6887114
606.2381466
604.0907875
602.2793358
603.0513005
600.1308482
602.1813001
600.9458971
599.2209961
596.9022855
596.211108
593.2738286
590.3259155
588.9109842
586.325969
583.2131584
580.9718143
310.6830194
316.5802197
324.280025
332.0771434
342.027015
352.1424939
362.7891686
374.1917028
385.1063958
396.6452837
407.5341011
418.0892346
428.3797726
437.8957737
447.5801717
456.1468962
466.706223
475.8953519
484.6540253
493.2266335
501.532524
509.4357727
515.8845188
523.4084206
531.3063216
537.195296
542.6077203
546.9891158
552.7898016
556.8309468
562.1654836
567.0813482
571.011915
573.9406061
576.1216386
579.5861832
581.6397285
584.7350286
586.2496273
588.9910575
593.3302034
594.7405378
596.7836335
598.380421
599.1208869
598.2185491
599.1438925
601.7406865
602.6819064
605.8349505
604.5052828
604.964516
606.74839
605.9888661
608.9661815
609.6755857
609.7730109
610.6939786
610.6945688
610.8616724
611.5286508
611.2934833
613.8179834
613.5240837
612.4358489
613.0522322
611.7781241
612.9168404
611.9534498
610.1229902
610.0581936
613.9938624
611.8083723
611.400434
611.1253167
610.9819557
610.7226399
611.1313862
610.3393793
611.2033271
608.4254076
607.6905281
606.6261601
607.1263674
606.4349448
605.3410376
603.640261
603.0280404
601.1838076
598.8173889
597.261246
593.4976457
590.2331946
588.4190227
581.0908867
307.8183704
311.4265878
316.9086987
322.7091824
330.1368558
337.9817186
346.321949
354.8344729
365.0221253
374.8025557
384.8751311
395.2441825
404.9704411
414.347279
423.0465127
433.3399412
442.4301896
450.7634135
459.8828564
467.8528681
476.025658
484.2100791
491.3217558
499.245854
505.8128996
513.6287943
520.0069088
526.3463656
531.0282861
537.6798152
544.1503543
548.4382988
553.6132706
558.2628942
561.4133834
565.0168803
567.4567373
572.0201471
575.6631834
579.4052971
580.8034822
584.6236028
586.6820139
588.910815
589.7383724
592.4470328
594.9814887
595.3542949
599.0112673
597.8746757
601.0462727
602.1175912
603.6485464
604.4955994
606.0985267
607.5883306
605.7342115
609.6877513
610.4270698
610.3088398
610.2808941
610.8371977
612.7813144
612.1374505
611.0072508
611.3625029
611.8771422
610.397341
611.3525069
612.5835026
612.5848305
615.0496938
612.8625418
612.9623224
613.8105233
611.9729153
612.2405732
609.5978048
613.0776682
610.5565721
610.3775343
610.8279017
610.7290401
610.7856712
609.4617888
607.6306537
606.951691
605.6883648
603.9044854
603.4108552
601.0442908
597.2532949
593.5577485
587.0436028
584.4878183
306.0851871
308.6558303
311.2384671
315.7572758
321.2354551
326.6090384
333.536989
341.5361282
349.2969485
357.2041188
366.3691888
374.7473166
383.6723959
393.7228995
402.5982139
410.9400911
419.2417348
428.0915702
436.635228
444.5348137
452.747598
461.1339477
469.7537986
476.7999124
484.3564742
490.4090822
497.4192899
503.9027843
510.4633124
516.0814857
521.473197
527.8418661
533.8589036
537.6202217
542.5998298
548.0075023
552.6855141
556.1364226
559.6973264
565.1767573
567.8927044
572.0090925
574.0637851
575.5230667
578.6913629
582.0940001
583.8219945
585.8152002
587.6712416
591.6717831
592.2815546
593.7981009
594.0976362
595.9849512
599.6766069
600.7805962
602.0411398
603.0468169
604.3978813
605.5284167
606.8833437
608.8763661
608.1668812
609.4598373
609.0304778
610.1776103
610.8561281
612.2306783
613.1240958
611.3730197
611.2551353
612.7416656
612.7512197
612.1005698
613.0089728
614.3470929
614.026029
613.6272561
610.9744833
613.5065742
613.9616069
612.4716753
610.9449579
611.6023538
612.4252714
608.6391316
607.256687
606.6969314
605.2934371
603.7127192
602.1555125
597.3566639
594.7936253
591.9700053
588.1359481
304.4032662
305.9671755
308.388268
311.5310451
314.9247425
318.9474357
323.122886
328.8529767
335.7254872
343.1290943
350.3321361
358.1472518
366.3954986
374.1154569
382.4030835
391.0068326
399.2170354
406.6818298
414.4912976
422.7495204
431.1863481
438.7927821
445.7115473
453.5085634
460.7583733
467.9784616
474.0093267
481.4358553
487.6302238
494.9145573
501.7164505
507.3656753
512.5607422
517.8238028
522.9122973
527.3535229
533.396664
538.2338068
541.7753086
545.7320575
552.5482899
554.6064702
557.1832457
561.2867317
563.5628292
565.5349342
569.0759715
573.0760324
576.5092226
579.0294235
581.6092433
582.9681493
583.631999
586.9901859
586.9026573
589.4782544
593.4124623
593.3729446
597.4326157
598.1947314
599.5528973
599.6651716
601.4966363
602.651604
604.0630703
603.8370052
606.0361358
606.3082884
607.4655365
608.1927193
608.1618825
608.5893961
609.6606147
611.3395166
611.6332999
612.02628
612.6028556
611.0057866
610.5436349
610.3594803
612.734906
613.1600699
609.4521488
609.6224652
610.7068917
609.6570618
608.8355728
607.0902894
605.7518894
602.8599218
602.5450181
598.8958224
597.4846352
593.0437384
588.4494613
302.7669923
303.5920266
304.9966659
307.0556758
309.7766395
312.8215083
316.7420838
321.2359797
326.4730579
332.1885352
337.6589649
343.8452485
350.449774
357.3467555
364.6854706
372.336555
380.3418665
388.5021733
395.9771068
403.2600295
410.1652423
417.9502814
425.2461726
433.0064208
439.3078606
446.4973408
453.3360587
461.3310421
467.3990949
474.1375601
479.4247806
485.2796987
490.9562429
496.3145773
501.4491283
507.3669311
513.5506678
518.4721011
523.1796494
527.9239623
532.8158376
537.0667448
540.8908348
546.1049915
549.5096888
552.3444078
555.1042904
558.1956855
561.7187748
566.3894994
569.0225232
572.2514007
574.6628786
574.9644271
579.0341689
580.0094159
581.826805
583.0435285
584.1611286
587.2574822
589.0451082
590.3541297
592.5680029
594.3232253
595.3038489
596.9761357
599.4752997
600.4521311
601.8861842
601.5399096
602.7815417
603.8896244
604.1817558
606.1288462
606.2934075
607.794392
606.4519446
606.4826954
607.6285439
607.9558556
607.7666226
607.9697786
607.541474
607.7762839
608.4569953
608.9973769
607.4387494
605.9842942
605.0828319
602.8277949
600.8539581
599.2512713
597.5955108
594.2438528
588.8060187
301.7138329
302.3351315
303.7582518
305.818579
307.3118058
309.3481264
311.4283815
314.6140152
317.9835775
322.507003
327.2719112
332.7507858
338.7002424
344.8559305
350.7939504
357.646119
364.1167735
370.8216244
377.6970435
385.3300526
392.7492246
399.2373883
406.0637575
413.0742335
420.2444918
426.83061
433.6853454
439.6946611
446.0487047
453.1219612
459.6040463
465.9970234
472.5948794
477.5037466
483.1073903
487.7974218
492.0883809
498.8422581
504.5974361
509.0185788
513.7370719
519.0949904
523.1410465
527.6614439
530.9638408
535.558891
540.1316587
542.8237178
545.9656763
549.4177384
552.7023664
558.007639
561.0206802
561.8543476
563.6570021
565.1799414
568.4298903
572.3144698
574.465065
576.1716177
579.5992913
581.2858463
583.3593758
584.9775325
586.1280767
587.2522709
589.8271714
590.1288605
591.8433141
594.8520091
596.2837726
596.5625672
597.4971337
597.9504494
597.7995445
599.3140487
601.0773582
602.1737265
601.6851778
601.7091242
604.0117461
603.8161759
603.8020921
604.9079795
604.1750684
602.5722792
603.8215952
603.3891224
600.8186398
601.1306485
597.8703658
595.9719545
592.5371845
590.0729607
587.213197
301.136459
301.7835679
302.4782566
303.4680074
304.6747497
306.6004062
308.5305811
310.6112953
313.9825072
316.3599033
320.086007
323.9693923
328.8190891
333.3066304
338.971744
343.9904256
350.3850197
356.1362769
362.8916722
369.4796021
375.7736379
382.8998219
389.6838867
396.2609955
402.3970376
408.875732
415.8232037
422.2598093
428.2307272
434.422136
441.3089836
447.2649593
452.8740754
458.6411816
464.0694705
470.3698813
475.2051476
480.0319615
485.0109603
490.8319977
495.6846655
499.5100044
504.437644
509.5345654
514.3189836
517.4533856
522.1564992
526.0164395
530.6204886
533.8165774
537.1688645
539.5910842
543.175125
546.1011594
549.0769929
552.8885083
554.5741825
556.8914977
560.2648039
563.3015408
565.6452371
568.8246132
570.194447
572.3711381
574.1660667
576.0445562
578.0490961
581.2700295
583.8629481
584.8076985
585.0969307
587.6524829
588.9666664
590.1274071
591.4681898
591.8274438
592.8080026
593.9744551
594.3229729
595.4017089
595.4744043
597.1494228
597.3527869
597.8749036
597.7726444
598.5158562
599.4782439
598.1279209
597.490864
595.9831547
595.0410451
591.7870618
589.3276621
585.5868087
581.3093162
300.9885298
301.3879333
302.4133247
303.6435717
304.2083073
305.4267784
306.5600508
307.8087904
309.4888336
311.5430372
314.4445751
317.6363395
320.7767529
324.0847072
328.8920801
333.2994303
338.540912
343.9383932
349.2284957
355.1287009
360.5044824
366.600225
373.1707689
379.3236589
386.2753865
392.9242315
398.6826639
404.9027576
410.3196431
416.8428269
422.7006151
427.9581341
434.071983
440.1169258
445.5650625
450.6376565
456.5309198
461.4016733
466.7313926
471.6018328
476.7241705
481.9210842
486.2620365
490.5847488
495.3002457
499.3087746
503.9550278
508.8918595
512.6367301
515.5516782
519.7333925
523.7906814
528.2330031
531.2681021
535.4124081
538.6552965
541.6838194
544.021865
547.6780806
548.3314357
551.3657329
553.8583331
556.2512441
559.6675741
562.5489046
564.2088345
566.6990159
569.0043767
570.0993014
571.7749647
574.7621082
575.9496248
578.4875751
579.6387728
580.8997511
581.485272
582.7852652
585.2222654
587.8529149
587.6761512
588.4838014
589.4495601
591.034226
591.6015504
591.8167047
592.2997248
590.3714386
592.2833199
592.2621257
590.9173061
590.3103604
588.8264
583.2374145
580.631504
577.2324133
301.1727395
301.2602503
301.5438858
302.0383025
302.7283447
303.5816245
304.4625805
305.3565537
307.0037734
308.0247373
310.0558815
312.2363101
314.6235912
317.5884759
321.048577
324.6728956
328.7389448
332.8361343
337.6676889
342.3649458
348.140542
354.0081437
359.561831
365.4964009
370.9801561
376.6207391
382.5841
388.322001
394.2714642
399.872061
405.3949305
411.2306242
416.9909779
422.5563386
428.3928864
433.9865866
439.9842333
444.6661393
449.2254115
454.3566389
458.7311352
463.5123808
468.030853
473.0778633
477.1029064
481.3376077
485.3272582
489.6340231
494.3845593
499.0104508
503.466245
506.1703828
510.3993574
514.0742242
518.2202616
521.6069331
524.595486
527.2627727
531.4684635
534.2713823
537.0337808
539.9438241
542.3122712
544.9057157
548.0778633
550.4032691
552.5327247
555.4543759
557.9343584
560.6716888
562.1738986
563.9554964
566.371914
569.2870257
569.5031177
570.8173015
572.9888187
575.4639931
576.5432254
578.8057133
578.9343898
580.3484179
582.4260381
583.2296455
583.2658455
584.0681985
583.8954404
584.5080948
584.6075244
583.2887652
582.7381965
579.8139754
578.327272
574.641822
572.2993235
301.1811713
301.3095036
301.1919014
301.1149223
301.3239098
301.6820971
302.8501214
303.6111849
304.3979409
305.7167868
306.6263849
308.5768171
310.1954859
312.1694582
314.9367671
317.6053452
320.7742735
324.5531409
328.2911935
332.3219736
336.7200985
341.7484803
346.3954399
352.5964646
357.8893825
363.4730345
368.7004986
374.4299787
379.854544
385.1342046
390.8108084
396.0835812
401.2037891
406.5628638
412.2370117
417.3763009
422.1845439
427.6525788
432.9724297
438.0746205
443.4705936
447.4470244
452.2769493
456.4998524
461.149231
465.3449235
469.6214684
473.4886232
477.626717
481.7913447
486.3826935
490.3309765
493.804749
497.6660276
501.2400337
505.0380316
508.9932005
511.9425401
516.3452266
518.308193
522.1860369
525.017268
527.7347967
530.3942793
532.4768519
535.1522998
537.7812233
540.794361
544.290404
547.1178735
548.1698566
550.205248
553.2527529
554.6308495
557.3148029
560.4837763
562.6196759
562.9083131
564.8250786
566.693059
569.367379
571.7294052
572.1425696
573.3658568
575.389556
575.0395326
575.5778841
575.7592977
575.5927152
575.7076589
574.9425726
574.1536648
571.8987914
568.8638388
566.2938094
299.8575747
299.867724
300.4084465
300.5381132
300.9948335
301.1925913
301.320399
302.2586304
302.7626884
303.8881118
304.6340962
305.7707345
307.2540743
309.0754401
310.6180091
313.0409152
315.6084108
318.1581109
321.1741309
324.4432107
327.9273987
331.9980552
336.3837451
340.8258233
345.3813571
350.2219896
355.1397773
360.5165633
365.5649245
370.8204974
376.3070255
382.7104034
388.1628736
392.7611756
397.8569069
402.7597378
407.8500494
413.1347262
417.7485277
422.3908876
427.1938922
431.5089238
436.3175305
440.6200618
444.9620104
449.7010471
453.5773295
457.3638567
461.594003
465.1461461
469.8131211
474.2839514
477.5374617
481.588144
484.9830269
487.651023
492.267404
496.0066714
499.1504037
502.6873637
505.8689623
508.1685868
511.4951841
515.2378184
518.0649505
521.5729353
524.5425237
526.2704078
529.395571
532.3445873
534.6991858
536.4927814
539.4461574
541.9949168
544.6147812
546.2627376
548.3786049
551.1849329
553.847238
555.3972519
557.4037707
559.2241424
560.5083405
561.8980089
563.4339117
564.3619992
564.8762221
563.9428071
564.2131303
564.5577323
564.8255529
564.0552206
563.3898592
560.6516491
558.7375537
300.6572646
301.1401747
300.9237766
300.7528616
301.0200621
301.3527179
301.7157861
302.1352081
302.3786109
302.9333195
304.233175
304.7713277
305.4843772
306.5233067
307.7912937
309.6508538
311.4412223
313.5565913
315.7657405
318.4835318
321.0661306
323.6790506
327.144654
330.8486806
335.1377311
339.4896834
344.0492674
348.7810296
354.04819
358.731604
363.5436054
368.2227275
373.9825793
378.9198411
383.6587459
388.4018539
393.6026153
398.7620101
403.5922842
408.1965243
412.6251135
417.190726
421.4015081
426.0086465
430.7805165
435.2476032
439.8906757
442.8811348
446.8876805
450.6121507
454.009856
458.1113343
461.5467935
466.1485523
470.1649069
473.8904702
476.7244335
479.6738347
483.3584644
487.1066113
490.3501877
493.7557059
496.4657493
500.608529
503.8599949
505.9710908
509.1416995
511.4774628
514.5761272
517.206841
519.317132
522.5479508
524.8873997
526.9339249
529.9355658
533.4333194
535.2216049
537.056057
538.4146015
541.8499213
543.9716383
546.9866159
548.4385118
550.106186
551.7372971
552.4225263
553.5177912
553.835989
554.6081344
555.4444914
556.1404597
555.1632035
554.8354135
553.2549077
550.7505809
299.6243484
299.9012013
300.2588853
300.4586205
301.0364523
301.1499437
301.5062817
301.3828086
301.8001603
301.9781443
302.6536058
303.6136534
304.1443908
305.082047
305.7486439
307.4697046
308.1164834
309.532391
311.1994275
312.9762877
314.9146833
317.9045594
320.8604098
323.6467047
326.9908316
330.8070839
334.5367861
338.3556499
342.5439762
346.6150038
351.8860295
356.1290395
360.8144199
366.0810332
371.0428317
376.0741682
380.7556512
384.9163206
390.2697393
395.1577152
399.9425328
404.1724428
408.9423643
412.8101041
416.6139052
421.1346573
425.4844663
429.4790384
433.7720191
437.0381981
440.488962
444.2598883
448.3442678
451.0579183
454.5616699
458.2344267
462.4799135
465.9831677
469.1396958
472.5838699
476.3791737
479.6753551
482.1815097
485.0531428
488.2377326
492.0385235
495.0986406
497.4064147
500.0935339
503.0259709
505.2944971
508.0896864
511.3159817
514.321238
516.2488879
518.8595023
521.1887585
522.7986764
524.9446246
527.0471057
529.8427286
532.4323384
534.4996628
536.5801505
538.6580439
540.3382316
542.0698081
543.4656299
544.011761
544.2320065
545.6428029
545.4718934
545.6195558
544.1641794
542.3222514
300.0826806
300.1300694
299.8877102
300.4114931
300.2422301
300.3814327
300.4460702
300.7974223
301.3601884
301.1966735
301.711504
301.9490414
302.5982228
303.2427002
303.8752532
304.6467137
305.8100778
307.050046
308.2927077
309.7032926
311.7841189
313.3593023
315.178577
317.5767797
319.6801812
322.5879299
325.8173676
329.5963442
333.1946333
337.1854441
341.0728691
345.6622441
349.4560959
354.1307726
358.8737743
363.4525035
368.4243282
373.4732856
377.9822895
382.2566027
386.9307675
391.4836215
395.7961702
400.6058154
404.9243207
408.5682231
412.3620964
416.3999627
420.4420382
424.3305296
427.9746257
431.1946141
435.0045795
438.7651586
441.7937829
445.112493
448.7103993
451.822858
455.3182484
457.9765083
461.0251346
464.6299031
468.2969335
471.1051544
473.5360258
476.3778055
479.5318523
482.3997181
485.1951683
487.4629468
490.9520151
493.3198066
496.5668148
499.9303029
502.366622
504.9429121
506.9133236
509.3074849
511.7722715
514.2903682
516.2850921
520.0249837
522.8124564
525.2327451
526.6896964
528.1311109
529.7712216
531.1501184
532.2025553
533.9897701
533.7288348
534.1479444
534.3956388
534.7016877
533.457447
300.0477624
299.8121331
300.3387654
300.0304684
300.003763
300.0979201
300.3473709
300.4845978
300.4856475
300.7569829
300.9395736
301.4173811
301.8009342
302.3459977
303.2548558
303.2986712
304.0117078
304.4747994
305.7326868
306.6894229
307.778046
309.0396297
310.7206104
312.7279933
314.5904501
316.9356228
319.5484169
322.2109352
325.448801
329.0438181
332.6036995
335.8412656
340.0238479
343.9688759
347.9597241
352.0440633
356.2086508
360.9711536
365.9612492
370.0616291
375.0969925
379.9520706
383.93842
388.1559732
391.9326521
396.2121293
400.6570148
404.4983031
408.2996844
412.3508158
415.7359399
419.4175388
423.1023503
425.7106533
429.1699894
432.7365911
435.678028
439.1252677
442.058869
444.4890256
447.7397192
451.2244738
454.6956159
457.4835594
461.4530865
463.9592301
466.4144885
469.9433855
473.0419146
475.6522973
477.7764571
480.503372
483.2049071
485.8846433
488.9073577
491.1775382
493.9598691
496.3824655
498.9275525
500.5007032
503.9234824
505.3205082
508.5485103
511.5369815
512.9350639
514.9208957
517.2047303
518.5306339
520.4795529
520.744211
522.1108408
523.2942083
524.1210249
523.3298772
522.4977643
300.1397287
300.4465475
300.3480201
300.4823362
300.4960704
300.6424569
300.2913417
300.3063101
300.7171212
300.9609791
301.2439947
301.4957498
301.6661098
301.8504189
302.0622663
302.5008608
303.2893106
303.4695666
303.6041305
304.4005481
305.6532497
306.6616998
307.6802128
308.5824917
310.4769003
312.5197246
314.5358684
316.2706674
318.9113106
321.5441691
324.3927005
327.739689
330.7028566
334.7162042
338.5855121
342.639913
346.711545
350.4091999
354.5562824
358.8804155
363.1363334
367.4003378
372.1245231
376.7356957
380.391036
384.6197736
388.7896835
392.619086
396.881401
400.3673477
404.2708963
407.8780689
411.3759319
414.6680335
417.2153846
420.6821965
424.0204094
426.5963607
430.2098129
433.2248259
435.4402537
438.2030898
441.6032773
444.4083732
447.1270419
450.9957538
453.8844007
456.6553417
459.6840822
462.2935313
465.0093472
466.706022
468.4998102
472.1487612
475.0645048
477.09095
479.5097904
482.4183802
485.2192183
487.7351062
490.2681112
492.7274352
494.3608064
497.3388697
500.1894649
502.3295959
503.798316
506.1243873
507.2793519
509.4365298
511.1103664
511.2609174
512.0107553
512.3106904
512.2404725
300.6118789
300.4621583
300.5106367
300.645012
300.8300773
300.8571218
300.4173655
300.4651804
300.4050049
300.4604073
300.1412763
300.2975662
300.6264262
301.0711914
301.411789
301.3495679
301.5959589
302.5149001
302.8613648
303.6269952
304.1181615
304.9052872
306.1060034
307.1760623
307.8986354
308.9329554
310.7358143
312.1592171
313.6285424
316.0043463
317.895345
320.6064521
323.4879593
326.3367029
329.0852274
332.5795303
336.7286415
340.2858099
344.7539936
348.8248151
352.6270664
356.8324025
360.8024856
364.7798539
369.2627088
372.9120728
377.4096512
381.3891792
384.9176242
388.8997431
392.4195837
395.7132497
399.6546235
403.2059552
406.3730552
409.691654
412.8191691
416.3587725
419.0776252
421.7889453
424.7749611
427.1764844
429.8470209
432.9816155
436.2193832
439.2291071
441.835675
444.8767261
447.1187371
449.4948841
451.8407845
455.0368676
457.8974098
460.2503823
462.9894252
465.4045802
467.4092036
470.2961973
472.490924
474.9525133
476.5730697
479.4315292
481.9296807
484.6406544
487.1604625
489.1927651
491.3221128
493.2277529
495.1907212
496.7796498
497.7220098
498.8674676
499.3072975
500.2230969
501.3632573
300.3123995
300.5057357
300.6861426
300.5161887
300.2120434
300.6211969
300.590967
300.6226703
300.7199397
300.7774898
300.7604868
300.9607029
300.6229818
300.6942818
300.814137
300.9061174
301.4985895
301.11431
301.3239858
301.806688
302.1743736
302.8354851
303.3488499
304.2564472
305.1884242
306.1097848
307.1137459
308.3585302
309.51929
310.9042675
312.6944514
314.775944
316.7706403
319.3144043
322.6293287
325.4887492
328.6365771
332.1205794
335.3422105
339.1312898
342.8749811
346.827802
350.7043449
354.7603795
358.6856115
362.610628
366.2100142
371.0039628
374.7484174
378.2625933
381.8531471
385.6351925
389.0110659
392.2545625
396.1215655
399.5349192
402.4619199