/*--------------------------------*- C++ -*----------------------------------*\
| =========                 |                                                 |
| \\      /  F ield         | OpenFOAM: The Open Source CFD Toolbox           |
|  \\    /   O peration     | Version:  v1706                                 |
|   \\  /    A nd           | Web:      www.OpenFOAM.com                      |
|    \\/     M anipulation  |                                                 |
\*---------------------------------------------------------------------------*/
FoamFile
{
    version     2.0;
    format      ascii;
    class       volScalarField;
    location    "0.14";
    object      surfaceHeatTransfer_N2cold;
}
// * * * * * * * * * * * * * * * * * * * * * * * * * * * * * * * * * * * * * //

dimensions      [1 0 -3 0 0 0 0];


internalField   uniform 0;

boundaryField
{
    plate
    {
        type            calculated;
        value           nonuniform List<scalar> 
95
(
486.5703502
490.3448017
479.2708347
471.8463085
462.3106874
449.5958222
440.1620555
426.7923828
416.0776536
403.3679408
391.815044
381.7327544
368.410136
360.8406751
348.986625
342.4250815
333.1650665
325.3276112
318.5422824
307.7934681
302.7903783
294.1852897
287.741344
283.5624519
277.780776
269.4927441
261.8867883
257.7371344
252.8971814
248.6237246
243.1143233
237.5142897
235.0496364
228.877187
225.9600392
220.9606188
218.3740131
213.4272611
210.376324
206.069697
202.0561952
201.1167437
200.6727471
193.143491
190.3959544
187.9656163
185.1295638
181.4832074
179.4419703
178.8541006
173.8823606
175.5349493
170.7128607
169.0228133
165.6606324
163.3820012
160.9940312
158.3273166
159.6409942
153.518452
153.9066531
152.7129114
150.3645031
147.9259823
147.9015946
145.041155
144.6607471
142.3151806
141.0420785
139.2100004
137.8423192
134.7379505
133.3413381
135.6229005
132.7704746
130.102522
128.9336417
127.4979644
123.5660883
124.3463771
124.1316521
121.2664199
119.8179127
118.8549338
118.019534
116.1585832
116.1634668
112.4821075
111.5801505
110.0586129
109.2178315
105.999328
106.5616268
106.7257987
107.1841008
)
;
    }
    inlet
    {
        type            calculated;
        value           uniform 0;
    }
    defaultFaces
    {
        type            calculated;
        value           uniform 0;
    }
}


// ************************************************************************* //
