# Probe 0 (5e-06 5e-06 5e-06)
#           Probe                 0
#            Time
            1e-08                 0
            2e-08                 0
            3e-08                 0
            4e-08                 0
            5e-08                 0
            6e-08                 0
            7e-08                 0
            8e-08                 0
            9e-08                 0
            1e-07       19.31638937
          1.1e-07       19.37280547
          1.2e-07       19.41007252
          1.3e-07       19.59026576
          1.4e-07       19.53230866
          1.5e-07       39.45641588
          1.6e-07       39.88386014
          1.7e-07        64.2913528
          1.8e-07       63.59580414
          1.9e-07       64.25850563
            2e-07       84.69545956
          2.1e-07        105.038765
          2.2e-07       106.1348042
          2.3e-07       105.6848559
          2.4e-07        107.108669
          2.5e-07       108.5646244
          2.6e-07       108.5724023
          2.7e-07       108.9571095
          2.8e-07       109.0037703
          2.9e-07       134.9414394
            3e-07       136.9247458
          3.1e-07       136.9883069
          3.2e-07       138.2371987
          3.3e-07        160.233438
          3.4e-07       159.3415547
          3.5e-07       159.6439065
          3.6e-07       158.8037166
          3.7e-07       159.7581297
          3.8e-07       161.7538375
          3.9e-07       161.9357817
            4e-07       162.0286356
          4.1e-07       161.9526421
          4.2e-07       188.0255593
          4.3e-07         189.44128
          4.4e-07       190.7936195
          4.5e-07       217.6631885
          4.6e-07       218.9763229
          4.7e-07       221.9598467
          4.8e-07       249.9693048
          4.9e-07       250.3108118
            5e-07       248.1058415
          5.1e-07        249.888902
          5.2e-07       251.9140594
          5.3e-07       252.7046702
          5.4e-07       253.8127953
          5.5e-07       255.4870806
          5.6e-07       255.8168687
          5.7e-07       255.9773079
          5.8e-07       256.1628938
          5.9e-07       257.2243979
            6e-07       255.8770752
          6.1e-07       256.6535846
          6.2e-07       259.1927783
          6.3e-07       260.1453068
          6.4e-07       261.1604295
          6.5e-07       262.3610259
          6.6e-07       264.0993079
          6.7e-07       265.9042171
          6.8e-07       264.7241158
          6.9e-07       266.5419054
            7e-07       270.1353837
          7.1e-07       271.6745531
          7.2e-07       326.9386139
          7.3e-07       328.5381501
          7.4e-07       327.3041234
          7.5e-07       327.7250504
          7.6e-07       360.5949187
          7.7e-07        365.532101
          7.8e-07       368.6935754
          7.9e-07       370.2703534
            8e-07        369.956947
          8.1e-07       374.1205937
          8.2e-07       366.3334071
          8.3e-07       369.5421585
          8.4e-07       375.7340253
          8.5e-07       373.8514917
          8.6e-07       377.4131773
          8.7e-07       379.8679134
          8.8e-07       381.9056968
          8.9e-07       381.5811454
            9e-07       383.2889326
          9.1e-07        382.514037
          9.2e-07       381.0229003
          9.3e-07       381.4157149
          9.4e-07       382.0716818
          9.5e-07       381.3458822
          9.6e-07       382.4594233
          9.7e-07       383.3642943
          9.8e-07       409.6722671
          9.9e-07       414.4376409
            1e-06       417.6765642
         1.01e-06        416.019512
         1.02e-06       412.3364177
         1.03e-06       416.2044573
         1.04e-06       414.7294293
         1.05e-06        415.467476
         1.06e-06       449.1598827
         1.07e-06       452.6949954
         1.08e-06       452.8447156
         1.09e-06       452.8271846
          1.1e-06        458.535756
         1.11e-06       462.4254112
         1.12e-06       466.8588791
         1.13e-06       465.2362829
         1.14e-06        462.658658
         1.15e-06       491.3833677
         1.16e-06       495.6900725
         1.17e-06       499.9070752
         1.18e-06       500.8253188
         1.19e-06       501.0251741
          1.2e-06       498.1085536
         1.21e-06       496.1147593
         1.22e-06       522.3778976
         1.23e-06       561.3442954
         1.24e-06       560.2292559
         1.25e-06       569.5906566
         1.26e-06       607.1118223
         1.27e-06       608.6309815
         1.28e-06       616.4424111
         1.29e-06       622.2468777
          1.3e-06       631.4544816
         1.31e-06       634.0978491
         1.32e-06       637.0075762
         1.33e-06       635.7530765
         1.34e-06       631.7031531
         1.35e-06       627.1647519
         1.36e-06        623.440867
         1.37e-06       665.7670906
         1.38e-06       669.4375147
         1.39e-06       671.3847491
          1.4e-06       706.0346218
         1.41e-06       700.4441232
         1.42e-06       738.1253702
         1.43e-06       745.0508059
         1.44e-06       735.4117301
         1.45e-06       738.4325079
         1.46e-06       764.0160581
         1.47e-06         805.73828
         1.48e-06       805.8668375
         1.49e-06       858.5661421
          1.5e-06       856.7815939
         1.51e-06       860.8920651
         1.52e-06       862.2399392
         1.53e-06       864.9351459
         1.54e-06       868.5030358
         1.55e-06       871.4722456
         1.56e-06       873.2437879
         1.57e-06        878.141383
         1.58e-06       883.7466466
         1.59e-06       881.9549781
          1.6e-06       885.5383965
         1.61e-06       881.2212303
         1.62e-06       882.6390234
         1.63e-06       882.8694709
         1.64e-06       910.1254426
         1.65e-06       915.1991045
         1.66e-06       922.0704954
         1.67e-06       916.6699926
         1.68e-06       930.0131858
         1.69e-06       927.2761489
          1.7e-06       916.6170472
         1.71e-06        924.303467
         1.72e-06       932.7479497
         1.73e-06        976.069801
         1.74e-06       978.3758848
         1.75e-06       989.8406793
         1.76e-06       991.7971176
         1.77e-06       991.2855022
         1.78e-06        987.686704
         1.79e-06       991.8511661
          1.8e-06       1030.908186
         1.81e-06       1040.550359
         1.82e-06       1053.488702
         1.83e-06       1054.210695
         1.84e-06        1047.97622
         1.85e-06       1058.073344
         1.86e-06       1054.829581
         1.87e-06       1089.197951
         1.88e-06       1085.855541
         1.89e-06       1086.435405
          1.9e-06       1088.081788
         1.91e-06       1095.583629
         1.92e-06       1090.673761
         1.93e-06       1098.461723
         1.94e-06       1097.545857
         1.95e-06       1084.404403
         1.96e-06        1087.74745
         1.97e-06       1089.131967
         1.98e-06       1091.862678
         1.99e-06       1137.602132
            2e-06       1164.578151
         2.01e-06       1208.722285
         2.02e-06       1205.454204
         2.03e-06       1213.109996
         2.04e-06       1266.589746
         2.05e-06       1267.313155
         2.06e-06       1271.077564
         2.07e-06       1266.573557
         2.08e-06       1258.900073
         2.09e-06       1280.337741
          2.1e-06       1276.563943
         2.11e-06       1276.166735
         2.12e-06       1274.519378
         2.13e-06       1268.737262
         2.14e-06       1253.787322
         2.15e-06       1263.754982
         2.16e-06        1310.44484
         2.17e-06       1317.926868
         2.18e-06       1303.965576
         2.19e-06       1306.722813
          2.2e-06       1332.139311
         2.21e-06       1322.055934
         2.22e-06       1319.985357
         2.23e-06       1413.195273
         2.24e-06       1412.030231
         2.25e-06       1417.978397
         2.26e-06       1438.255779
         2.27e-06       1431.579651
         2.28e-06       1446.548853
         2.29e-06       1444.555748
          2.3e-06       1469.814886
         2.31e-06       1462.138367
         2.32e-06       1454.372308
         2.33e-06       1441.250251
         2.34e-06       1432.310229
         2.35e-06       1424.298627
         2.36e-06        1441.22662
         2.37e-06       1453.141896
         2.38e-06       1485.290205
         2.39e-06       1497.681037
          2.4e-06       1508.246976
         2.41e-06       1495.643623
         2.42e-06        1519.12681
         2.43e-06       1520.712481
         2.44e-06       1510.727999
         2.45e-06       1547.595095
         2.46e-06       1548.718129
         2.47e-06        1602.74058
         2.48e-06       1654.625397
         2.49e-06       1663.352411
          2.5e-06       1663.768149
         2.51e-06       1663.206898
         2.52e-06       1659.024616
         2.53e-06       1657.620451
         2.54e-06       1662.685688
         2.55e-06       1675.549947
         2.56e-06       1675.870838
         2.57e-06       1680.748727
         2.58e-06       1704.518286
         2.59e-06        1759.05071
          2.6e-06       1754.239498
         2.61e-06       1749.063352
         2.62e-06       1760.278839
         2.63e-06        1738.88867
         2.64e-06       1758.884922
         2.65e-06        1757.39653
         2.66e-06       1764.146839
         2.67e-06       1776.457623
         2.68e-06       1798.255909
         2.69e-06       1810.416396
          2.7e-06       1808.634567
         2.71e-06       1788.155238
         2.72e-06       1824.432142
         2.73e-06       1815.457025
         2.74e-06       1823.104988
         2.75e-06        1811.36734
         2.76e-06       1808.314303
         2.77e-06       1825.235303
         2.78e-06       1830.559217
         2.79e-06       1841.692764
          2.8e-06       1835.834861
         2.81e-06       1830.528861
         2.82e-06       1874.339543
         2.83e-06       1899.345683
         2.84e-06       1923.279409
         2.85e-06       1937.058418
         2.86e-06       1961.170818
         2.87e-06       1938.966354
         2.88e-06       1947.295116
         2.89e-06       1982.620532
          2.9e-06       1983.604187
         2.91e-06        2009.19952
         2.92e-06        1996.86772
         2.93e-06       1978.762013
         2.94e-06       1933.865232
         2.95e-06       1940.215422
         2.96e-06       1937.338759
         2.97e-06       1923.721914
         2.98e-06       1916.882813
         2.99e-06       1927.005398
            3e-06       1939.968683
         3.01e-06         1960.0406
         3.02e-06       1981.570619
         3.03e-06       1980.633018
         3.04e-06       1989.344966
         3.05e-06       2002.056487
         3.06e-06       2003.968069
         3.07e-06       2023.224153
         3.08e-06       1993.880726
         3.09e-06       2013.274195
          3.1e-06       2004.979239
         3.11e-06       2008.372827
         3.12e-06       1998.756762
         3.13e-06       2057.655723
         3.14e-06       2082.310088
         3.15e-06       2084.470055
         3.16e-06       2078.641511
         3.17e-06       2074.963545
         3.18e-06       2088.699294
         3.19e-06        2088.82685
          3.2e-06       2081.952222
         3.21e-06       2093.954836
         3.22e-06       2087.053036
         3.23e-06       2046.827163
         3.24e-06       2035.380798
         3.25e-06       2011.974054
         3.26e-06       2020.611529
         3.27e-06       2041.511635
         3.28e-06       2053.184651
         3.29e-06       2079.828755
          3.3e-06       2056.189979
         3.31e-06       2041.957234
         3.32e-06       2045.183212
         3.33e-06       2022.245858
         3.34e-06       2026.363563
         3.35e-06       2022.875192
         3.36e-06       1994.352768
         3.37e-06       2002.165378
         3.38e-06       2003.003488
         3.39e-06        2118.42254
          3.4e-06       2128.783336
         3.41e-06       2157.771245
         3.42e-06       2166.057826
         3.43e-06       2264.250583
         3.44e-06       2277.571859
         3.45e-06       2271.033604
         3.46e-06       2252.522856
         3.47e-06       2256.495749
         3.48e-06        2278.21556
         3.49e-06       2262.155055
          3.5e-06       2238.939923
         3.51e-06       2221.216641
         3.52e-06       2242.253607
         3.53e-06       2236.312333
         3.54e-06       2226.121253
         3.55e-06       2249.045478
         3.56e-06       2268.455553
         3.57e-06       2258.998886
         3.58e-06       2302.332182
         3.59e-06       2316.167117
          3.6e-06       2313.357289
         3.61e-06       2305.001299
         3.62e-06       2335.224402
         3.63e-06        2332.53292
         3.64e-06       2336.404914
         3.65e-06        2345.68336
         3.66e-06       2337.825457
         3.67e-06       2338.136374
         3.68e-06       2361.823558
         3.69e-06       2373.036555
          3.7e-06       2364.024778
         3.71e-06       2347.723907
         3.72e-06       2339.713069
         3.73e-06       2323.919663
         3.74e-06       2300.953621
         3.75e-06       2339.942195
         3.76e-06         2331.0089
         3.77e-06       2357.329207
         3.78e-06       2337.724267
         3.79e-06       2377.641609
          3.8e-06       2338.884734
         3.81e-06       2350.031499
         3.82e-06       2335.113955
         3.83e-06       2319.042172
         3.84e-06          2333.067
         3.85e-06       2352.515983
         3.86e-06        2365.39646
         3.87e-06       2360.853215
         3.88e-06       2395.830607
         3.89e-06       2395.706752
          3.9e-06       2427.406976
         3.91e-06        2399.14635
         3.92e-06       2393.731501
         3.93e-06       2398.375802
         3.94e-06       2375.530851
         3.95e-06       2443.840046
         3.96e-06       2461.656982
         3.97e-06       2473.203938
         3.98e-06       2514.746385
         3.99e-06       2523.518485
            4e-06       2532.014349
         4.01e-06       2504.475724
         4.02e-06       2506.242393
         4.03e-06       2515.387975
         4.04e-06        2519.40107
         4.05e-06       2526.989988
         4.06e-06       2572.621015
         4.07e-06       2555.883485
         4.08e-06        2584.68353
         4.09e-06       2597.815531
          4.1e-06        2600.81032
         4.11e-06       2612.386041
         4.12e-06       2658.465456
         4.13e-06       2653.199615
         4.14e-06        2656.39307
         4.15e-06       2623.013402
         4.16e-06       2639.386923
         4.17e-06       2618.178864
         4.18e-06       2630.032238
         4.19e-06       2646.403606
          4.2e-06       2674.802351
         4.21e-06       2657.299045
         4.22e-06       2648.012675
         4.23e-06       2655.617915
         4.24e-06       2675.182183
         4.25e-06       2703.097089
         4.26e-06       2676.619411
         4.27e-06       2675.363126
         4.28e-06       2677.397722
         4.29e-06       2675.691296
          4.3e-06        2668.94647
         4.31e-06       2693.845058
         4.32e-06       2671.561949
         4.33e-06       2687.141949
         4.34e-06       2691.915001
         4.35e-06       2727.846824
         4.36e-06       2721.023396
         4.37e-06        2678.74014
         4.38e-06        2683.80102
         4.39e-06       2715.566199
          4.4e-06       2709.235677
         4.41e-06       2691.977371
         4.42e-06       2692.144263
         4.43e-06       2682.232491
         4.44e-06       2722.748128
         4.45e-06       2712.257155
         4.46e-06       2707.032776
         4.47e-06       2726.097844
         4.48e-06       2743.892901
         4.49e-06       2732.004261
          4.5e-06       2742.113804
         4.51e-06       2776.028371
         4.52e-06       2754.825703
         4.53e-06       2763.032565
         4.54e-06       2772.941243
         4.55e-06       2771.221179
         4.56e-06       2780.079651
         4.57e-06       2868.973069
         4.58e-06       2867.442486
         4.59e-06       2859.175418
          4.6e-06       2871.187021
         4.61e-06       2860.343896
         4.62e-06       2812.234934
         4.63e-06       2851.817426
         4.64e-06       2890.039984
         4.65e-06       2889.704613
         4.66e-06       2900.015164
         4.67e-06       2981.742603
         4.68e-06       2941.118145
         4.69e-06       2928.934017
          4.7e-06       2885.290175
         4.71e-06       2894.582026
         4.72e-06       2890.808613
         4.73e-06       2929.074492
         4.74e-06       2964.022402
         4.75e-06       2950.178913
         4.76e-06       2928.835886
         4.77e-06       2944.123091
         4.78e-06       2917.972533
         4.79e-06       2923.533005
          4.8e-06       2921.685025
         4.81e-06       2910.430144
         4.82e-06       2966.946746
         4.83e-06       2947.407476
         4.84e-06       2959.704387
         4.85e-06       2964.406801
         4.86e-06       2988.647943
         4.87e-06       3010.434822
         4.88e-06        3026.09051
         4.89e-06       2983.054672
          4.9e-06       2996.570735
         4.91e-06       3005.643639
         4.92e-06       3012.939271
         4.93e-06       3104.277172
         4.94e-06        3112.04598
         4.95e-06       3105.727101
         4.96e-06        3110.19667
         4.97e-06       3109.363481
         4.98e-06       3105.381408
         4.99e-06       3098.657928
            5e-06       3143.759657
         5.01e-06       3187.724429
         5.02e-06       3159.759793
         5.03e-06        3158.66446
         5.04e-06       3165.662215
         5.05e-06       3217.214182
         5.06e-06       3230.248678
         5.07e-06       3284.398436
         5.08e-06       3279.443811
         5.09e-06       3345.755155
          5.1e-06       3424.924736
         5.11e-06       3424.688996
         5.12e-06       3383.341104
         5.13e-06       3350.690453
         5.14e-06       3348.023109
         5.15e-06       3357.391371
         5.16e-06        3367.29457
         5.17e-06       3357.062908
         5.18e-06       3450.876876
         5.19e-06       3465.664888
          5.2e-06       3476.508787
         5.21e-06       3432.151805
         5.22e-06       3446.776774
         5.23e-06       3451.966729
         5.24e-06       3450.773463
         5.25e-06       3512.281372
         5.26e-06       3527.539755
         5.27e-06       3476.514737
         5.28e-06        3512.47389
         5.29e-06        3520.49962
          5.3e-06       3503.335935
         5.31e-06       3470.113343
         5.32e-06       3487.889419
         5.33e-06       3474.349235
         5.34e-06       3469.728002
         5.35e-06        3455.62675
         5.36e-06       3443.062661
         5.37e-06       3492.133994
         5.38e-06       3463.403046
         5.39e-06       3526.017237
          5.4e-06       3541.884578
         5.41e-06       3546.329692
         5.42e-06       3636.817657
         5.43e-06       3708.115241
         5.44e-06       3688.149286
         5.45e-06       3664.768924
         5.46e-06       3624.740098
         5.47e-06       3562.716911
         5.48e-06       3729.643793
         5.49e-06       3782.364318
          5.5e-06       3818.766487
         5.51e-06       3848.862796
         5.52e-06       3863.439702
         5.53e-06       3916.352758
         5.54e-06       3939.814664
         5.55e-06       3931.078778
         5.56e-06       3844.351306
         5.57e-06       3854.615016
         5.58e-06       3867.425135
         5.59e-06       3864.422734
          5.6e-06       3880.738158
         5.61e-06        3865.95613
         5.62e-06       3894.698845
         5.63e-06        3872.78194
         5.64e-06       3918.921306
         5.65e-06       3934.271483
         5.66e-06       4008.954425
         5.67e-06       4031.292664
         5.68e-06       4001.721067
         5.69e-06       3912.971537
          5.7e-06         3944.3468
         5.71e-06       3890.065572
         5.72e-06       3957.096886
         5.73e-06       3965.038704
         5.74e-06       3955.054372
         5.75e-06       3922.007519
         5.76e-06        3918.46541
         5.77e-06        3941.04769
         5.78e-06       3937.141729
         5.79e-06       3806.296782
          5.8e-06       3870.305785
         5.81e-06       3958.854726
         5.82e-06       3945.025982
         5.83e-06       3939.213447
         5.84e-06       3968.588357
         5.85e-06       3983.939338
         5.86e-06       4048.146313
         5.87e-06       4044.999414
         5.88e-06       3969.394773
         5.89e-06       3986.033451
          5.9e-06       3978.139348
         5.91e-06       4037.136555
         5.92e-06       4051.061153
         5.93e-06       4026.418527
         5.94e-06       3974.672855
         5.95e-06       3998.592899
         5.96e-06       4012.649755
         5.97e-06       4035.252761
         5.98e-06       4075.201445
         5.99e-06       4124.337821
            6e-06        4136.70315
         6.01e-06        4172.72627
         6.02e-06       4172.980076
         6.03e-06       4197.377779
         6.04e-06       4189.353932
         6.05e-06       4292.812371
         6.06e-06        4265.01171
         6.07e-06       4216.999808
         6.08e-06       4158.431577
         6.09e-06       4158.876525
          6.1e-06       4186.018107
         6.11e-06       4252.998998
         6.12e-06       4244.829412
         6.13e-06       4328.511589
         6.14e-06       4454.251165
         6.15e-06       4459.726305
         6.16e-06       4470.002711
         6.17e-06        4385.16009
         6.18e-06       4356.724222
         6.19e-06       4335.170643
          6.2e-06       4396.980243
         6.21e-06       4354.554705
         6.22e-06        4320.15772
         6.23e-06        4319.19011
         6.24e-06       4296.343539
         6.25e-06       4255.417884
         6.26e-06       4258.331113
         6.27e-06       4296.341897
         6.28e-06       4281.735508
         6.29e-06        4300.86171
          6.3e-06       4339.978284
         6.31e-06       4324.039823
         6.32e-06       4319.951713
         6.33e-06       4307.598677
         6.34e-06        4294.89302
         6.35e-06       4319.043322
         6.36e-06       4309.800289
         6.37e-06        4309.93434
         6.38e-06       4325.419798
         6.39e-06         4322.3903
          6.4e-06       4403.251173
         6.41e-06       4396.751397
         6.42e-06       4383.293021
         6.43e-06       4337.748888
         6.44e-06       4438.384249
         6.45e-06       4506.477993
         6.46e-06       4491.256353
         6.47e-06       4476.749531
         6.48e-06       4588.870889
         6.49e-06        4608.56059
          6.5e-06       4550.849408
         6.51e-06       4525.973342
         6.52e-06       4551.439329
         6.53e-06       4586.539939
         6.54e-06       4628.024716
         6.55e-06       4665.204278
         6.56e-06       4674.793902
         6.57e-06        4730.50896
         6.58e-06       4696.766425
         6.59e-06       4670.705068
          6.6e-06       4636.185797
         6.61e-06       4619.351125
         6.62e-06       4621.800737
         6.63e-06       4686.418145
         6.64e-06       4742.122808
         6.65e-06       4741.806897
         6.66e-06       4700.701889
         6.67e-06       4702.114908
         6.68e-06       4653.309499
         6.69e-06       4688.244226
          6.7e-06       4696.516193
         6.71e-06       4808.955204
         6.72e-06       4851.831568
         6.73e-06       4865.512407
         6.74e-06       4852.000294
         6.75e-06       4815.021546
         6.76e-06       4850.521531
         6.77e-06        4890.77612
         6.78e-06       4877.856035
         6.79e-06       4880.092337
          6.8e-06       4871.747401
         6.81e-06       4863.229802
         6.82e-06       4873.393941
         6.83e-06       4874.375474
         6.84e-06       4893.303293
         6.85e-06       4854.510784
         6.86e-06       4791.373459
         6.87e-06       4825.361431
         6.88e-06       4842.444888
         6.89e-06       4715.448021
          6.9e-06       4709.782898
         6.91e-06       4677.348997
         6.92e-06       4538.888072
         6.93e-06       4579.047617
         6.94e-06       4598.682735
         6.95e-06       4625.584248
         6.96e-06       4628.353067
         6.97e-06       4639.778526
         6.98e-06       4667.435546
         6.99e-06       4705.724124
            7e-06        4699.90085
         7.01e-06       4748.343392
         7.02e-06       4727.557834
         7.03e-06       4730.362279
         7.04e-06       4740.476737
         7.05e-06       4715.008858
         7.06e-06        4661.61781
         7.07e-06       4581.344231
         7.08e-06       4639.434267
         7.09e-06       4633.935911
          7.1e-06       4661.773536
         7.11e-06       4647.902689
         7.12e-06       4676.666468
         7.13e-06        4650.03764
         7.14e-06       4568.824452
         7.15e-06       4671.788199
         7.16e-06       4692.599933
         7.17e-06        4694.72194
         7.18e-06       4724.742268
         7.19e-06       4722.383056
          7.2e-06       4773.185148
         7.21e-06       4755.438843
         7.22e-06        4808.57005
         7.23e-06       4887.727337
         7.24e-06       4844.686013
         7.25e-06       4880.821422
         7.26e-06       4982.904223
         7.27e-06       5019.977527
         7.28e-06       4967.518062
         7.29e-06       4901.150508
          7.3e-06       4919.713897
         7.31e-06       4941.550191
         7.32e-06       4984.697455
         7.33e-06       4937.890664
         7.34e-06       4932.308047
         7.35e-06       4883.601233
         7.36e-06       4784.084722
         7.37e-06       4779.992069
         7.38e-06       4796.256541
         7.39e-06       4783.846507
          7.4e-06       4854.996267
         7.41e-06       4871.990027
         7.42e-06       4785.307733
         7.43e-06       4838.043724
         7.44e-06       4843.518836
         7.45e-06       4851.214283
         7.46e-06        4887.30203
         7.47e-06       4896.572946
         7.48e-06       4964.510414
         7.49e-06       4964.301804
          7.5e-06       4931.880934
         7.51e-06        5038.86262
         7.52e-06       5013.745744
         7.53e-06       5026.632163
         7.54e-06       5053.374014
         7.55e-06       5067.573059
         7.56e-06       5055.552453
         7.57e-06         5099.5746
         7.58e-06       5075.235555
         7.59e-06       5016.465841
          7.6e-06       5075.247187
         7.61e-06       5214.981236
         7.62e-06       5212.648304
         7.63e-06       5240.986755
         7.64e-06       5167.732573
         7.65e-06       5187.733696
         7.66e-06       5117.651725
         7.67e-06       5166.146532
         7.68e-06       5233.086314
         7.69e-06       5267.078481
          7.7e-06       5299.637011
         7.71e-06       5298.890648
         7.72e-06       5349.912519
         7.73e-06        5268.47019
         7.74e-06       5270.188099
         7.75e-06       5274.911791
         7.76e-06       5265.681915
         7.77e-06        5353.21763
         7.78e-06       5351.561131
         7.79e-06       5442.084727
          7.8e-06       5341.282633
         7.81e-06       5510.197245
         7.82e-06       5403.042256
         7.83e-06       5390.532083
         7.84e-06        5361.17625
         7.85e-06       5292.681788
         7.86e-06       5186.252198
         7.87e-06        5233.27754
         7.88e-06       5264.240559
         7.89e-06       5293.946738
          7.9e-06        5282.40453
         7.91e-06       5262.402924
         7.92e-06       5313.867012
         7.93e-06       5288.994282
         7.94e-06       5240.616503
         7.95e-06       5258.083686
         7.96e-06       5229.682679
         7.97e-06       5350.411827
         7.98e-06       5344.331781
         7.99e-06       5455.395088
            8e-06       5429.578408
         8.01e-06       5478.679603
         8.02e-06       5501.685254
         8.03e-06       5506.505335
         8.04e-06       5577.619041
         8.05e-06       5520.361878
         8.06e-06       5493.006347
         8.07e-06       5473.416624
         8.08e-06       5446.530167
         8.09e-06       5457.764221
          8.1e-06       5416.806828
         8.11e-06       5449.011931
         8.12e-06       5524.964352
         8.13e-06       5438.792079
         8.14e-06       5461.810259
         8.15e-06       5452.518908
         8.16e-06       5400.443781
         8.17e-06        5473.20071
         8.18e-06       5549.382899
         8.19e-06       5539.419902
          8.2e-06       5552.160015
         8.21e-06       5556.784462
         8.22e-06       5525.699499
         8.23e-06       5425.790455
         8.24e-06       5426.252967
         8.25e-06       5419.176185
         8.26e-06       5396.071421
         8.27e-06       5526.081173
         8.28e-06       5529.338265
         8.29e-06        5498.09288
          8.3e-06        5482.80115
         8.31e-06       5422.256258