# Probe 0 (5e-06 5e-06 5e-06)
#           Probe                 0
#            Time
            1e-08       9982.748843
            2e-08       9987.083403
            3e-08       10000.52607
            4e-08       9978.816153
            5e-08       10002.92674
            6e-08       9977.921425
            7e-08        9955.92421
            8e-08       9965.180905
            9e-08       9963.912978
            1e-07        9971.28718
          1.1e-07       9958.271634
          1.2e-07       9945.095164
          1.3e-07       9944.209947
          1.4e-07       9918.123441
          1.5e-07       9917.638549
          1.6e-07       9926.102283
          1.7e-07       9929.724737
          1.8e-07       9893.711111
          1.9e-07       9900.412832
            2e-07       9891.109575
          2.1e-07         9876.6401
          2.2e-07       9880.308435
          2.3e-07       9853.104681
          2.4e-07       9859.870938
          2.5e-07       9875.182475
          2.6e-07       9859.034291
          2.7e-07       9850.186368
          2.8e-07       9838.485013
          2.9e-07       9840.478603
            3e-07       9856.561946
          3.1e-07       9838.210782
          3.2e-07       9837.033574
          3.3e-07       9826.384334
          3.4e-07       9804.496168
          3.5e-07       9795.780751
          3.6e-07       9774.709181
          3.7e-07       9768.996846
          3.8e-07       9781.582387
          3.9e-07       9766.305227
            4e-07       9753.046106
          4.1e-07       9735.804522
          4.2e-07       9718.585808
          4.3e-07       9721.473259
          4.4e-07       9720.897579
          4.5e-07       9710.000266
          4.6e-07       9705.377608
          4.7e-07       9716.633857
          4.8e-07        9710.78838
          4.9e-07       9699.976041
            5e-07       9670.565205
          5.1e-07       9671.257151
          5.2e-07       9670.085711
          5.3e-07       9663.217984
          5.4e-07       9660.910579
          5.5e-07       9661.720551
          5.6e-07       9652.431648
          5.7e-07       9641.301391
          5.8e-07       9627.901539
          5.9e-07       9623.670654
            6e-07       9604.102616
          6.1e-07       9596.480085
          6.2e-07       9601.772148
          6.3e-07       9593.181185
          6.4e-07       9591.225304
          6.5e-07       9588.687784
          6.6e-07       9589.359224
          6.7e-07       9590.404263
          6.8e-07       9564.701303
          6.9e-07       9566.051444
            7e-07       9574.616346
          7.1e-07       9578.045648
          7.2e-07       9572.146992
          7.3e-07       9573.903541
          7.4e-07       9555.125854
          7.5e-07        9545.80044
          7.6e-07        9575.64798
          7.7e-07       9589.488396
          7.8e-07       9595.915195
          7.9e-07       9597.983007
            8e-07       9583.971029
          8.1e-07       9594.670518
          8.2e-07       9546.056047
          8.3e-07       9551.510479
          8.4e-07       9567.719926
          8.5e-07       9548.387905
          8.6e-07        9550.20786
          8.7e-07       9554.362652
          8.8e-07       9557.083856
          8.9e-07       9548.728204
            9e-07       9547.663283
          9.1e-07        9536.76104
          9.2e-07       9520.609512
          9.3e-07       9508.974531
          9.4e-07       9497.525222
          9.5e-07       9486.828351
          9.6e-07        9483.09212
          9.7e-07       9474.559378
          9.8e-07       9458.323691
          9.9e-07       9462.736381
            1e-06       9464.596129
         1.01e-06       9445.308332
         1.02e-06       9417.134632
         1.03e-06       9422.172786
         1.04e-06       9407.065213
         1.05e-06       9400.273416
         1.06e-06       9414.694684
         1.07e-06       9418.888761
         1.08e-06        9408.99414
         1.09e-06       9404.100647
          1.1e-06       9414.119045
         1.11e-06       9425.125302
         1.12e-06       9429.235395
         1.13e-06       9414.923424
         1.14e-06       9399.743087
         1.15e-06       9364.753917
         1.16e-06       9370.412743
         1.17e-06       9374.075349
         1.18e-06       9372.645256
         1.19e-06       9362.399161
          1.2e-06       9342.584914
         1.21e-06       9327.981986
         1.22e-06       9308.747313
         1.23e-06       9330.960414
         1.24e-06       9317.983567
         1.25e-06       9339.578376
         1.26e-06       9333.904995
         1.27e-06        9332.30624
         1.28e-06        9346.87799
         1.29e-06       9354.656261
          1.3e-06       9373.491168
         1.31e-06       9368.176267
         1.32e-06       9368.275784
         1.33e-06       9366.270671
         1.34e-06       9351.629161
         1.35e-06       9329.329803
         1.36e-06       9310.061075
         1.37e-06       9329.749789
         1.38e-06       9331.384138
         1.39e-06       9328.757131
          1.4e-06       9314.555741
         1.41e-06       9293.196307
         1.42e-06        9294.88283
         1.43e-06       9303.143495
         1.44e-06       9276.411785
         1.45e-06       9273.184889
         1.46e-06       9249.873316
         1.47e-06       9266.205993
         1.48e-06       9259.770057
         1.49e-06       9292.905744
          1.5e-06       9283.234986
         1.51e-06       9279.712439
         1.52e-06       9273.889634
         1.53e-06       9273.574913
         1.54e-06       9275.766609
         1.55e-06       9272.706803
         1.56e-06       9265.633025
         1.57e-06       9269.246803
         1.58e-06       9268.751354
         1.59e-06        9253.58777
          1.6e-06       9252.784555
         1.61e-06       9238.062013
         1.62e-06       9231.973118
         1.63e-06       9223.711984
         1.64e-06       9203.093148
         1.65e-06       9211.882195
         1.66e-06       9211.469218
         1.67e-06       9192.444024
         1.68e-06       9212.028979
         1.69e-06       9203.287355
          1.7e-06       9174.262198
         1.71e-06       9175.798983
         1.72e-06       9184.733141
         1.73e-06       9196.931472
         1.74e-06       9187.278682
         1.75e-06       9200.062057
         1.76e-06       9198.763512
         1.77e-06       9189.297999
         1.78e-06       9174.356251
         1.79e-06       9171.054988
          1.8e-06       9173.675795
         1.81e-06       9185.314374
         1.82e-06       9196.396848
         1.83e-06       9190.681036
         1.84e-06       9175.692064
         1.85e-06       9191.740411
         1.86e-06       9176.098974
         1.87e-06       9157.705172
         1.88e-06        9148.23167
         1.89e-06        9144.44847
          1.9e-06       9140.565904
         1.91e-06       9143.705167
         1.92e-06       9127.963055
         1.93e-06       9138.424878
         1.94e-06       9132.375157
         1.95e-06       9104.700724
         1.96e-06       9100.119215
         1.97e-06       9091.689792
         1.98e-06       9086.785894
         1.99e-06       9095.603773
            2e-06       9130.539651
         2.01e-06       9136.579189
         2.02e-06       9125.473658
         2.03e-06       9126.863575
         2.04e-06       9139.040737
         2.05e-06       9136.549936
         2.06e-06       9136.389565
         2.07e-06       9121.024554
         2.08e-06         9104.5497
         2.09e-06       9126.437475
          2.1e-06       9114.392122
         2.11e-06       9109.394096
         2.12e-06        9106.28565
         2.13e-06       9091.887857
         2.14e-06       9066.141202
         2.15e-06       9071.523561
         2.16e-06       9080.700206
         2.17e-06       9079.426898
         2.18e-06       9051.663589
         2.19e-06       9052.203662
          2.2e-06       9075.266738
         2.21e-06       9055.061759
         2.22e-06       9043.302889
         2.23e-06       9047.430867
         2.24e-06       9039.821871
         2.25e-06       9044.397495
         2.26e-06       9061.838608
         2.27e-06       9046.101726
         2.28e-06       9054.997998
         2.29e-06       9048.944143
          2.3e-06       9065.335267
         2.31e-06       9049.488712
         2.32e-06       9036.833856
         2.33e-06        9014.23051
         2.34e-06       8997.573351
         2.35e-06       8981.110582
         2.36e-06       8995.323079
         2.37e-06       9001.202415
         2.38e-06       9033.628393
         2.39e-06       9040.104625
          2.4e-06       9044.239524
         2.41e-06       9029.589906
         2.42e-06       9049.927419
         2.43e-06       9048.311583
         2.44e-06       9035.389805
         2.45e-06       9027.193123
         2.46e-06       9024.210242
         2.47e-06       9022.695797
         2.48e-06       9017.719958
         2.49e-06       9019.051976
          2.5e-06       9011.966551
         2.51e-06        9007.24662
         2.52e-06       8993.528281
         2.53e-06       8989.754764
         2.54e-06       8991.333829
         2.55e-06       8990.613813
         2.56e-06        8984.87012
         2.57e-06       8985.538092
         2.58e-06       8998.304198
         2.59e-06       9003.625953
          2.6e-06       8990.811189
         2.61e-06        8976.53437
         2.62e-06       8982.720598
         2.63e-06       8961.278847
         2.64e-06       8974.674277
         2.65e-06       8970.027808
         2.66e-06       8969.087478
         2.67e-06       8971.673388
         2.68e-06       8981.700192
         2.69e-06       8983.923878
          2.7e-06       8975.815711
         2.71e-06        8952.53608
         2.72e-06       8932.587492
         2.73e-06       8922.038177
         2.74e-06       8920.214139
         2.75e-06       8905.863083
         2.76e-06       8899.374316
         2.77e-06       8910.636931
         2.78e-06       8911.875979
         2.79e-06       8918.200894
          2.8e-06       8910.040033
         2.81e-06       8900.947243
         2.82e-06       8884.177807
         2.83e-06       8899.321937
         2.84e-06       8912.690434
         2.85e-06       8919.101449
         2.86e-06       8934.295455
         2.87e-06       8913.794104
         2.88e-06       8917.212003
         2.89e-06       8908.916407
          2.9e-06       8904.689603
         2.91e-06       8921.315726
         2.92e-06       8906.739477
         2.93e-06       8891.167938
         2.94e-06       8886.812374
         2.95e-06       8886.110599
         2.96e-06       8881.357525
         2.97e-06       8867.881988
         2.98e-06       8858.943699
         2.99e-06        8867.27939
            3e-06       8875.037828
         3.01e-06       8886.188313
         3.02e-06       8897.368278
         3.03e-06       8880.666618
         3.04e-06       8883.698698
         3.05e-06       8893.575064
         3.06e-06       8889.169733
         3.07e-06       8899.042003
         3.08e-06       8869.922471
         3.09e-06       8879.048296
          3.1e-06       8869.172346
         3.11e-06       8870.082401
         3.12e-06       8856.340231
         3.13e-06       8859.936118
         3.14e-06       8871.130572
         3.15e-06       8866.483273
         3.16e-06       8856.877777
         3.17e-06       8851.863665
         3.18e-06       8859.235304
         3.19e-06       8856.643987
          3.2e-06       8849.225656
         3.21e-06       8855.149326
         3.22e-06       8842.840406
         3.23e-06       8842.518857
         3.24e-06       8829.958018
         3.25e-06       8807.865964
         3.26e-06        8809.35548
         3.27e-06       8821.365291
         3.28e-06       8826.011014
         3.29e-06       8845.303281
          3.3e-06       8867.200969
         3.31e-06       8857.576428
         3.32e-06       8854.781415
         3.33e-06       8871.485658
         3.34e-06       8868.122299
         3.35e-06       8860.562885
         3.36e-06       8832.825016
         3.37e-06       8836.282438
         3.38e-06       8829.537326
         3.39e-06       8831.129708
          3.4e-06       8832.312282
         3.41e-06       8850.089931
         3.42e-06       8858.959786
         3.43e-06       8846.000673
         3.44e-06       8847.416629
         3.45e-06       8844.122859
         3.46e-06       8825.716102
         3.47e-06       8821.347478
         3.48e-06       8832.041555
         3.49e-06        8816.76668
          3.5e-06       8791.884553
         3.51e-06       8776.526085
         3.52e-06       8785.545156
         3.53e-06       8777.765808
         3.54e-06       8765.257063
         3.55e-06       8776.417761
         3.56e-06       8784.102163
         3.57e-06       8772.645304
         3.58e-06       8796.232547
         3.59e-06       8800.853948
          3.6e-06       8796.967788
         3.61e-06       8783.536295
         3.62e-06       8801.492225
         3.63e-06       8798.806323
         3.64e-06       8798.758355
         3.65e-06       8796.137852
         3.66e-06       8783.911015
         3.67e-06       8778.700116
         3.68e-06        8792.62846
         3.69e-06       8792.375344
          3.7e-06         8782.7079
         3.71e-06       8768.957326
         3.72e-06       8757.145787
         3.73e-06       8743.521249
         3.74e-06       8727.802506
         3.75e-06       8749.510554
         3.76e-06       8738.582703
         3.77e-06       8753.679186
         3.78e-06       8739.978121
         3.79e-06       8762.259934
          3.8e-06         8730.7098
         3.81e-06       8733.092424
         3.82e-06       8719.409913
         3.83e-06       8705.375738
         3.84e-06       8708.609294
         3.85e-06       8716.908658
         3.86e-06       8721.193525
         3.87e-06       8713.237975
         3.88e-06       8733.249035
         3.89e-06       8729.499568
          3.9e-06       8747.771419
         3.91e-06       8727.632909
         3.92e-06       8721.104703
         3.93e-06       8718.197049
         3.94e-06       8705.458473
         3.95e-06       8711.906342
         3.96e-06       8719.485461
         3.97e-06       8723.839381
         3.98e-06       8748.715275
         3.99e-06       8746.902306
            4e-06       8745.799183
         4.01e-06        8723.00889
         4.02e-06       8721.512571
         4.03e-06       8720.735776
         4.04e-06       8722.230596
         4.05e-06       8724.482202
         4.06e-06       8714.979489
         4.07e-06       8699.764971
         4.08e-06       8711.867954
         4.09e-06       8716.338596
          4.1e-06       8711.252357
         4.11e-06       8714.954551
         4.12e-06       8739.953635
         4.13e-06       8732.956613
         4.14e-06       8733.198107
         4.15e-06       8709.790783
         4.16e-06       8716.567339
         4.17e-06       8703.180715
         4.18e-06       8709.548901
         4.19e-06       8715.750502
          4.2e-06       8729.839337
         4.21e-06       8712.520382
         4.22e-06       8703.076352
         4.23e-06        8701.05125
         4.24e-06       8708.374351
         4.25e-06        8717.81461
         4.26e-06       8697.638053
         4.27e-06       8693.481313
         4.28e-06       8689.135653
         4.29e-06       8686.659877
          4.3e-06       8681.083338
         4.31e-06       8696.687946
         4.32e-06       8682.861279
         4.33e-06       8689.922768
         4.34e-06       8685.597249
         4.35e-06       8702.939912
         4.36e-06       8692.548221
         4.37e-06       8667.196233
         4.38e-06       8660.939312
         4.39e-06       8675.683652
          4.4e-06       8670.207666
         4.41e-06       8656.608553
         4.42e-06       8655.935443
         4.43e-06       8645.271954
         4.44e-06        8661.78093
         4.45e-06       8653.622574
         4.46e-06       8648.942873
         4.47e-06       8656.319513
         4.48e-06       8661.288152
         4.49e-06       8651.726878
          4.5e-06       8653.471335
         4.51e-06        8665.67359
         4.52e-06        8648.51551
         4.53e-06       8649.399876
         4.54e-06       8652.739951
         4.55e-06       8643.443983
         4.56e-06       8646.387563
         4.57e-06       8654.159481
         4.58e-06       8648.499051
         4.59e-06       8640.976481
          4.6e-06       8646.447655
         4.61e-06       8638.208049
         4.62e-06       8609.068876
         4.63e-06       8618.847026
         4.64e-06       8633.652008
         4.65e-06       8631.888629
         4.66e-06       8633.146578
         4.67e-06       8640.530273
         4.68e-06       8617.475589
         4.69e-06       8608.134654
          4.7e-06       8585.099914
         4.71e-06       8586.281828
         4.72e-06       8585.386002
         4.73e-06       8604.223088
         4.74e-06       8626.057352
         4.75e-06       8615.014442
         4.76e-06       8601.182364
         4.77e-06       8606.860883
         4.78e-06       8592.599901
         4.79e-06       8590.230331
          4.8e-06       8585.310247
         4.81e-06       8574.037773
         4.82e-06       8602.374951
         4.83e-06       8586.952119
         4.84e-06       8588.044476
         4.85e-06       8585.993005
         4.86e-06        8595.79528
         4.87e-06       8602.776562
         4.88e-06       8609.966257
         4.89e-06       8583.898157
          4.9e-06       8586.476182
         4.91e-06       8587.996447
         4.92e-06       8587.597055
         4.93e-06       8600.070168
         4.94e-06       8598.414993
         4.95e-06        8590.81788
         4.96e-06       8588.252084
         4.97e-06        8584.63802
         4.98e-06       8578.253345
         4.99e-06       8567.937924
            5e-06        8589.58948
         5.01e-06       8565.552008
         5.02e-06       8554.655274
         5.03e-06       8548.644899
         5.04e-06       8549.103236
         5.05e-06       8536.066491
         5.06e-06       8540.237997
         5.07e-06       8554.231738
         5.08e-06       8548.139452
         5.09e-06       8574.331601
          5.1e-06       8575.316834
         5.11e-06       8566.277496
         5.12e-06       8545.752675
         5.13e-06       8526.800666
         5.14e-06       8521.889741
         5.15e-06       8519.212367
         5.16e-06       8522.411346
         5.17e-06        8513.70112
         5.18e-06       8555.300523
         5.19e-06       8556.193278
          5.2e-06       8558.818462
         5.21e-06        8540.20052
         5.22e-06       8540.290175
         5.23e-06       8540.239517
         5.24e-06         8534.2969
         5.25e-06       8563.014471
         5.26e-06       8564.760132
         5.27e-06       8541.695496
         5.28e-06       8552.958607
         5.29e-06       8554.615455
          5.3e-06       8542.892227
         5.31e-06       8527.199283
         5.32e-06       8531.794427
         5.33e-06       8525.768425
         5.34e-06       8521.038953
         5.35e-06       8511.526657
         5.36e-06       8503.506118
         5.37e-06       8517.967844
         5.38e-06       8503.610246
         5.39e-06       8502.615709
          5.4e-06       8503.551802
         5.41e-06       8502.766564
         5.42e-06       8511.978103
         5.43e-06       8533.163089
         5.44e-06       8525.804006
         5.45e-06       8514.391843
         5.46e-06       8497.642412
         5.47e-06       8469.028369
         5.48e-06       8480.405159
         5.49e-06       8500.208977
          5.5e-06       8486.101118
         5.51e-06       8493.936871
         5.52e-06       8494.209738
         5.53e-06       8514.471646
         5.54e-06       8524.371073
         5.55e-06       8522.322966
         5.56e-06       8488.877331
         5.57e-06        8491.35397
         5.58e-06       8492.856379
         5.59e-06       8488.209052
          5.6e-06       8491.909475
         5.61e-06       8487.823185
         5.62e-06       8492.211439
         5.63e-06       8483.970426
         5.64e-06       8498.165582
         5.65e-06       8500.258919
         5.66e-06       8521.649785
         5.67e-06       8526.547942
         5.68e-06       8522.925016
         5.69e-06       8513.882252
          5.7e-06       8520.807768
         5.71e-06        8500.95343
         5.72e-06         8515.5157
         5.73e-06        8516.31223
         5.74e-06       8510.061961
         5.75e-06       8495.282672
         5.76e-06       8495.434259
         5.77e-06       8498.628811
         5.78e-06        8492.78073
         5.79e-06       8464.255783
          5.8e-06       8458.263887
         5.81e-06       8467.050373
         5.82e-06       8459.719344
         5.83e-06       8455.562801
         5.84e-06       8464.630636
         5.85e-06       8463.818227
         5.86e-06       8486.138255
         5.87e-06       8475.643793
         5.88e-06       8444.120868
         5.89e-06       8450.054235
          5.9e-06       8445.946138
         5.91e-06       8465.337517
         5.92e-06       8467.122691
         5.93e-06       8459.428888
         5.94e-06       8435.850897
         5.95e-06       8441.586615
         5.96e-06       8449.285468
         5.97e-06       8455.217723
         5.98e-06       8464.323524
         5.99e-06       8479.377076
            6e-06       8478.741504
         6.01e-06       8488.921905
         6.02e-06       8489.685053
         6.03e-06       8496.543651
         6.04e-06       8488.461966
         6.05e-06        8498.19569
         6.06e-06       8484.803833
         6.07e-06       8468.631799
         6.08e-06       8446.336989
         6.09e-06       8444.478247
          6.1e-06       8451.974876
         6.11e-06       8474.382288
         6.12e-06        8471.52501
         6.13e-06       8467.500668
         6.14e-06       8476.330182
         6.15e-06       8477.651615
         6.16e-06       8479.489501
         6.17e-06       8476.583615
         6.18e-06        8464.83936
         6.19e-06       8461.639831
          6.2e-06       8479.314965
         6.21e-06       8463.951042
         6.22e-06       8453.944943
         6.23e-06        8451.53974
         6.24e-06       8439.045774
         6.25e-06       8425.743443
         6.26e-06       8420.207893
         6.27e-06       8428.700042
         6.28e-06        8421.95872
         6.29e-06       8425.332046
          6.3e-06       8438.217531
         6.31e-06        8438.95059
         6.32e-06        8438.13434
         6.33e-06       8434.023117
         6.34e-06       8428.849652
         6.35e-06       8435.647874
         6.36e-06       8430.138357
         6.37e-06       8429.976745
         6.38e-06       8432.611294
         6.39e-06       8428.769404
          6.4e-06       8425.487466
         6.41e-06       8424.571994
         6.42e-06       8417.727682
         6.43e-06       8399.558401
         6.44e-06       8406.363539
         6.45e-06       8426.871351
         6.46e-06       8421.545582
         6.47e-06       8415.858305
         6.48e-06       8421.465127
         6.49e-06       8426.803845
          6.5e-06        8406.31741
         6.51e-06        8397.04339
         6.52e-06       8401.354798
         6.53e-06       8409.124725
         6.54e-06       8419.287874
         6.55e-06       8427.490977
         6.56e-06       8425.751821
         6.57e-06       8441.103375
         6.58e-06       8428.194211
         6.59e-06       8415.091355
          6.6e-06       8400.238884
         6.61e-06       8389.690215
         6.62e-06       8386.422898
         6.63e-06       8403.985971
         6.64e-06       8420.780579
         6.65e-06       8419.094882
         6.66e-06       8401.926843
         6.67e-06       8398.705173
         6.68e-06       8380.612477
         6.69e-06       8390.585593
          6.7e-06       8386.645863
         6.71e-06       8415.419895
         6.72e-06       8404.536575
         6.73e-06        8404.51594
         6.74e-06       8401.285225
         6.75e-06       8390.457475
         6.76e-06       8400.668686
         6.77e-06       8409.020198
         6.78e-06       8404.229167
         6.79e-06        8403.75348
          6.8e-06       8400.550469
         6.81e-06       8394.228822
         6.82e-06       8394.726348
         6.83e-06       8394.933543
         6.84e-06       8399.924695
         6.85e-06       8405.259453
         6.86e-06       8386.920802
         6.87e-06       8396.257209
         6.88e-06       8401.120561
         6.89e-06       8380.746393
          6.9e-06       8372.643739
         6.91e-06       8361.924137
         6.92e-06       8341.431759
         6.93e-06       8350.225559
         6.94e-06       8351.643429
         6.95e-06       8355.311653
         6.96e-06        8354.28026
         6.97e-06       8355.012594
         6.98e-06       8359.814307
         6.99e-06       8368.105651
            7e-06       8363.495288
         7.01e-06       8377.782707
         7.02e-06         8364.3075
         7.03e-06       8364.599021
         7.04e-06       8364.756071
         7.05e-06       8355.866938
         7.06e-06       8338.427946
         7.07e-06       8342.850407
         7.08e-06       8357.905185
         7.09e-06       8355.144021
          7.1e-06       8365.976754
         7.11e-06       8361.257629
         7.12e-06       8364.594664
         7.13e-06       8351.607658
         7.14e-06       8349.535205
         7.15e-06       8351.744364
         7.16e-06       8359.796036
         7.17e-06       8357.965467
         7.18e-06       8364.474501
         7.19e-06       8362.238386
          7.2e-06       8374.302881
         7.21e-06        8367.72176
         7.22e-06        8383.85038
         7.23e-06       8403.695503
         7.24e-06       8388.314314
         7.25e-06       8393.421568
         7.26e-06       8389.179267
         7.27e-06       8399.105893
         7.28e-06       8382.126389
         7.29e-06       8365.808412
          7.3e-06       8370.824632
         7.31e-06       8377.903952
         7.32e-06       8392.959942
         7.33e-06       8377.027906
         7.34e-06       8376.637569
         7.35e-06       8361.043564
         7.36e-06       8331.522577
         7.37e-06       8326.827594
         7.38e-06        8327.93432
         7.39e-06       8320.107065
          7.4e-06       8341.650955
         7.41e-06       8344.705744
         7.42e-06       8316.780847
         7.43e-06       8329.505523
         7.44e-06       8329.598765
         7.45e-06       8327.314846
         7.46e-06       8337.315336
         7.47e-06       8339.713834
         7.48e-06       8361.210173
         7.49e-06        8358.20229
          7.5e-06       8343.132886
         7.51e-06        8351.00564
         7.52e-06       8340.020483
         7.53e-06       8341.123559
         7.54e-06       8345.787455
         7.55e-06       8344.721614
         7.56e-06       8342.438068
         7.57e-06       8351.190747
         7.58e-06       8341.821435
         7.59e-06       8326.681729
          7.6e-06       8321.796119
         7.61e-06       8329.082213
         7.62e-06       8328.940389
         7.63e-06       8337.127915
         7.64e-06       8333.221128
         7.65e-06       8337.474864
         7.66e-06       8314.202874
         7.67e-06       8323.396532
         7.68e-06       8340.871184
         7.69e-06       8348.452896
          7.7e-06       8355.363176
         7.71e-06       8354.170952
         7.72e-06       8364.202992
         7.73e-06       8342.234955
         7.74e-06       8342.636867
         7.75e-06       8346.119061
         7.76e-06       8343.489134
         7.77e-06       8363.494445
         7.78e-06       8360.830145
         7.79e-06       8386.669164
          7.8e-06       8380.127326
         7.81e-06       8396.407277
         7.82e-06       8364.512561
         7.83e-06       8361.595837
         7.84e-06       8352.303954
         7.85e-06       8332.029772
         7.86e-06       8324.489384
         7.87e-06       8334.215382
         7.88e-06       8341.807939
         7.89e-06       8346.549467
          7.9e-06       8336.451212
         7.91e-06       8329.908051
         7.92e-06       8322.958853
         7.93e-06       8316.920659
         7.94e-06       8304.482503
         7.95e-06       8309.403491
         7.96e-06       8298.840836
         7.97e-06       8299.507001
         7.98e-06       8296.071612
         7.99e-06       8321.017779
            8e-06         8313.1215
         8.01e-06       8319.778572
         8.02e-06       8323.668375
         8.03e-06        8322.27611
         8.04e-06       8338.835878
         8.05e-06       8321.191459
         8.06e-06       8315.902126
         8.07e-06       8307.535505
         8.08e-06        8296.83903
         8.09e-06       8299.530844
          8.1e-06       8283.206629
         8.11e-06       8288.159976
         8.12e-06       8304.656427
         8.13e-06       8277.992768
         8.14e-06       8282.613626
         8.15e-06       8278.684276
         8.16e-06       8259.447765
         8.17e-06       8278.447651
         8.18e-06       8295.451092
         8.19e-06       8292.476367
          8.2e-06       8295.996437
         8.21e-06       8293.205376
         8.22e-06       8308.225043
         8.23e-06       8280.309261
         8.24e-06       8279.602233
         8.25e-06       8276.689645
         8.26e-06       8270.532519
         8.27e-06       8301.609166
         8.28e-06       8298.268039
         8.29e-06       8286.399937
          8.3e-06       8279.314272
         8.31e-06       8283.176168