# Probe 0 (5e-06 5e-06 5e-06)
#           Probe                 0
#            Time
            1e-08       644.7238242
            2e-08       736.7735141
            3e-08       820.1752634
            4e-08       884.7763216
            5e-08       945.1277067
            6e-08       979.4654008
            7e-08       1030.131246
            8e-08       1069.714885
            9e-08       1105.774938
            1e-07       1141.907267
          1.1e-07       1178.618157
          1.2e-07       1210.531184
          1.3e-07       1245.171665
          1.4e-07       1280.711738
          1.5e-07       1314.686302
          1.6e-07       1336.522629
          1.7e-07       1362.249072
          1.8e-07       1385.211102
          1.9e-07       1407.728407
            2e-07       1432.034152
          2.1e-07       1457.235952
          2.2e-07       1483.053288
          2.3e-07       1511.382621
          2.4e-07       1540.349795
          2.5e-07       1557.212768
          2.6e-07       1580.951028
          2.7e-07       1603.574524
          2.8e-07        1621.44937
          2.9e-07       1637.865011
            3e-07       1655.727011
          3.1e-07       1682.382605
          3.2e-07       1708.406061
          3.3e-07       1727.455938
          3.4e-07       1742.368486
          3.5e-07       1759.021914
          3.6e-07       1773.643432
          3.7e-07       1796.771329
          3.8e-07       1812.380882
          3.9e-07        1835.41527
            4e-07        1854.28765
          4.1e-07       1875.514918
          4.2e-07       1896.707129
          4.3e-07       1911.623129
          4.4e-07       1930.285096
          4.5e-07       1948.000026
          4.6e-07       1968.720933
          4.7e-07       1987.594127
          4.8e-07       2002.480849
          4.9e-07       2019.010317
            5e-07       2034.721023
          5.1e-07       2050.756969
          5.2e-07       2071.970987
          5.3e-07       2088.050633
          5.4e-07       2101.126799
          5.5e-07       2115.787213
          5.6e-07       2130.282405
          5.7e-07       2145.356827
          5.8e-07       2163.391081
          5.9e-07        2178.08801
            6e-07       2189.760867
          6.1e-07       2205.981699
          6.2e-07       2222.239325
          6.3e-07       2241.212073
          6.4e-07       2252.519075
          6.5e-07       2265.947453
          6.6e-07       2280.234539
          6.7e-07       2294.289079
          6.8e-07       2315.014345
          6.9e-07       2328.555826
            7e-07       2348.618914
          7.1e-07       2357.034761
          7.2e-07       2368.704831
          7.3e-07       2377.454997
          7.4e-07       2391.433616
          7.5e-07       2405.267276
          7.6e-07       2418.443239
          7.7e-07       2431.951905
          7.8e-07        2442.91548
          7.9e-07       2450.045493
            8e-07       2464.483078
          8.1e-07       2476.383664
          8.2e-07       2487.365682
          8.3e-07       2499.898955
          8.4e-07       2516.789646
          8.5e-07       2528.499914
          8.6e-07       2546.620112
          8.7e-07       2555.063649
          8.8e-07       2564.004439
          8.9e-07        2571.65548
            9e-07       2582.325288
          9.1e-07        2590.73614
          9.2e-07       2601.074709
          9.3e-07       2616.580964
          9.4e-07       2633.296899
          9.5e-07       2641.239587
          9.6e-07       2651.871367
          9.7e-07       2666.452634
          9.8e-07       2680.091798
          9.9e-07       2699.041791
            1e-06       2713.404387
         1.01e-06       2727.021649
         1.02e-06        2740.12569
         1.03e-06       2754.015176
         1.04e-06       2763.925781
         1.05e-06       2775.312362
         1.06e-06       2787.067996
         1.07e-06       2798.355982
         1.08e-06       2810.126597
         1.09e-06       2815.704104
          1.1e-06       2829.731357
         1.11e-06       2834.996892
         1.12e-06       2849.910036
         1.13e-06       2858.796452
         1.14e-06       2864.276437
         1.15e-06       2880.249415
         1.16e-06        2891.86741
         1.17e-06       2904.906481
         1.18e-06       2910.254049
         1.19e-06       2922.522753
          1.2e-06       2932.750667
         1.21e-06       2940.717092
         1.22e-06       2952.357799
         1.23e-06       2964.588796
         1.24e-06       2975.197871
         1.25e-06       2984.600703
         1.26e-06       2998.001263
         1.27e-06       3004.996073
         1.28e-06       3014.117968
         1.29e-06       3024.205303
          1.3e-06       3032.494219
         1.31e-06       3046.485407
         1.32e-06       3055.470287
         1.33e-06       3053.830288
         1.34e-06       3057.408243
         1.35e-06        3067.87645
         1.36e-06       3077.369972
         1.37e-06        3090.24221
         1.38e-06       3099.387802
         1.39e-06        3108.04528
          1.4e-06       3115.695668
         1.41e-06       3123.602243
         1.42e-06       3139.181539
         1.43e-06       3148.373887
         1.44e-06       3152.190195
         1.45e-06       3163.893103
         1.46e-06       3174.404049
         1.47e-06       3181.876235
         1.48e-06       3189.493067
         1.49e-06       3201.133747
          1.5e-06       3207.819039
         1.51e-06       3220.923782
         1.52e-06       3230.109851
         1.53e-06       3236.636873
         1.54e-06       3242.018985
         1.55e-06       3252.078562
         1.56e-06       3263.642154
         1.57e-06       3270.414942
         1.58e-06        3282.73958
         1.59e-06       3295.828055
          1.6e-06       3304.316087
         1.61e-06       3311.184628
         1.62e-06       3320.693749
         1.63e-06       3330.234963
         1.64e-06       3339.661575
         1.65e-06       3340.871674
         1.66e-06        3355.46046
         1.67e-06         3364.9119
         1.68e-06       3371.137205
         1.69e-06       3375.054518
          1.7e-06        3384.75308
         1.71e-06       3398.835404
         1.72e-06       3406.476148
         1.73e-06       3411.227374
         1.74e-06       3426.132054
         1.75e-06       3434.128107
         1.76e-06       3439.055714
         1.77e-06       3448.506308
         1.78e-06       3457.734051
         1.79e-06       3469.254222
          1.8e-06       3473.918932
         1.81e-06       3478.764831
         1.82e-06       3489.618791
         1.83e-06        3497.11884
         1.84e-06       3502.287348
         1.85e-06       3502.833249
         1.86e-06       3514.112324
         1.87e-06       3519.531608
         1.88e-06       3524.004298
         1.89e-06       3529.239535
          1.9e-06       3536.109019
         1.91e-06       3545.701159
         1.92e-06       3554.345318
         1.93e-06       3556.160923
         1.94e-06       3561.243888
         1.95e-06       3568.539709
         1.96e-06       3579.207276
         1.97e-06       3590.776713
         1.98e-06       3600.238601
         1.99e-06       3607.233018
            2e-06       3612.993797
         2.01e-06       3617.340684
         2.02e-06       3624.221732
         2.03e-06       3634.322647
         2.04e-06        3644.63669
         2.05e-06        3648.36321
         2.06e-06       3653.970074
         2.07e-06       3664.023247
         2.08e-06         3670.4943
         2.09e-06       3677.867204
          2.1e-06       3685.165815
         2.11e-06       3689.934129
         2.12e-06       3691.089956
         2.13e-06       3698.276647
         2.14e-06       3704.197913
         2.15e-06       3713.005218
         2.16e-06       3715.170514
         2.17e-06       3726.643741
         2.18e-06       3737.318952
         2.19e-06       3740.419768
          2.2e-06       3750.801399
         2.21e-06       3758.801301
         2.22e-06       3768.599914
         2.23e-06        3775.62259
         2.24e-06       3782.355548
         2.25e-06       3785.127487
         2.26e-06       3792.038183
         2.27e-06       3800.458381
         2.28e-06       3809.020037
         2.29e-06       3813.659562
          2.3e-06       3826.962711
         2.31e-06       3834.762078
         2.32e-06       3838.499307
         2.33e-06       3846.367543
         2.34e-06       3853.156302
         2.35e-06       3860.589882
         2.36e-06       3866.585712
         2.37e-06       3875.056879
         2.38e-06       3879.578675
         2.39e-06       3887.113549
          2.4e-06       3895.507421
         2.41e-06       3896.224743
         2.42e-06       3902.142024
         2.43e-06       3905.763573
         2.44e-06       3907.878941
         2.45e-06       3911.392293
         2.46e-06       3915.729675
         2.47e-06       3922.610931
         2.48e-06       3930.565553
         2.49e-06        3938.16004
          2.5e-06       3946.468963
         2.51e-06       3950.765857
         2.52e-06       3960.539205
         2.53e-06       3963.474227
         2.54e-06       3967.088959
         2.55e-06       3981.508211
         2.56e-06       3987.982341
         2.57e-06       3992.345421
         2.58e-06       4003.465171
         2.59e-06       4009.398994
          2.6e-06       4018.262078
         2.61e-06       4028.051723
         2.62e-06        4032.80264
         2.63e-06       4034.124209
         2.64e-06       4039.624259
         2.65e-06       4043.302385
         2.66e-06        4050.83599
         2.67e-06       4060.331055
         2.68e-06       4070.786987
         2.69e-06       4080.276775
          2.7e-06       4087.231996
         2.71e-06       4092.117691
         2.72e-06       4097.929749
         2.73e-06       4100.746305
         2.74e-06       4109.907537
         2.75e-06       4113.899272
         2.76e-06       4117.783673
         2.77e-06       4121.917087
         2.78e-06       4125.800654
         2.79e-06       4129.719442
          2.8e-06       4132.818558
         2.81e-06       4137.199632
         2.82e-06       4147.455774
         2.83e-06       4154.576469
         2.84e-06        4162.01618
         2.85e-06       4167.639504
         2.86e-06       4172.763846
         2.87e-06       4174.720882
         2.88e-06       4178.243296
         2.89e-06       4178.776968
          2.9e-06       4184.077707
         2.91e-06       4188.381805
         2.92e-06       4193.076646
         2.93e-06       4194.143577
         2.94e-06       4198.873291
         2.95e-06        4205.13129
         2.96e-06       4207.691096
         2.97e-06       4209.575292
         2.98e-06       4213.059043
         2.99e-06       4213.343417
            3e-06       4216.720208
         3.01e-06       4222.620022
         3.02e-06       4229.478356
         3.03e-06       4238.893342
         3.04e-06       4243.049452
         3.05e-06       4243.582256
         3.06e-06       4249.939847
         3.07e-06       4255.834831
         3.08e-06       4261.515944
         3.09e-06       4268.332248
          3.1e-06        4271.73998
         3.11e-06        4273.51473
         3.12e-06       4279.867714
         3.13e-06       4286.432634
         3.14e-06       4294.983234
         3.15e-06       4301.723152
         3.16e-06       4306.866053
         3.17e-06       4309.313147
         3.18e-06       4312.717565
         3.19e-06       4315.625292
          3.2e-06       4317.681857
         3.21e-06       4321.262882
         3.22e-06       4328.707626
         3.23e-06       4334.875157
         3.24e-06       4338.525639
         3.25e-06       4341.927754
         3.26e-06       4347.739088
         3.27e-06        4352.52223
         3.28e-06       4357.446551
         3.29e-06       4358.898944
          3.3e-06       4363.680875
         3.31e-06       4361.874428
         3.32e-06       4367.683131
         3.33e-06       4371.543373
         3.34e-06       4378.554701
         3.35e-06       4383.440734
         3.36e-06       4388.928036
         3.37e-06       4391.866123
         3.38e-06       4399.475943
         3.39e-06       4404.748976
          3.4e-06       4411.719768
         3.41e-06       4415.576248
         3.42e-06       4419.856914
         3.43e-06       4424.632395
         3.44e-06        4433.12092
         3.45e-06        4431.74164
         3.46e-06       4436.834161
         3.47e-06       4445.002251
         3.48e-06        4449.66909
         3.49e-06       4453.981969
          3.5e-06       4462.818602
         3.51e-06       4465.645976
         3.52e-06       4472.006953
         3.53e-06        4475.61113
         3.54e-06       4481.158204
         3.55e-06       4486.422031
         3.56e-06       4492.850891
         3.57e-06       4497.901539
         3.58e-06       4504.787938
         3.59e-06       4509.837345
          3.6e-06       4511.779286
         3.61e-06       4519.863994
         3.62e-06       4522.476236
         3.63e-06       4523.570512
         3.64e-06       4526.394338
         3.65e-06       4535.605952
         3.66e-06       4543.016356
         3.67e-06       4548.732202
         3.68e-06       4550.707898
         3.69e-06       4553.812407
          3.7e-06       4557.763323
         3.71e-06       4560.232488
         3.72e-06       4567.357118
         3.73e-06       4570.566401
         3.74e-06       4570.672198
         3.75e-06       4575.785463
         3.76e-06       4580.827698
         3.77e-06       4583.648312
         3.78e-06       4584.212416
         3.79e-06       4588.795534
          3.8e-06       4594.717727
         3.81e-06       4600.110563
         3.82e-06       4603.775961
         3.83e-06       4607.123935
         3.84e-06       4613.502112
         3.85e-06       4618.575907
         3.86e-06       4623.261685
         3.87e-06       4628.299312
         3.88e-06         4631.4696
         3.89e-06       4635.485025
          3.9e-06       4637.880046
         3.91e-06       4639.781898
         3.92e-06       4642.740199
         3.93e-06       4649.149288
         3.94e-06       4646.684344
         3.95e-06       4650.240869
         3.96e-06       4654.219671
         3.97e-06       4657.564454
         3.98e-06       4658.867102
         3.99e-06       4666.435924
            4e-06       4672.912586
         4.01e-06        4678.86058
         4.02e-06       4681.746354
         4.03e-06       4688.150823
         4.04e-06       4689.382366
         4.05e-06       4691.986108
         4.06e-06       4696.243313
         4.07e-06       4701.450027
         4.08e-06       4707.008005
         4.09e-06       4710.525424
          4.1e-06       4717.700272
         4.11e-06       4720.935687
         4.12e-06       4723.115969
         4.13e-06       4727.405955
         4.14e-06        4729.12889
         4.15e-06        4733.06683
         4.16e-06       4736.125575
         4.17e-06       4736.828712
         4.18e-06       4737.742776
         4.19e-06       4741.293425
          4.2e-06       4743.789292
         4.21e-06       4751.135647
         4.22e-06       4755.353222
         4.23e-06       4762.241261
         4.24e-06       4766.422882
         4.25e-06       4773.274462
         4.26e-06       4778.509226
         4.27e-06        4781.84658
         4.28e-06       4787.888462
         4.29e-06       4789.398835
          4.3e-06       4790.909169
         4.31e-06       4789.820327
         4.32e-06       4790.909169
         4.33e-06       4792.946301
         4.34e-06       4800.286417
         4.35e-06       4803.306485
         4.36e-06       4810.048407
         4.37e-06       4811.593322
         4.38e-06       4821.142817
         4.39e-06       4824.547965
          4.4e-06       4826.654145
         4.41e-06       4830.234481
         4.42e-06       4831.182181
         4.43e-06        4836.34162
         4.44e-06       4843.185092
         4.45e-06       4845.395894
         4.46e-06       4847.360984
         4.47e-06       4850.764649
         4.48e-06       4856.168015
         4.49e-06       4858.904602
          4.5e-06       4863.184658
         4.51e-06       4870.095266
         4.52e-06       4875.496926
         4.53e-06       4879.354964
         4.54e-06       4881.809954
         4.55e-06       4890.296457
         4.56e-06       4892.505563
         4.57e-06       4894.749654
         4.58e-06       4899.798564
         4.59e-06       4902.813691
          4.6e-06       4904.040736
         4.61e-06       4906.179243
         4.62e-06        4909.57967
         4.63e-06       4915.713996
         4.64e-06       4921.532293
         4.65e-06       4923.214592
         4.66e-06       4927.455191
         4.67e-06       4931.310036
         4.68e-06       4933.587789
         4.69e-06       4936.566267
          4.7e-06       4936.741467
         4.71e-06       4940.805979
         4.72e-06        4939.68476
         4.73e-06        4940.94613
         4.74e-06       4943.223541
         4.75e-06       4947.217574
         4.76e-06       4950.125354
         4.77e-06       4952.367409
         4.78e-06       4953.173128
         4.79e-06        4958.67277
          4.8e-06       4962.770927
         4.81e-06       4968.339802
         4.82e-06       4969.355458
         4.83e-06       4974.958791
         4.84e-06       4980.456596
         4.85e-06       4984.973556
         4.86e-06       4987.739604
         4.87e-06       4991.730911
         4.88e-06       4992.606166
         4.89e-06       4997.017273
          4.9e-06       5001.533103
         4.91e-06       5004.543485
         4.92e-06       5009.093806
         4.93e-06        5011.36885
         4.94e-06       5017.073621
         4.95e-06       5021.728076
         4.96e-06       5026.487185
         4.97e-06       5029.916335
         4.98e-06       5034.604893
         4.99e-06       5041.742075
            5e-06       5041.986965
         5.01e-06       5046.849599
         5.02e-06       5050.032863
         5.03e-06       5055.804338
         5.04e-06       5058.707382
         5.05e-06       5061.610303
         5.06e-06       5063.673751
         5.07e-06       5069.234262
         5.08e-06        5073.39561
         5.09e-06       5077.591675
          5.1e-06        5083.57063
         5.11e-06       5092.835253
         5.12e-06       5095.212393
         5.13e-06       5099.442106
         5.14e-06       5103.496799
         5.15e-06       5110.661851
         5.16e-06       5111.640436
         5.17e-06       5116.218638
         5.18e-06       5115.729378
         5.19e-06       5121.949712
          5.2e-06       5123.836672
         5.21e-06       5123.312521
         5.22e-06       5129.811718
         5.23e-06       5132.327378
         5.24e-06       5137.987292
         5.25e-06       5135.541705
         5.26e-06       5140.432796
         5.27e-06       5141.795255
         5.28e-06       5145.917412
         5.29e-06       5147.978402
          5.3e-06        5152.51936
         5.31e-06       5153.986378
         5.32e-06       5156.920326
         5.33e-06       5157.199743
         5.34e-06       5160.028785
         5.35e-06       5163.556201
         5.36e-06       5166.384997
         5.37e-06       5167.781892
         5.38e-06        5169.66766
         5.39e-06       5169.877186
          5.4e-06       5176.023037
         5.41e-06       5178.816436
         5.42e-06       5179.933766
         5.43e-06       5188.068817
         5.44e-06       5187.545128
         5.45e-06       5189.570037
         5.46e-06       5189.814419
         5.47e-06       5192.502567
         5.48e-06       5197.075687
         5.49e-06       5198.192742
          5.5e-06       5201.020214
         5.51e-06        5204.79001
         5.52e-06       5210.653761
         5.53e-06       5210.479251
         5.54e-06       5209.467086
         5.55e-06       5208.210587
         5.56e-06       5208.420005
         5.57e-06       5209.990621
         5.58e-06       5213.550564
         5.59e-06       5217.145237
          5.6e-06       5219.867303
         5.61e-06       5218.192197
         5.62e-06       5224.543444
         5.63e-06       5224.997084
         5.64e-06       5228.416745
         5.65e-06       5232.254957
         5.66e-06       5238.988807
         5.67e-06       5242.477615
         5.68e-06       5240.105243
         5.69e-06        5241.57054
          5.7e-06       5246.663975
         5.71e-06       5245.826721
         5.72e-06       5248.547762
         5.73e-06       5250.536155
         5.74e-06       5253.361676
         5.75e-06       5255.594114
         5.76e-06       5254.198848
         5.77e-06       5259.570484
         5.78e-06       5264.279078
         5.79e-06       5268.603757
          5.8e-06       5273.765157
         5.81e-06       5272.788702
         5.82e-06       5275.055453
         5.83e-06       5277.182652
         5.84e-06       5279.205181
         5.85e-06       5286.004679
         5.86e-06       5287.294773
         5.87e-06       5292.106291
         5.88e-06       5295.697305
         5.89e-06       5295.976211
          5.9e-06       5297.126692
         5.91e-06       5299.567049
         5.92e-06       5303.088003
         5.93e-06       5301.693585
         5.94e-06       5306.190497
         5.95e-06       5309.223154
         5.96e-06       5306.957387
         5.97e-06       5309.536871
         5.98e-06       5314.939574
         5.99e-06       5317.867337
            6e-06       5323.095219
         6.01e-06       5325.709033
         6.02e-06       5324.872622
         6.03e-06       5326.719684
         6.04e-06       5332.260618
         6.05e-06       5333.515116
         6.06e-06       5337.278493
         6.07e-06       5336.930039
         6.08e-06       5338.776825
         6.09e-06       5340.867476
          6.1e-06       5343.027758
         6.11e-06       5344.038193
         6.12e-06       5343.968508
         6.13e-06       5347.661718
         6.14e-06       5349.334059
         6.15e-06       5349.891499
         6.16e-06       5351.285081
         6.17e-06       5349.961178
         6.18e-06       5352.190896
         6.19e-06       5348.114647
          6.2e-06       5351.110884
         6.21e-06       5352.539284
         6.22e-06        5350.76249
         6.23e-06       5352.992187
         6.24e-06       5357.730088
         6.25e-06       5356.824334
         6.26e-06       5363.686914
         6.27e-06       5368.459029
         6.28e-06       5370.200608
         6.29e-06       5373.370186
          6.3e-06       5373.962292
         6.31e-06       5372.081471
         6.32e-06       5371.837658
         6.33e-06       5371.593844
         6.34e-06       5372.534265
         6.35e-06       5373.822974
         6.36e-06       5376.469986
         6.37e-06       5376.678958
         6.38e-06       5379.430361
         6.39e-06       5382.320977
          6.4e-06       5388.868025
         6.41e-06       5387.649199
         6.42e-06       5390.226125
         6.43e-06       5393.046722
         6.44e-06        5396.52881
         6.45e-06       5398.374257
         6.46e-06       5398.861727
         6.47e-06       5399.767021
         6.48e-06       5402.865837
         6.49e-06        5403.97999
          6.5e-06       5405.964538
         6.51e-06       5407.183097
         6.52e-06       5411.117181
         6.53e-06       5414.877019
         6.54e-06       5417.975278
         6.55e-06       5421.595572
         6.56e-06       5426.259953
         6.57e-06       5428.522434
         6.58e-06       5431.098107
         6.59e-06        5436.14481
          6.6e-06       5440.425572
         6.61e-06       5445.645724
         6.62e-06       5449.717222
         6.63e-06       5452.535838
         6.64e-06       5453.196982
         6.65e-06       5454.762828
         6.66e-06       5459.251429
         6.67e-06       5463.183113
         6.68e-06       5466.244832
         6.69e-06       5467.114619
          6.7e-06       5473.863869
         6.71e-06       5479.742944
         6.72e-06       5480.960454
         6.73e-06        5484.99551
         6.74e-06       5484.334609
         6.75e-06       5484.056333
         6.76e-06       5484.473746
         6.77e-06       5488.265161
         6.78e-06       5489.273859
         6.79e-06       5490.526019
          6.8e-06       5491.326001
         6.81e-06         5495.1519
         6.82e-06       5497.760373
         6.83e-06       5497.725594
         6.84e-06        5498.52551
         6.85e-06       5504.194276
         6.86e-06       5503.776956
         6.87e-06       5504.715924
         6.88e-06       5504.924582
         6.89e-06       5509.654033
          6.9e-06       5516.260934
         6.91e-06       5517.060683
         6.92e-06        5521.82426
         6.93e-06       5525.857455
         6.94e-06       5530.759628
         6.95e-06       5535.904885
         6.96e-06       5537.747371
         6.97e-06       5540.806511
         6.98e-06       5544.769334
         6.99e-06       5548.280111
            7e-06       5551.130345
         7.01e-06        5551.82551
         7.02e-06       5559.124427
         7.03e-06       5559.784776
         7.04e-06       5562.738912
         7.05e-06        5563.92054
         7.06e-06       5564.893634
         7.07e-06       5563.190713
         7.08e-06        5566.56177
         7.09e-06       5567.639092
          7.1e-06       5565.136905
         7.11e-06       5565.692953
         7.12e-06       5571.635499
         7.13e-06       5576.465706
         7.14e-06       5577.091182
         7.15e-06       5578.759097
         7.16e-06       5577.091182
         7.17e-06       5579.662538
         7.18e-06       5582.094837
         7.19e-06       5583.901645
          7.2e-06       5587.376178
         7.21e-06        5588.55749
         7.22e-06       5588.418513
         7.23e-06       5592.136077
         7.24e-06       5594.915467
         7.25e-06       5600.647697
         7.26e-06       5603.739481
         7.27e-06       5604.503726
         7.28e-06       5606.414312
         7.29e-06       5603.357356
          7.3e-06       5603.843696
         7.31e-06       5603.148923
         7.32e-06       5600.300299
         7.33e-06       5602.905751
         7.34e-06       5601.585665
         7.35e-06       5603.114184
         7.36e-06       5602.905751
         7.37e-06          5606.588
         7.38e-06       5610.270104
         7.39e-06       5614.646756
          7.4e-06       5614.403614
         7.41e-06       5616.244531
         7.42e-06        5618.39801
         7.43e-06       5621.419745
         7.44e-06       5623.191062
         7.45e-06       5627.949141
         7.46e-06       5628.504814
         7.47e-06       5628.886837
         7.48e-06       5626.976707
         7.49e-06        5630.20654
          7.5e-06        5635.93662
         7.51e-06        5635.93662
         7.52e-06       5639.860657
         7.53e-06       5642.673363
         7.54e-06       5645.624878
         7.55e-06       5650.729049
         7.56e-06       5649.652682
         7.57e-06       5653.437274
         7.58e-06       5655.937107
         7.59e-06       5654.374719
          7.6e-06       5656.596774
         7.61e-06       5661.839231
         7.62e-06       5661.179599
         7.63e-06       5660.867141
         7.64e-06       5666.977256
         7.65e-06       5668.296435
         7.66e-06       5672.219149
         7.67e-06       5676.627674
         7.68e-06       5677.599606
         7.69e-06       5679.300462
          7.7e-06       5680.931868
         7.71e-06       5682.146727
         7.72e-06       5685.617669
         7.73e-06       5686.034174
         7.74e-06       5686.103591
         7.75e-06       5683.812794
         7.76e-06       5683.986342
         7.77e-06       5686.901886
         7.78e-06       5689.713222
         7.79e-06       5687.491926
          7.8e-06       5694.294485
         7.81e-06       5695.439767
         7.82e-06       5699.881947
         7.83e-06       5699.465501
         7.84e-06       5700.992461
         7.85e-06       5703.109343
         7.86e-06        5704.21982
         7.87e-06       5707.481775
         7.88e-06       5708.175794
         7.89e-06       5711.507018
          7.9e-06       5714.352349
         7.91e-06       5715.532097
         7.92e-06       5718.273221
         7.93e-06        5717.61397
         7.94e-06       5716.850621
         7.95e-06       5716.607737
         7.96e-06       5719.730496
         7.97e-06       5725.316521
         7.98e-06       5726.877777
         7.99e-06       5731.492011
            8e-06       5732.879709
         8.01e-06       5739.089422
         8.02e-06       5741.136114
         8.03e-06       5743.945912
         8.04e-06       5745.402814
         8.05e-06       5748.767482
         8.06e-06       5746.963756
         8.07e-06       5750.363059
         8.08e-06       5754.109096
         8.09e-06       5754.386575
          8.1e-06       5760.144087
         8.11e-06       5763.681673
         8.12e-06       5767.080414
         8.13e-06       5771.554095
         8.14e-06       5772.871886
         8.15e-06       5774.467084
         8.16e-06       5780.050081
         8.17e-06       5780.292813
         8.18e-06       5782.928153
         8.19e-06       5783.344253
          8.2e-06       5783.032179
         8.21e-06       5787.019732
         8.22e-06       5786.048863
         8.23e-06       5788.233304
         8.24e-06       5788.996114
         8.25e-06       5790.105645
         8.26e-06       5790.348353
         8.27e-06       5792.948764
         8.28e-06       5797.109285
         8.29e-06       5801.130963
          8.3e-06       5804.285791
         8.31e-06       5807.163188