# Cp ()          
# Time           	patch            	min              	max              	average          
0.00141          	object	7.1661944270e-02	1.8757475947e+00	1.4311382900e+00
