/*--------------------------------*- C++ -*----------------------------------*\
| =========                 |                                                 |
| \\      /  F ield         | OpenFOAM: The Open Source CFD Toolbox           |
|  \\    /   O peration     | Version:  v1706                                 |
|   \\  /    A nd           | Web:      www.OpenFOAM.org                      |
|    \\/     M anipulation  |                                                 |
\*---------------------------------------------------------------------------*/
FoamFile
{
    version     2.0;
    format      ascii;
    class       volScalarField;
    location    "0";
    object      e-;
}
// * * * * * * * * * * * * * * * * * * * * * * * * * * * * * * * * * * * * * //

#include "include/initialConditions"

dimensions      [0 0 0 0 0 0 0];

internalField   uniform $Y_e-;

boundaryField
{
    inlet
    {
        type            fixedValue;
        value           uniform $Y_e-;
    }
    
    /*object
    {
        type            fixedValue;
        value           uniform $Y_e-;
    }*/
    
    #include "include/nonCatalyticWallBoundary"
    
    #include "include/boundaries"
}


// ************************************************************************* //
