# Probe 0 (5e-06 5e-06 5e-06)
#           Probe                 0
#            Time
            2e-08                 0
            4e-08                 0
            6e-08                 0
            8e-08                 0
            1e-07         5029.3572
          1.2e-07         5029.3572
          1.4e-07         5029.3572
          1.6e-07         5029.3572
          1.8e-07         5029.3572
            2e-07       5027.909089
          2.2e-07       5027.909089
          2.4e-07       5027.909089
          2.6e-07       5027.909089
          2.8e-07       5027.909089
            3e-07       5028.726794
          3.2e-07       5028.726794
          3.4e-07       5028.726794
          3.6e-07       5028.726794
          3.8e-07       5028.726794
            4e-07       5021.218143
          4.2e-07       5021.218143
          4.4e-07       5021.218143
          4.6e-07       5021.218143
          4.8e-07       5021.218143
            5e-07       5009.738933
          5.2e-07       5009.738933
          5.4e-07       5009.738933
          5.6e-07       5009.738933
          5.8e-07       5009.738933
            6e-07        5020.30818
          6.2e-07        5020.30818
          6.4e-07        5020.30818
          6.6e-07        5020.30818
          6.8e-07        5020.30818
            7e-07       5021.735733
          7.2e-07       5021.735733
          7.4e-07       5021.735733
          7.6e-07       5021.735733
          7.8e-07       5021.735733
            8e-07        4999.50632
          8.2e-07        4999.50632
          8.4e-07        4999.50632
          8.6e-07        4999.50632
          8.8e-07        4999.50632
            9e-07       5007.572122
          9.2e-07       5007.572122
          9.4e-07       5007.572122
          9.6e-07       5007.572122
          9.8e-07       5007.572122
            1e-06       5009.807958
         1.02e-06       5009.807958
         1.04e-06       5009.807958
         1.06e-06       5009.807958
         1.08e-06       5009.807958
          1.1e-06        4995.07296
         1.12e-06        4995.07296
         1.14e-06        4995.07296
         1.16e-06        4995.07296
         1.18e-06        4995.07296
          1.2e-06       4983.437569
         1.22e-06       4983.437569
         1.24e-06       4983.437569
         1.26e-06       4983.437569
         1.28e-06       4983.437569
          1.3e-06       5001.047701
         1.32e-06       5001.047701
         1.34e-06       5001.047701
         1.36e-06       5001.047701
         1.38e-06       5001.047701
          1.4e-06       4993.624624
         1.42e-06       4993.624624
         1.44e-06       4993.624624
         1.46e-06       4993.624624
         1.48e-06       4993.624624
          1.5e-06       4984.875905
         1.52e-06       4984.875905
         1.54e-06       4984.875905
         1.56e-06       4984.875905
         1.58e-06       4984.875905
          1.6e-06       4973.480531
         1.62e-06       4973.480531
         1.64e-06       4973.480531
         1.66e-06       4973.480531
         1.68e-06       4973.480531
          1.7e-06       4968.721102
         1.72e-06       4968.721102
         1.74e-06       4968.721102
         1.76e-06       4968.721102
         1.78e-06       4968.721102
          1.8e-06       4985.359359
         1.82e-06       4985.359359
         1.84e-06       4985.359359
         1.86e-06       4985.359359
         1.88e-06       4985.359359
          1.9e-06       4985.882709
         1.92e-06       4985.882709
         1.94e-06       4985.882709
         1.96e-06       4985.882709
         1.98e-06       4985.882709
            2e-06       4969.407234
         2.02e-06       4969.407234
         2.04e-06       4969.407234
         2.06e-06       4969.407234
         2.08e-06       4969.407234
          2.1e-06       4962.552449
         2.12e-06       4962.552449
         2.14e-06       4962.552449
         2.16e-06       4962.552449
         2.18e-06       4962.552449
          2.2e-06       4965.461248
         2.22e-06       4965.461248
         2.24e-06       4965.461248
         2.26e-06       4965.461248
         2.28e-06       4965.461248
          2.3e-06       4958.192991
         2.32e-06       4958.192991
         2.34e-06       4958.192991
         2.36e-06       4958.192991
         2.38e-06       4958.192991
          2.4e-06       4951.877931
         2.42e-06       4951.877931
         2.44e-06       4951.877931
         2.46e-06       4951.877931
         2.48e-06       4951.877931
          2.5e-06       4946.868399
         2.52e-06       4946.868399
         2.54e-06       4946.868399
         2.56e-06       4946.868399
         2.58e-06       4946.868399
          2.6e-06        4954.51644
         2.62e-06        4954.51644
         2.64e-06        4954.51644
         2.66e-06        4954.51644
         2.68e-06        4954.51644
          2.7e-06       4954.066168
         2.72e-06       4954.066168
         2.74e-06       4954.066168
         2.76e-06       4954.066168
         2.78e-06       4954.066168
          2.8e-06       4938.833773
         2.82e-06       4938.833773
         2.84e-06       4938.833773
         2.86e-06       4938.833773
         2.88e-06       4938.833773
          2.9e-06       4925.896715
         2.92e-06       4925.896715
         2.94e-06       4925.896715
         2.96e-06       4925.896715
         2.98e-06       4925.896715
            3e-06       4940.824876
         3.02e-06       4940.824876
         3.04e-06       4940.824876
         3.06e-06       4940.824876
         3.08e-06       4940.824876
          3.1e-06        4944.39985
         3.12e-06        4944.39985
         3.14e-06        4944.39985
         3.16e-06        4944.39985
         3.18e-06        4944.39985
          3.2e-06       4927.541936
         3.22e-06       4927.541936
         3.24e-06       4927.541936
         3.26e-06       4927.541936
         3.28e-06       4927.541936
          3.3e-06        4928.21945
         3.32e-06        4928.21945
         3.34e-06        4928.21945
         3.36e-06        4928.21945
         3.38e-06        4928.21945
          3.4e-06       4925.994614
         3.42e-06       4925.994614
         3.44e-06       4925.994614
         3.46e-06       4925.994614
         3.48e-06       4925.994614
          3.5e-06       4914.626801
         3.52e-06       4914.626801
         3.54e-06       4914.626801
         3.56e-06       4914.626801
         3.58e-06       4914.626801
          3.6e-06        4917.12819
         3.62e-06        4917.12819
         3.64e-06        4917.12819
         3.66e-06        4917.12819
         3.68e-06        4917.12819
          3.7e-06       4914.145897
         3.72e-06       4914.145897
         3.74e-06       4914.145897
         3.76e-06       4914.145897
         3.78e-06       4914.145897
          3.8e-06       4906.392509
         3.82e-06       4906.392509
         3.84e-06       4906.392509
         3.86e-06       4906.392509
         3.88e-06       4906.392509
          3.9e-06       4902.247017
         3.92e-06       4902.247017
         3.94e-06       4902.247017
         3.96e-06       4902.247017
         3.98e-06       4902.247017
            4e-06       4923.393894
         4.02e-06       4923.393894
         4.04e-06       4923.393894
         4.06e-06       4923.393894
         4.08e-06       4923.393894
          4.1e-06         4911.7846
         4.12e-06         4911.7846
         4.14e-06         4911.7846
         4.16e-06         4911.7846
         4.18e-06         4911.7846
          4.2e-06       4905.453633
         4.22e-06       4905.453633
         4.24e-06       4905.453633
         4.26e-06       4905.453633
         4.28e-06       4905.453633
          4.3e-06       4912.431711
         4.32e-06       4912.431711
         4.34e-06       4912.431711
         4.36e-06       4912.431711
         4.38e-06       4912.431711
          4.4e-06       4908.205245
         4.42e-06       4908.205245
         4.44e-06       4908.205245
         4.46e-06       4908.205245
         4.48e-06       4908.205245
          4.5e-06       4899.058418
         4.52e-06       4899.058418
         4.54e-06       4899.058418
         4.56e-06       4899.058418
         4.58e-06       4899.058418
          4.6e-06       4897.341635
         4.62e-06       4897.341635
         4.64e-06       4897.341635
         4.66e-06       4897.341635
         4.68e-06       4897.341635
          4.7e-06       4887.281382
         4.72e-06       4887.281382
         4.74e-06       4887.281382
         4.76e-06       4887.281382
         4.78e-06       4887.281382
          4.8e-06       4896.560038
         4.82e-06       4896.560038
         4.84e-06       4896.560038
         4.86e-06       4896.560038
         4.88e-06       4896.560038
          4.9e-06       4883.852201
         4.92e-06       4883.852201
         4.94e-06       4883.852201
         4.96e-06       4883.852201
         4.98e-06       4883.852201
            5e-06       4889.303467
         5.02e-06       4889.303467
         5.04e-06       4889.303467
         5.06e-06       4889.303467
         5.08e-06       4889.303467
          5.1e-06        4881.16419
         5.12e-06        4881.16419
         5.14e-06        4881.16419
         5.16e-06        4881.16419
         5.18e-06        4881.16419
          5.2e-06       4861.577657
         5.22e-06       4861.577657
         5.24e-06       4861.577657
         5.26e-06       4861.577657
         5.28e-06       4861.577657
          5.3e-06       4852.545295
         5.32e-06       4852.545295
         5.34e-06       4852.545295
         5.36e-06       4852.545295
         5.38e-06       4852.545295
          5.4e-06       4870.952365
         5.42e-06       4870.952365
         5.44e-06       4870.952365
         5.46e-06       4870.952365
         5.48e-06       4870.952365
          5.5e-06       4866.168154
         5.52e-06       4866.168154
         5.54e-06       4866.168154
         5.56e-06       4866.168154
         5.58e-06       4866.168154
          5.6e-06       4866.660778
         5.62e-06       4866.660778
         5.64e-06       4866.660778
         5.66e-06       4866.660778
         5.68e-06       4866.660778
          5.7e-06       4858.374692
         5.72e-06       4858.374692
         5.74e-06       4858.374692
         5.76e-06       4858.374692
         5.78e-06       4858.374692
          5.8e-06        4861.44007
         5.82e-06        4861.44007
         5.84e-06        4861.44007
         5.86e-06        4861.44007
         5.88e-06        4861.44007
          5.9e-06       4845.341832
         5.92e-06       4845.341832
         5.94e-06       4845.341832
         5.96e-06       4845.341832
         5.98e-06       4845.341832
            6e-06       4848.355106
         6.02e-06       4848.355106
         6.04e-06       4848.355106
         6.06e-06       4848.355106
         6.08e-06       4848.355106
          6.1e-06       4846.813347
         6.12e-06       4846.813347
         6.14e-06       4846.813347
         6.16e-06       4846.813347
         6.18e-06       4846.813347
          6.2e-06        4850.12274
         6.22e-06        4850.12274
         6.24e-06        4850.12274
         6.26e-06        4850.12274
         6.28e-06        4850.12274
          6.3e-06       4861.315631
         6.32e-06       4861.315631
         6.34e-06       4861.315631
         6.36e-06       4861.315631
         6.38e-06       4861.315631
          6.4e-06       4848.048142
         6.42e-06       4848.048142
         6.44e-06       4848.048142
         6.46e-06       4848.048142
         6.48e-06       4848.048142
          6.5e-06        4829.45203
         6.52e-06        4829.45203
         6.54e-06        4829.45203
         6.56e-06        4829.45203
         6.58e-06        4829.45203
          6.6e-06       4842.322997
         6.62e-06       4842.322997
         6.64e-06       4842.322997
         6.66e-06       4842.322997
         6.68e-06       4842.322997
          6.7e-06       4838.457648
         6.72e-06       4838.457648
         6.74e-06       4838.457648
         6.76e-06       4838.457648
         6.78e-06       4838.457648
          6.8e-06       4838.585717
         6.82e-06       4838.585717
         6.84e-06       4838.585717
         6.86e-06       4838.585717
         6.88e-06       4838.585717
          6.9e-06       4857.821347
         6.92e-06       4857.821347
         6.94e-06       4857.821347
         6.96e-06       4857.821347
         6.98e-06       4857.821347
            7e-06       4842.170412
         7.02e-06       4842.170412
         7.04e-06       4842.170412
         7.06e-06       4842.170412
         7.08e-06       4842.170412
          7.1e-06       4824.700258
         7.12e-06       4824.700258
         7.14e-06       4824.700258
         7.16e-06       4824.700258
         7.18e-06       4824.700258
          7.2e-06       4824.219244
         7.22e-06       4824.219244
         7.24e-06       4824.219244
         7.26e-06       4824.219244
         7.28e-06       4824.219244
          7.3e-06       4815.976049
         7.32e-06       4815.976049
         7.34e-06       4815.976049
         7.36e-06       4815.976049
         7.38e-06       4815.976049
          7.4e-06       4823.181231
         7.42e-06       4823.181231
         7.44e-06       4823.181231
         7.46e-06       4823.181231
         7.48e-06       4823.181231
          7.5e-06       4801.912007
         7.52e-06       4801.912007
         7.54e-06       4801.912007
         7.56e-06       4801.912007
         7.58e-06       4801.912007
          7.6e-06       4805.203803
         7.62e-06       4805.203803
         7.64e-06       4805.203803
         7.66e-06       4805.203803
         7.68e-06       4805.203803
          7.7e-06       4807.522303
         7.72e-06       4807.522303
         7.74e-06       4807.522303
         7.76e-06       4807.522303
         7.78e-06       4807.522303
          7.8e-06       4814.918813
         7.82e-06       4814.918813
         7.84e-06       4814.918813
         7.86e-06       4814.918813
         7.88e-06       4814.918813
          7.9e-06       4804.892077
         7.92e-06       4804.892077
         7.94e-06       4804.892077
         7.96e-06       4804.892077
         7.98e-06       4804.892077
            8e-06       4789.370115
         8.02e-06       4789.370115
         8.04e-06       4789.370115
         8.06e-06       4789.370115
         8.08e-06       4789.370115
          8.1e-06       4793.854575
         8.12e-06       4793.854575
         8.14e-06       4793.854575
         8.16e-06       4793.854575
         8.18e-06       4793.854575
          8.2e-06       4792.188715
         8.22e-06       4792.188715
         8.24e-06       4792.188715
         8.26e-06       4792.188715
         8.28e-06       4792.188715
          8.3e-06       4779.214924
         8.32e-06       4779.214924
         8.34e-06       4779.214924
         8.36e-06       4779.214924
         8.38e-06       4779.214924
          8.4e-06       4789.856024
         8.42e-06       4789.856024
         8.44e-06       4789.856024
         8.46e-06       4789.856024
         8.48e-06       4789.856024
          8.5e-06       4796.991296
         8.52e-06       4796.991296
         8.54e-06       4796.991296
         8.56e-06       4796.991296
         8.58e-06       4796.991296
          8.6e-06       4785.844795
         8.62e-06       4785.844795
         8.64e-06       4785.844795
         8.66e-06       4785.844795
         8.68e-06       4785.844795
          8.7e-06       4786.129375
         8.72e-06       4786.129375
         8.74e-06       4786.129375
         8.76e-06       4786.129375
         8.78e-06       4786.129375
          8.8e-06       4791.442474
         8.82e-06       4791.442474
         8.84e-06       4791.442474
         8.86e-06       4791.442474
         8.88e-06       4791.442474
          8.9e-06       4797.039744
         8.92e-06       4797.039744
         8.94e-06       4797.039744
         8.96e-06       4797.039744
         8.98e-06       4797.039744
            9e-06       4782.477957
         9.02e-06       4782.477957
         9.04e-06       4782.477957
         9.06e-06       4782.477957
         9.08e-06       4782.477957
          9.1e-06       4769.124588
         9.12e-06       4769.124588
         9.14e-06       4769.124588
         9.16e-06       4769.124588
         9.18e-06       4769.124588
          9.2e-06       4760.506606
         9.22e-06       4760.506606
         9.24e-06       4760.506606
         9.26e-06       4760.506606
         9.28e-06       4760.506606
          9.3e-06       4777.831296
         9.32e-06       4777.831296
         9.34e-06       4777.831296
         9.36e-06       4777.831296
         9.38e-06       4777.831296
          9.4e-06        4764.50057
         9.42e-06        4764.50057
         9.44e-06        4764.50057
         9.46e-06        4764.50057
         9.48e-06        4764.50057
          9.5e-06        4753.22605
         9.52e-06        4753.22605
         9.54e-06        4753.22605
         9.56e-06        4753.22605
         9.58e-06        4753.22605
          9.6e-06       4763.109282
         9.62e-06       4763.109282
         9.64e-06       4763.109282
         9.66e-06       4763.109282
         9.68e-06       4763.109282
          9.7e-06        4795.00056
         9.72e-06        4795.00056
         9.74e-06        4795.00056
         9.76e-06        4795.00056
         9.78e-06        4795.00056
          9.8e-06       4771.821303
         9.82e-06       4771.821303
         9.84e-06       4771.821303
         9.86e-06       4771.821303
         9.88e-06       4771.821303
          9.9e-06       4755.589624
         9.92e-06       4755.589624
         9.94e-06       4755.589624
         9.96e-06       4755.589624
         9.98e-06       4755.589624
            1e-05        4777.75907
        1.002e-05        4777.75907
        1.004e-05        4777.75907
        1.006e-05        4777.75907
        1.008e-05        4777.75907
         1.01e-05       4758.928993
        1.012e-05       4758.928993
        1.014e-05       4758.928993
        1.016e-05       4758.928993
        1.018e-05       4758.928993
         1.02e-05       4746.981688
        1.022e-05       4746.981688
        1.024e-05       4746.981688
        1.026e-05       4746.981688
        1.028e-05       4746.981688
         1.03e-05       4747.389812
        1.032e-05       4747.389812
        1.034e-05       4747.389812
        1.036e-05       4747.389812
        1.038e-05       4747.389812
         1.04e-05       4744.551307
        1.042e-05       4744.551307
        1.044e-05       4744.551307
        1.046e-05       4744.551307
        1.048e-05       4744.551307
         1.05e-05       4746.583892
        1.052e-05       4746.583892
        1.054e-05       4746.583892
        1.056e-05       4746.583892
        1.058e-05       4746.583892
         1.06e-05       4743.367122
        1.062e-05       4743.367122
        1.064e-05       4743.367122
        1.066e-05       4743.367122
        1.068e-05       4743.367122
         1.07e-05       4726.265943
        1.072e-05       4726.265943
        1.074e-05       4726.265943
        1.076e-05       4726.265943
        1.078e-05       4726.265943
         1.08e-05        4736.52816
        1.082e-05        4736.52816
        1.084e-05        4736.52816
        1.086e-05        4736.52816
        1.088e-05        4736.52816
         1.09e-05       4733.594071
        1.092e-05       4733.594071
        1.094e-05       4733.594071
        1.096e-05       4733.594071
        1.098e-05       4733.594071
          1.1e-05       4729.324884
        1.102e-05       4729.324884
        1.104e-05       4729.324884
        1.106e-05       4729.324884
        1.108e-05       4729.324884
         1.11e-05       4735.540608
        1.112e-05       4735.540608
        1.114e-05       4735.540608
        1.116e-05       4735.540608
        1.118e-05       4735.540608
         1.12e-05       4722.273861
        1.122e-05       4722.273861
        1.124e-05       4722.273861
        1.126e-05       4722.273861
        1.128e-05       4722.273861
         1.13e-05       4718.345699
        1.132e-05       4718.345699
        1.134e-05       4718.345699
        1.136e-05       4718.345699
        1.138e-05       4718.345699
         1.14e-05       4707.859606
        1.142e-05       4707.859606
        1.144e-05       4707.859606
        1.146e-05       4707.859606
        1.148e-05       4707.859606
         1.15e-05       4706.165568
        1.152e-05       4706.165568
        1.154e-05       4706.165568
        1.156e-05       4706.165568
        1.158e-05       4706.165568
         1.16e-05       4712.222981
        1.162e-05       4712.222981
        1.164e-05       4712.222981
        1.166e-05       4712.222981
        1.168e-05       4712.222981
         1.17e-05       4707.559616
        1.172e-05       4707.559616
        1.174e-05       4707.559616
        1.176e-05       4707.559616
        1.178e-05       4707.559616
         1.18e-05       4702.343158
        1.182e-05       4702.343158
        1.184e-05       4702.343158
        1.186e-05       4702.343158
        1.188e-05       4702.343158
         1.19e-05       4705.019012
        1.192e-05       4705.019012
        1.194e-05       4705.019012
        1.196e-05       4705.019012
        1.198e-05       4705.019012
          1.2e-05       4716.988597
        1.202e-05       4716.988597
        1.204e-05       4716.988597
        1.206e-05       4716.988597
        1.208e-05       4716.988597
         1.21e-05       4696.229845
        1.212e-05       4696.229845
        1.214e-05       4696.229845
        1.216e-05       4696.229845
        1.218e-05       4696.229845
         1.22e-05       4696.229745
        1.222e-05       4696.229745
        1.224e-05       4696.229745
        1.226e-05       4696.229745
        1.228e-05       4696.229745
         1.23e-05       4697.421443
        1.232e-05       4697.421443
        1.234e-05       4697.421443
        1.236e-05       4697.421443
        1.238e-05       4697.421443
         1.24e-05       4704.869424
        1.242e-05       4704.869424
        1.244e-05       4704.869424
        1.246e-05       4704.869424
        1.248e-05       4704.869424
         1.25e-05       4690.229959
        1.252e-05       4690.229959
        1.254e-05       4690.229959
        1.256e-05       4690.229959
        1.258e-05       4690.229959
         1.26e-05        4694.51422
        1.262e-05        4694.51422
        1.264e-05        4694.51422
        1.266e-05        4694.51422
        1.268e-05        4694.51422
         1.27e-05       4691.978752
        1.272e-05       4691.978752
        1.274e-05       4691.978752
        1.276e-05       4691.978752
        1.278e-05       4691.978752
         1.28e-05        4689.58785
        1.282e-05        4689.58785
        1.284e-05        4689.58785
        1.286e-05        4689.58785
        1.288e-05        4689.58785
         1.29e-05       4687.584772
        1.292e-05       4687.584772
        1.294e-05       4687.584772
        1.296e-05       4687.584772
        1.298e-05       4687.584772
          1.3e-05       4677.222295
        1.302e-05       4677.222295
        1.304e-05       4677.222295
        1.306e-05       4677.222295
        1.308e-05       4677.222295
         1.31e-05        4675.41203
        1.312e-05        4675.41203
        1.314e-05        4675.41203
        1.316e-05        4675.41203
        1.318e-05        4675.41203
         1.32e-05       4668.581207
        1.322e-05       4668.581207
        1.324e-05       4668.581207
        1.326e-05       4668.581207
        1.328e-05       4668.581207
         1.33e-05       4662.209982
        1.332e-05       4662.209982
        1.334e-05       4662.209982
        1.336e-05       4662.209982
        1.338e-05       4662.209982
         1.34e-05       4678.025959
        1.342e-05       4678.025959
        1.344e-05       4678.025959
        1.346e-05       4678.025959
        1.348e-05       4678.025959
         1.35e-05       4676.178973
        1.352e-05       4676.178973
        1.354e-05       4676.178973
        1.356e-05       4676.178973
        1.358e-05       4676.178973
         1.36e-05       4684.192139
        1.362e-05       4684.192139
        1.364e-05       4684.192139
        1.366e-05       4684.192139
        1.368e-05       4684.192139
         1.37e-05       4669.948917
        1.372e-05       4669.948917
        1.374e-05       4669.948917
        1.376e-05       4669.948917
        1.378e-05       4669.948917
         1.38e-05       4674.752971
        1.382e-05       4674.752971
        1.384e-05       4674.752971
        1.386e-05       4674.752971
        1.388e-05       4674.752971
         1.39e-05       4659.567423
        1.392e-05       4659.567423
        1.394e-05       4659.567423
        1.396e-05       4659.567423
        1.398e-05       4659.567423
          1.4e-05       4656.010965
        1.402e-05       4656.010965
        1.404e-05       4656.010965
        1.406e-05       4656.010965
        1.408e-05       4656.010965
         1.41e-05       4656.213855
        1.412e-05       4656.213855
        1.414e-05       4656.213855
        1.416e-05       4656.213855
        1.418e-05       4656.213855
         1.42e-05       4646.430009
        1.422e-05       4646.430009
        1.424e-05       4646.430009
        1.426e-05       4646.430009
        1.428e-05       4646.430009
         1.43e-05       4653.657067
        1.432e-05       4653.657067
        1.434e-05       4653.657067
        1.436e-05       4653.657067
        1.438e-05       4653.657067
         1.44e-05       4642.495268
        1.442e-05       4642.495268
        1.444e-05       4642.495268
        1.446e-05       4642.495268
        1.448e-05       4642.495268
         1.45e-05       4652.142911
        1.452e-05       4652.142911
        1.454e-05       4652.142911
        1.456e-05       4652.142911
        1.458e-05       4652.142911
         1.46e-05       4647.312821
        1.462e-05       4647.312821
        1.464e-05       4647.312821
        1.466e-05       4647.312821
        1.468e-05       4647.312821
         1.47e-05       4631.319157
        1.472e-05       4631.319157
        1.474e-05       4631.319157
        1.476e-05       4631.319157
        1.478e-05       4631.319157
         1.48e-05       4643.575674
        1.482e-05       4643.575674
        1.484e-05       4643.575674
        1.486e-05       4643.575674
        1.488e-05       4643.575674
         1.49e-05       4650.545288
        1.492e-05       4650.545288
        1.494e-05       4650.545288
        1.496e-05       4650.545288
        1.498e-05       4650.545288
          1.5e-05       4631.133209
        1.502e-05       4631.133209
        1.504e-05       4631.133209
        1.506e-05       4631.133209
        1.508e-05       4631.133209
         1.51e-05       4630.673503
        1.512e-05       4630.673503
        1.514e-05       4630.673503
        1.516e-05       4630.673503
        1.518e-05       4630.673503
         1.52e-05       4635.602613
        1.522e-05       4635.602613
        1.524e-05       4635.602613
        1.526e-05       4635.602613
        1.528e-05       4635.602613
         1.53e-05       4643.687473
        1.532e-05       4643.687473
        1.534e-05       4643.687473
        1.536e-05       4643.687473
        1.538e-05       4643.687473
         1.54e-05       4640.737999
        1.542e-05       4640.737999
        1.544e-05       4640.737999
        1.546e-05       4640.737999
        1.548e-05       4640.737999
         1.55e-05       4639.018562
        1.552e-05       4639.018562
        1.554e-05       4639.018562
        1.556e-05       4639.018562
        1.558e-05       4639.018562
         1.56e-05       4627.214648
        1.562e-05       4627.214648
        1.564e-05       4627.214648
        1.566e-05       4627.214648
        1.568e-05       4627.214648
         1.57e-05       4638.795705
        1.572e-05       4638.795705
        1.574e-05       4638.795705
        1.576e-05       4638.795705
        1.578e-05       4638.795705
         1.58e-05       4631.251316
        1.582e-05       4631.251316
        1.584e-05       4631.251316
        1.586e-05       4631.251316
        1.588e-05       4631.251316
         1.59e-05       4623.163119
        1.592e-05       4623.163119
        1.594e-05       4623.163119
        1.596e-05       4623.163119
        1.598e-05       4623.163119
          1.6e-05       4628.962636
        1.602e-05       4628.962636
        1.604e-05       4628.962636
        1.606e-05       4628.962636
        1.608e-05       4628.962636
         1.61e-05       4634.380207
        1.612e-05       4634.380207
        1.614e-05       4634.380207
        1.616e-05       4634.380207
        1.618e-05       4634.380207
         1.62e-05       4623.993456
        1.622e-05       4623.993456
        1.624e-05       4623.993456
        1.626e-05       4623.993456
        1.628e-05       4623.993456
         1.63e-05       4626.215341
        1.632e-05       4626.215341
        1.634e-05       4626.215341
        1.636e-05       4626.215341
        1.638e-05       4626.215341
         1.64e-05       4613.314741
        1.642e-05       4613.314741
        1.644e-05       4613.314741
        1.646e-05       4613.314741
        1.648e-05       4613.314741
         1.65e-05       4608.797771
        1.652e-05       4608.797771
        1.654e-05       4608.797771
        1.656e-05       4608.797771
        1.658e-05       4608.797771
         1.66e-05       4617.299138
        1.662e-05       4617.299138