# Probe 0 (5e-06 5e-06 5e-06)
#           Probe                 0
#            Time
            2e-08                 0
            4e-08                 0
            6e-08                 0
            8e-08                 0
            1e-07       364.2859319
          1.2e-07       364.2859319
          1.4e-07       364.2859319
          1.6e-07       364.2859319
          1.8e-07       364.2859319
            2e-07       430.4346288
          2.2e-07       430.4346288
          2.4e-07       430.4346288
          2.6e-07       430.4346288
          2.8e-07       430.4346288
            3e-07       478.4855164
          3.2e-07       478.4855164
          3.4e-07       478.4855164
          3.6e-07       478.4855164
          3.8e-07       478.4855164
            4e-07        519.916558
          4.2e-07        519.916558
          4.4e-07        519.916558
          4.6e-07        519.916558
          4.8e-07        519.916558
            5e-07        548.325783
          5.2e-07        548.325783
          5.4e-07        548.325783
          5.6e-07        548.325783
          5.8e-07        548.325783
            6e-07       575.5049953
          6.2e-07       575.5049953
          6.4e-07       575.5049953
          6.6e-07       575.5049953
          6.8e-07       575.5049953
            7e-07       599.4319981
          7.2e-07       599.4319981
          7.4e-07       599.4319981
          7.6e-07       599.4319981
          7.8e-07       599.4319981
            8e-07       622.3648747
          8.2e-07       622.3648747
          8.4e-07       622.3648747
          8.6e-07       622.3648747
          8.8e-07       622.3648747
            9e-07       641.2316805
          9.2e-07       641.2316805
          9.4e-07       641.2316805
          9.6e-07       641.2316805
          9.8e-07       641.2316805
            1e-06       658.7061421
         1.02e-06       658.7061421
         1.04e-06       658.7061421
         1.06e-06       658.7061421
         1.08e-06       658.7061421
          1.1e-06        676.685098
         1.12e-06        676.685098
         1.14e-06        676.685098
         1.16e-06        676.685098
         1.18e-06        676.685098
          1.2e-06       694.1218154
         1.22e-06       694.1218154
         1.24e-06       694.1218154
         1.26e-06       694.1218154
         1.28e-06       694.1218154
          1.3e-06       710.0640145
         1.32e-06       710.0640145
         1.34e-06       710.0640145
         1.36e-06       710.0640145
         1.38e-06       710.0640145
          1.4e-06       727.8162057
         1.42e-06       727.8162057
         1.44e-06       727.8162057
         1.46e-06       727.8162057
         1.48e-06       727.8162057
          1.5e-06       743.0297389
         1.52e-06       743.0297389
         1.54e-06       743.0297389
         1.56e-06       743.0297389
         1.58e-06       743.0297389
          1.6e-06       758.9330038
         1.62e-06       758.9330038
         1.64e-06       758.9330038
         1.66e-06       758.9330038
         1.68e-06       758.9330038
          1.7e-06       771.6871732
         1.72e-06       771.6871732
         1.74e-06       771.6871732
         1.76e-06       771.6871732
         1.78e-06       771.6871732
          1.8e-06       785.4825048
         1.82e-06       785.4825048
         1.84e-06       785.4825048
         1.86e-06       785.4825048
         1.88e-06       785.4825048
          1.9e-06       800.8496458
         1.92e-06       800.8496458
         1.94e-06       800.8496458
         1.96e-06       800.8496458
         1.98e-06       800.8496458
            2e-06       813.7185204
         2.02e-06       813.7185204
         2.04e-06       813.7185204
         2.06e-06       813.7185204
         2.08e-06       813.7185204
          2.1e-06       827.9713904
         2.12e-06       827.9713904
         2.14e-06       827.9713904
         2.16e-06       827.9713904
         2.18e-06       827.9713904
          2.2e-06       840.1275487
         2.22e-06       840.1275487
         2.24e-06       840.1275487
         2.26e-06       840.1275487
         2.28e-06       840.1275487
          2.3e-06       853.2808948
         2.32e-06       853.2808948
         2.34e-06       853.2808948
         2.36e-06       853.2808948
         2.38e-06       853.2808948
          2.4e-06       865.7696667
         2.42e-06       865.7696667
         2.44e-06       865.7696667
         2.46e-06       865.7696667
         2.48e-06       865.7696667
          2.5e-06       876.8206013
         2.52e-06       876.8206013
         2.54e-06       876.8206013
         2.56e-06       876.8206013
         2.58e-06       876.8206013
          2.6e-06       890.3951974
         2.62e-06       890.3951974
         2.64e-06       890.3951974
         2.66e-06       890.3951974
         2.68e-06       890.3951974
          2.7e-06       903.4535572
         2.72e-06       903.4535572
         2.74e-06       903.4535572
         2.76e-06       903.4535572
         2.78e-06       903.4535572
          2.8e-06       917.6425985
         2.82e-06       917.6425985
         2.84e-06       917.6425985
         2.86e-06       917.6425985
         2.88e-06       917.6425985
          2.9e-06       929.7890476
         2.92e-06       929.7890476
         2.94e-06       929.7890476
         2.96e-06       929.7890476
         2.98e-06       929.7890476
            3e-06       941.2957972
         3.02e-06       941.2957972
         3.04e-06       941.2957972
         3.06e-06       941.2957972
         3.08e-06       941.2957972
          3.1e-06           952.617
         3.12e-06           952.617
         3.14e-06           952.617
         3.16e-06           952.617
         3.18e-06           952.617
          3.2e-06       963.9287626
         3.22e-06       963.9287626
         3.24e-06       963.9287626
         3.26e-06       963.9287626
         3.28e-06       963.9287626
          3.3e-06       976.2092316
         3.32e-06       976.2092316
         3.34e-06       976.2092316
         3.36e-06       976.2092316
         3.38e-06       976.2092316
          3.4e-06       985.4106853
         3.42e-06       985.4106853
         3.44e-06       985.4106853
         3.46e-06       985.4106853
         3.48e-06       985.4106853
          3.5e-06       995.1222136
         3.52e-06       995.1222136
         3.54e-06       995.1222136
         3.56e-06       995.1222136
         3.58e-06       995.1222136
          3.6e-06       1005.603605
         3.62e-06       1005.603605
         3.64e-06       1005.603605
         3.66e-06       1005.603605
         3.68e-06       1005.603605
          3.7e-06       1017.406921
         3.72e-06       1017.406921
         3.74e-06       1017.406921
         3.76e-06       1017.406921
         3.78e-06       1017.406921
          3.8e-06       1026.477336
         3.82e-06       1026.477336
         3.84e-06       1026.477336
         3.86e-06       1026.477336
         3.88e-06       1026.477336
          3.9e-06       1036.359781
         3.92e-06       1036.359781
         3.94e-06       1036.359781
         3.96e-06       1036.359781
         3.98e-06       1036.359781
            4e-06       1047.339915
         4.02e-06       1047.339915
         4.04e-06       1047.339915
         4.06e-06       1047.339915
         4.08e-06       1047.339915
          4.1e-06       1058.179322
         4.12e-06       1058.179322
         4.14e-06       1058.179322
         4.16e-06       1058.179322
         4.18e-06       1058.179322
          4.2e-06       1068.346831
         4.22e-06       1068.346831
         4.24e-06       1068.346831
         4.26e-06       1068.346831
         4.28e-06       1068.346831
          4.3e-06       1076.945378
         4.32e-06       1076.945378
         4.34e-06       1076.945378
         4.36e-06       1076.945378
         4.38e-06       1076.945378
          4.4e-06       1086.519184
         4.42e-06       1086.519184
         4.44e-06       1086.519184
         4.46e-06       1086.519184
         4.48e-06       1086.519184
          4.5e-06       1096.252464
         4.52e-06       1096.252464
         4.54e-06       1096.252464
         4.56e-06       1096.252464
         4.58e-06       1096.252464
          4.6e-06       1104.672722
         4.62e-06       1104.672722
         4.64e-06       1104.672722
         4.66e-06       1104.672722
         4.68e-06       1104.672722
          4.7e-06        1112.99483
         4.72e-06        1112.99483
         4.74e-06        1112.99483
         4.76e-06        1112.99483
         4.78e-06        1112.99483
          4.8e-06       1122.615241
         4.82e-06       1122.615241
         4.84e-06       1122.615241
         4.86e-06       1122.615241
         4.88e-06       1122.615241
          4.9e-06       1132.289534
         4.92e-06       1132.289534
         4.94e-06       1132.289534
         4.96e-06       1132.289534
         4.98e-06       1132.289534
            5e-06       1143.451998
         5.02e-06       1143.451998
         5.04e-06       1143.451998
         5.06e-06       1143.451998
         5.08e-06       1143.451998
          5.1e-06       1154.720356
         5.12e-06       1154.720356
         5.14e-06       1154.720356
         5.16e-06       1154.720356
         5.18e-06       1154.720356
          5.2e-06       1164.450713
         5.22e-06       1164.450713
         5.24e-06       1164.450713
         5.26e-06       1164.450713
         5.28e-06       1164.450713
          5.3e-06       1172.995574
         5.32e-06       1172.995574
         5.34e-06       1172.995574
         5.36e-06       1172.995574
         5.38e-06       1172.995574
          5.4e-06       1181.692261
         5.42e-06       1181.692261
         5.44e-06       1181.692261
         5.46e-06       1181.692261
         5.48e-06       1181.692261
          5.5e-06       1190.817042
         5.52e-06       1190.817042
         5.54e-06       1190.817042
         5.56e-06       1190.817042
         5.58e-06       1190.817042
          5.6e-06       1201.884217
         5.62e-06       1201.884217
         5.64e-06       1201.884217
         5.66e-06       1201.884217
         5.68e-06       1201.884217
          5.7e-06       1210.971104
         5.72e-06       1210.971104
         5.74e-06       1210.971104
         5.76e-06       1210.971104
         5.78e-06       1210.971104
          5.8e-06       1220.854146
         5.82e-06       1220.854146
         5.84e-06       1220.854146
         5.86e-06       1220.854146
         5.88e-06       1220.854146
          5.9e-06       1228.174394
         5.92e-06       1228.174394
         5.94e-06       1228.174394
         5.96e-06       1228.174394
         5.98e-06       1228.174394
            6e-06       1235.282212
         6.02e-06       1235.282212
         6.04e-06       1235.282212
         6.06e-06       1235.282212
         6.08e-06       1235.282212
          6.1e-06       1243.806827
         6.12e-06       1243.806827
         6.14e-06       1243.806827
         6.16e-06       1243.806827
         6.18e-06       1243.806827
          6.2e-06       1250.726889
         6.22e-06       1250.726889
         6.24e-06       1250.726889
         6.26e-06       1250.726889
         6.28e-06       1250.726889
          6.3e-06       1257.586273
         6.32e-06       1257.586273
         6.34e-06       1257.586273
         6.36e-06       1257.586273
         6.38e-06       1257.586273
          6.4e-06       1265.653467
         6.42e-06       1265.653467
         6.44e-06       1265.653467
         6.46e-06       1265.653467
         6.48e-06       1265.653467
          6.5e-06       1273.764719
         6.52e-06       1273.764719
         6.54e-06       1273.764719
         6.56e-06       1273.764719
         6.58e-06       1273.764719
          6.6e-06       1282.186958
         6.62e-06       1282.186958
         6.64e-06       1282.186958
         6.66e-06       1282.186958
         6.68e-06       1282.186958
          6.7e-06       1290.998566
         6.72e-06       1290.998566
         6.74e-06       1290.998566
         6.76e-06       1290.998566
         6.78e-06       1290.998566
          6.8e-06       1298.823985
         6.82e-06       1298.823985
         6.84e-06       1298.823985
         6.86e-06       1298.823985
         6.88e-06       1298.823985
          6.9e-06       1307.512292
         6.92e-06       1307.512292
         6.94e-06       1307.512292
         6.96e-06       1307.512292
         6.98e-06       1307.512292
            7e-06       1315.181773
         7.02e-06       1315.181773
         7.04e-06       1315.181773
         7.06e-06       1315.181773
         7.08e-06       1315.181773
          7.1e-06       1324.093629
         7.12e-06       1324.093629
         7.14e-06       1324.093629
         7.16e-06       1324.093629
         7.18e-06       1324.093629
          7.2e-06       1332.835427
         7.22e-06       1332.835427
         7.24e-06       1332.835427
         7.26e-06       1332.835427
         7.28e-06       1332.835427
          7.3e-06       1340.289755
         7.32e-06       1340.289755
         7.34e-06       1340.289755
         7.36e-06       1340.289755
         7.38e-06       1340.289755
          7.4e-06       1349.176348
         7.42e-06       1349.176348
         7.44e-06       1349.176348
         7.46e-06       1349.176348
         7.48e-06       1349.176348
          7.5e-06       1358.579277
         7.52e-06       1358.579277
         7.54e-06       1358.579277
         7.56e-06       1358.579277
         7.58e-06       1358.579277
          7.6e-06       1366.984821
         7.62e-06       1366.984821
         7.64e-06       1366.984821
         7.66e-06       1366.984821
         7.68e-06       1366.984821
          7.7e-06       1375.311772
         7.72e-06       1375.311772
         7.74e-06       1375.311772
         7.76e-06       1375.311772
         7.78e-06       1375.311772
          7.8e-06       1384.110284
         7.82e-06       1384.110284
         7.84e-06       1384.110284
         7.86e-06       1384.110284
         7.88e-06       1384.110284
          7.9e-06       1391.878994
         7.92e-06       1391.878994
         7.94e-06       1391.878994
         7.96e-06       1391.878994
         7.98e-06       1391.878994
            8e-06       1398.374368
         8.02e-06       1398.374368
         8.04e-06       1398.374368
         8.06e-06       1398.374368
         8.08e-06       1398.374368
          8.1e-06       1404.506352
         8.12e-06       1404.506352
         8.14e-06       1404.506352
         8.16e-06       1404.506352
         8.18e-06       1404.506352
          8.2e-06       1411.983574
         8.22e-06       1411.983574
         8.24e-06       1411.983574
         8.26e-06       1411.983574
         8.28e-06       1411.983574
          8.3e-06       1418.895614
         8.32e-06       1418.895614
         8.34e-06       1418.895614
         8.36e-06       1418.895614
         8.38e-06       1418.895614
          8.4e-06       1427.487525
         8.42e-06       1427.487525
         8.44e-06       1427.487525
         8.46e-06       1427.487525
         8.48e-06       1427.487525
          8.5e-06       1435.755205
         8.52e-06       1435.755205
         8.54e-06       1435.755205
         8.56e-06       1435.755205
         8.58e-06       1435.755205
          8.6e-06       1443.657091
         8.62e-06       1443.657091
         8.64e-06       1443.657091
         8.66e-06       1443.657091
         8.68e-06       1443.657091
          8.7e-06       1450.129188
         8.72e-06       1450.129188
         8.74e-06       1450.129188
         8.76e-06       1450.129188
         8.78e-06       1450.129188
          8.8e-06       1458.916831
         8.82e-06       1458.916831
         8.84e-06       1458.916831
         8.86e-06       1458.916831
         8.88e-06       1458.916831
          8.9e-06       1467.602118
         8.92e-06       1467.602118
         8.94e-06       1467.602118
         8.96e-06       1467.602118
         8.98e-06       1467.602118
            9e-06       1476.131424
         9.02e-06       1476.131424
         9.04e-06       1476.131424
         9.06e-06       1476.131424
         9.08e-06       1476.131424
          9.1e-06       1483.862886
         9.12e-06       1483.862886
         9.14e-06       1483.862886
         9.16e-06       1483.862886
         9.18e-06       1483.862886
          9.2e-06       1490.834008
         9.22e-06       1490.834008
         9.24e-06       1490.834008
         9.26e-06       1490.834008
         9.28e-06       1490.834008
          9.3e-06        1496.77721
         9.32e-06        1496.77721
         9.34e-06        1496.77721
         9.36e-06        1496.77721
         9.38e-06        1496.77721
          9.4e-06       1502.321139
         9.42e-06       1502.321139
         9.44e-06       1502.321139
         9.46e-06       1502.321139
         9.48e-06       1502.321139
          9.5e-06       1509.564317
         9.52e-06       1509.564317
         9.54e-06       1509.564317
         9.56e-06       1509.564317
         9.58e-06       1509.564317
          9.6e-06       1516.605766
         9.62e-06       1516.605766
         9.64e-06       1516.605766
         9.66e-06       1516.605766
         9.68e-06       1516.605766
          9.7e-06        1523.94873
         9.72e-06        1523.94873
         9.74e-06        1523.94873
         9.76e-06        1523.94873
         9.78e-06        1523.94873
          9.8e-06       1532.550983
         9.82e-06       1532.550983
         9.84e-06       1532.550983
         9.86e-06       1532.550983
         9.88e-06       1532.550983
          9.9e-06       1538.925717
         9.92e-06       1538.925717
         9.94e-06       1538.925717
         9.96e-06       1538.925717
         9.98e-06       1538.925717
            1e-05       1544.711056
        1.002e-05       1544.711056
        1.004e-05       1544.711056
        1.006e-05       1544.711056
        1.008e-05       1544.711056
         1.01e-05       1552.549186
        1.012e-05       1552.549186
        1.014e-05       1552.549186
        1.016e-05       1552.549186
        1.018e-05       1552.549186
         1.02e-05       1559.849076
        1.022e-05       1559.849076
        1.024e-05       1559.849076
        1.026e-05       1559.849076
        1.028e-05       1559.849076
         1.03e-05       1566.511821
        1.032e-05       1566.511821
        1.034e-05       1566.511821
        1.036e-05       1566.511821
        1.038e-05       1566.511821
         1.04e-05       1573.175786
        1.042e-05       1573.175786
        1.044e-05       1573.175786
        1.046e-05       1573.175786
        1.048e-05       1573.175786
         1.05e-05       1581.083448
        1.052e-05       1581.083448
        1.054e-05       1581.083448
        1.056e-05       1581.083448
        1.058e-05       1581.083448
         1.06e-05       1589.877605
        1.062e-05       1589.877605
        1.064e-05       1589.877605
        1.066e-05       1589.877605
        1.068e-05       1589.877605
         1.07e-05       1597.263972
        1.072e-05       1597.263972
        1.074e-05       1597.263972
        1.076e-05       1597.263972
        1.078e-05       1597.263972
         1.08e-05       1602.686391
        1.082e-05       1602.686391
        1.084e-05       1602.686391
        1.086e-05       1602.686391
        1.088e-05       1602.686391
         1.09e-05       1609.391246
        1.092e-05       1609.391246
        1.094e-05       1609.391246
        1.096e-05       1609.391246
        1.098e-05       1609.391246
          1.1e-05       1616.182541
        1.102e-05       1616.182541
        1.104e-05       1616.182541
        1.106e-05       1616.182541
        1.108e-05       1616.182541
         1.11e-05       1623.287363
        1.112e-05       1623.287363
        1.114e-05       1623.287363
        1.116e-05       1623.287363
        1.118e-05       1623.287363
         1.12e-05       1631.111013
        1.122e-05       1631.111013
        1.124e-05       1631.111013
        1.126e-05       1631.111013
        1.128e-05       1631.111013
         1.13e-05       1637.215005
        1.132e-05       1637.215005
        1.134e-05       1637.215005
        1.136e-05       1637.215005
        1.138e-05       1637.215005
         1.14e-05       1643.965052
        1.142e-05       1643.965052
        1.144e-05       1643.965052
        1.146e-05       1643.965052
        1.148e-05       1643.965052
         1.15e-05       1650.890752
        1.152e-05       1650.890752
        1.154e-05       1650.890752
        1.156e-05       1650.890752
        1.158e-05       1650.890752
         1.16e-05       1657.324417
        1.162e-05       1657.324417
        1.164e-05       1657.324417
        1.166e-05       1657.324417
        1.168e-05       1657.324417
         1.17e-05       1665.088463
        1.172e-05       1665.088463
        1.174e-05       1665.088463
        1.176e-05       1665.088463
        1.178e-05       1665.088463
         1.18e-05        1671.80442
        1.182e-05        1671.80442
        1.184e-05        1671.80442
        1.186e-05        1671.80442
        1.188e-05        1671.80442
         1.19e-05       1678.365897
        1.192e-05       1678.365897
        1.194e-05       1678.365897
        1.196e-05       1678.365897
        1.198e-05       1678.365897
          1.2e-05       1686.451387
        1.202e-05       1686.451387
        1.204e-05       1686.451387
        1.206e-05       1686.451387
        1.208e-05       1686.451387
         1.21e-05       1693.476529
        1.212e-05       1693.476529
        1.214e-05       1693.476529
        1.216e-05       1693.476529
        1.218e-05       1693.476529
         1.22e-05       1698.970665
        1.222e-05       1698.970665
        1.224e-05       1698.970665
        1.226e-05       1698.970665
        1.228e-05       1698.970665
         1.23e-05       1704.704616
        1.232e-05       1704.704616
        1.234e-05       1704.704616
        1.236e-05       1704.704616
        1.238e-05       1704.704616
         1.24e-05       1711.161791
        1.242e-05       1711.161791
        1.244e-05       1711.161791
        1.246e-05       1711.161791
        1.248e-05       1711.161791
         1.25e-05       1718.090412
        1.252e-05       1718.090412
        1.254e-05       1718.090412
        1.256e-05       1718.090412
        1.258e-05       1718.090412
         1.26e-05       1723.795974
        1.262e-05       1723.795974
        1.264e-05       1723.795974
        1.266e-05       1723.795974
        1.268e-05       1723.795974
         1.27e-05       1728.816477
        1.272e-05       1728.816477
        1.274e-05       1728.816477
        1.276e-05       1728.816477
        1.278e-05       1728.816477
         1.28e-05       1734.315202
        1.282e-05       1734.315202
        1.284e-05       1734.315202
        1.286e-05       1734.315202
        1.288e-05       1734.315202
         1.29e-05       1740.549949
        1.292e-05       1740.549949
        1.294e-05       1740.549949
        1.296e-05       1740.549949
        1.298e-05       1740.549949
          1.3e-05       1745.903965
        1.302e-05       1745.903965
        1.304e-05       1745.903965
        1.306e-05       1745.903965
        1.308e-05       1745.903965
         1.31e-05       1750.896692
        1.312e-05       1750.896692
        1.314e-05       1750.896692
        1.316e-05       1750.896692
        1.318e-05       1750.896692
         1.32e-05       1758.561997
        1.322e-05       1758.561997
        1.324e-05       1758.561997
        1.326e-05       1758.561997
        1.328e-05       1758.561997
         1.33e-05       1765.465017
        1.332e-05       1765.465017
        1.334e-05       1765.465017
        1.336e-05       1765.465017
        1.338e-05       1765.465017
         1.34e-05       1772.335115
        1.342e-05       1772.335115
        1.344e-05       1772.335115
        1.346e-05       1772.335115
        1.348e-05       1772.335115
         1.35e-05       1778.863466
        1.352e-05       1778.863466
        1.354e-05       1778.863466
        1.356e-05       1778.863466
        1.358e-05       1778.863466
         1.36e-05       1785.226062
        1.362e-05       1785.226062
        1.364e-05       1785.226062
        1.366e-05       1785.226062
        1.368e-05       1785.226062
         1.37e-05       1792.194489
        1.372e-05       1792.194489
        1.374e-05       1792.194489
        1.376e-05       1792.194489
        1.378e-05       1792.194489
         1.38e-05        1798.24185
        1.382e-05        1798.24185
        1.384e-05        1798.24185
        1.386e-05        1798.24185
        1.388e-05        1798.24185
         1.39e-05       1803.673359
        1.392e-05       1803.673359
        1.394e-05       1803.673359
        1.396e-05       1803.673359
        1.398e-05       1803.673359
          1.4e-05       1809.572463
        1.402e-05       1809.572463
        1.404e-05       1809.572463
        1.406e-05       1809.572463
        1.408e-05       1809.572463
         1.41e-05       1814.908248
        1.412e-05       1814.908248
        1.414e-05       1814.908248
        1.416e-05       1814.908248
        1.418e-05       1814.908248
         1.42e-05       1821.299855
        1.422e-05       1821.299855
        1.424e-05       1821.299855
        1.426e-05       1821.299855
        1.428e-05       1821.299855
         1.43e-05       1827.624494
        1.432e-05       1827.624494
        1.434e-05       1827.624494
        1.436e-05       1827.624494
        1.438e-05       1827.624494
         1.44e-05       1833.805731
        1.442e-05       1833.805731
        1.444e-05       1833.805731
        1.446e-05       1833.805731
        1.448e-05       1833.805731
         1.45e-05       1839.593753
        1.452e-05       1839.593753
        1.454e-05       1839.593753
        1.456e-05       1839.593753
        1.458e-05       1839.593753
         1.46e-05       1846.137589
        1.462e-05       1846.137589
        1.464e-05       1846.137589
        1.466e-05       1846.137589
        1.468e-05       1846.137589
         1.47e-05       1851.936575
        1.472e-05       1851.936575
        1.474e-05       1851.936575
        1.476e-05       1851.936575
        1.478e-05       1851.936575
         1.48e-05       1857.313421
        1.482e-05       1857.313421
        1.484e-05       1857.313421
        1.486e-05       1857.313421
        1.488e-05       1857.313421
         1.49e-05        1861.51546
        1.492e-05        1861.51546
        1.494e-05        1861.51546
        1.496e-05        1861.51546
        1.498e-05        1861.51546
          1.5e-05       1866.941651
        1.502e-05       1866.941651
        1.504e-05       1866.941651
        1.506e-05       1866.941651
        1.508e-05       1866.941651
         1.51e-05       1873.701333
        1.512e-05       1873.701333
        1.514e-05       1873.701333
        1.516e-05       1873.701333
        1.518e-05       1873.701333
         1.52e-05       1879.987908
        1.522e-05       1879.987908
        1.524e-05       1879.987908
        1.526e-05       1879.987908
        1.528e-05       1879.987908
         1.53e-05        1884.81257
        1.532e-05        1884.81257
        1.534e-05        1884.81257
        1.536e-05        1884.81257
        1.538e-05        1884.81257
         1.54e-05       1890.841888
        1.542e-05       1890.841888
        1.544e-05       1890.841888
        1.546e-05       1890.841888
        1.548e-05       1890.841888
         1.55e-05       1896.603131
        1.552e-05       1896.603131
        1.554e-05       1896.603131
        1.556e-05       1896.603131
        1.558e-05       1896.603131
         1.56e-05       1903.702781
        1.562e-05       1903.702781
        1.564e-05       1903.702781
        1.566e-05       1903.702781
        1.568e-05       1903.702781
         1.57e-05       1909.733481
        1.572e-05       1909.733481
        1.574e-05       1909.733481
        1.576e-05       1909.733481
        1.578e-05       1909.733481
         1.58e-05       1916.301056
        1.582e-05       1916.301056
        1.584e-05       1916.301056
        1.586e-05       1916.301056
        1.588e-05       1916.301056
         1.59e-05       1921.412957
        1.592e-05       1921.412957
        1.594e-05       1921.412957
        1.596e-05       1921.412957
        1.598e-05       1921.412957
          1.6e-05       1927.047172
        1.602e-05       1927.047172
        1.604e-05       1927.047172
        1.606e-05       1927.047172
        1.608e-05       1927.047172
         1.61e-05       1932.824105
        1.612e-05       1932.824105
        1.614e-05       1932.824105
        1.616e-05       1932.824105
        1.618e-05       1932.824105
         1.62e-05       1939.283266
        1.622e-05       1939.283266
        1.624e-05       1939.283266
        1.626e-05       1939.283266
        1.628e-05       1939.283266
         1.63e-05       1944.810151
        1.632e-05       1944.810151
        1.634e-05       1944.810151
        1.636e-05       1944.810151
        1.638e-05       1944.810151
         1.64e-05       1950.479695
        1.642e-05       1950.479695
        1.644e-05       1950.479695
        1.646e-05       1950.479695
        1.648e-05       1950.479695
         1.65e-05       1956.276551
        1.652e-05       1956.276551
        1.654e-05       1956.276551
        1.656e-05       1956.276551
        1.658e-05       1956.276551
         1.66e-05       1962.255848
        1.662e-05       1962.255848