# Probe 0 (5e-06 5e-06 5e-06)
#           Probe                 0
#            Time
            1e-08       9.939867355
            2e-08       22.51020858
            3e-08       31.84636142
            4e-08       41.66282645
            5e-08       51.10554476
            6e-08       63.93174153
            7e-08        76.5787093
            8e-08       82.78649907
            9e-08       90.49645514
            1e-07       97.65538264
          1.1e-07       111.2280836
          1.2e-07       120.1172691
          1.3e-07       130.8170468
          1.4e-07       141.0574302
          1.5e-07       150.3247973
          1.6e-07       158.0132714
          1.7e-07        167.465374
          1.8e-07       179.4214784
          1.9e-07        188.760448
            2e-07       201.3520847
          2.1e-07       209.4915698
          2.2e-07        222.829402
          2.3e-07       232.0602968
          2.4e-07        242.240332
          2.5e-07       253.8703289
          2.6e-07       268.9293768
          2.7e-07        277.018859
          2.8e-07       290.0358449
          2.9e-07       299.7583017
            3e-07       310.5410403
          3.1e-07       316.5931002
          3.2e-07       331.7733486
          3.3e-07       342.3548156
          3.4e-07       352.3523211
          3.5e-07       362.2579209
          3.6e-07       367.7889252
          3.7e-07       378.0925791
          3.8e-07       386.6100019
          3.9e-07       397.8000857
            4e-07       406.5969845
          4.1e-07        417.575509
          4.2e-07       425.2682672
          4.3e-07       432.1995859
          4.4e-07        442.645485
          4.5e-07       450.9858123
          4.6e-07       460.2111427
          4.7e-07       471.0622327
          4.8e-07       479.3319065
          4.9e-07       490.3280779
            5e-07       501.3911141
          5.1e-07       511.6586829
          5.2e-07       520.8745043
          5.3e-07       528.8179738
          5.4e-07       536.9934395
          5.5e-07       545.6941073
          5.6e-07       558.2879879
          5.7e-07       565.4592162
          5.8e-07       573.4565943
          5.9e-07       585.7547677
            6e-07       592.3182902
          6.1e-07        599.594029
          6.2e-07       610.0591327
          6.3e-07       622.1936505
          6.4e-07       631.8096276
          6.5e-07       640.7206396
          6.6e-07       644.9937863
          6.7e-07         651.74645
          6.8e-07       658.6364328
          6.9e-07       669.4930373
            7e-07       678.8128218
          7.1e-07       686.5089843
          7.2e-07       694.7025644
          7.3e-07       703.5694699
          7.4e-07       711.4536256
          7.5e-07        719.271214
          7.6e-07       727.4196919
          7.7e-07       737.9981723
          7.8e-07       747.0129832
          7.9e-07       763.3088554
            8e-07       771.4937059
          8.1e-07       780.3232754
          8.2e-07       788.7715671
          8.3e-07       797.1857243
          8.4e-07        810.798565
          8.5e-07       823.1297045
          8.6e-07       830.3128748
          8.7e-07       836.5137273
          8.8e-07       843.1954301
          8.9e-07       851.3649588
            9e-07       858.6794606
          9.1e-07       868.8775723
          9.2e-07       880.1467399
          9.3e-07       887.4945465
          9.4e-07       899.1712845
          9.5e-07       906.4881646
          9.6e-07       915.1543863
          9.7e-07       923.4357236
          9.8e-07       929.2393874
          9.9e-07       937.7339248
            1e-06       942.2811184
         1.01e-06       953.3827611
         1.02e-06       966.0526433
         1.03e-06       973.8463052
         1.04e-06        978.667136
         1.05e-06       986.3690857
         1.06e-06       995.9751056
         1.07e-06       1009.263514
         1.08e-06       1018.908186
         1.09e-06       1029.075549
          1.1e-06        1034.49396
         1.11e-06         1039.6642
         1.12e-06       1051.390046
         1.13e-06       1060.502173
         1.14e-06       1070.078388
         1.15e-06        1079.75301
         1.16e-06       1087.651078
         1.17e-06        1094.36295
         1.18e-06       1103.980492
         1.19e-06       1117.003191
          1.2e-06       1125.500556
         1.21e-06       1133.000636
         1.22e-06       1143.158312
         1.23e-06       1147.220064
         1.24e-06       1159.419778
         1.25e-06       1163.937367
         1.26e-06       1173.094544
         1.27e-06       1179.474845
         1.28e-06        1186.12403
         1.29e-06       1193.588155
          1.3e-06       1202.764964
         1.31e-06       1208.400695
         1.32e-06       1216.377698
         1.33e-06        1224.22834
         1.34e-06       1233.493436
         1.35e-06       1238.656834
         1.36e-06       1247.532701
         1.37e-06       1256.560425
         1.38e-06       1264.303744
         1.39e-06       1271.840977
          1.4e-06       1282.280599
         1.41e-06       1294.142916
         1.42e-06       1304.401903
         1.43e-06       1311.286145
         1.44e-06       1319.120847
         1.45e-06       1328.456767
         1.46e-06       1338.908548
         1.47e-06       1347.352818
         1.48e-06       1354.345811
         1.49e-06       1363.147536
          1.5e-06       1368.613297
         1.51e-06       1380.716244
         1.52e-06       1390.117257
         1.53e-06       1400.829916
         1.54e-06       1413.742268
         1.55e-06       1418.583154
         1.56e-06       1429.386956
         1.57e-06        1436.94212
         1.58e-06       1447.898589
         1.59e-06       1455.416948
          1.6e-06       1460.409034
         1.61e-06       1469.381924
         1.62e-06       1476.028499
         1.63e-06       1482.753809
         1.64e-06       1495.006074
         1.65e-06       1503.062847
         1.66e-06       1506.326605
         1.67e-06       1511.560242
         1.68e-06       1521.303882
         1.69e-06        1531.02731
          1.7e-06       1539.849668
         1.71e-06       1548.936563
         1.72e-06       1554.473372
         1.73e-06       1558.171647
         1.74e-06       1566.512863
         1.75e-06       1576.019985
         1.76e-06       1583.778351
         1.77e-06       1589.634502
         1.78e-06       1597.599988
         1.79e-06       1604.407643
          1.8e-06       1610.706915
         1.81e-06       1616.833663
         1.82e-06       1626.928008
         1.83e-06        1632.97822
         1.84e-06       1642.066356
         1.85e-06       1649.776569
         1.86e-06       1650.744193
         1.87e-06       1663.771427
         1.88e-06       1673.740687
         1.89e-06       1676.839609
          1.9e-06       1684.021564
         1.91e-06       1691.017886
         1.92e-06       1702.262324
         1.93e-06       1707.195467
         1.94e-06       1718.938585
         1.95e-06       1724.646362
         1.96e-06       1731.448931
         1.97e-06       1734.824217
         1.98e-06       1741.635802
         1.99e-06       1749.301795
            2e-06       1755.953289
         2.01e-06       1761.940375
         2.02e-06       1775.688677
         2.03e-06        1780.48779
         2.04e-06       1787.906648
         2.05e-06       1795.310878
         2.06e-06       1804.014323
         2.07e-06       1810.299187
         2.08e-06       1820.254571
         2.09e-06       1829.506143
          2.1e-06       1837.407505
         2.11e-06       1845.531204
         2.12e-06       1859.648871
         2.13e-06       1864.813527
         2.14e-06        1871.77982
         2.15e-06       1877.110042
         2.16e-06       1886.482177
         2.17e-06       1895.535188
         2.18e-06       1902.762775
         2.19e-06       1907.082063
          2.2e-06       1914.781791
         2.21e-06       1919.988697
         2.22e-06       1931.001454
         2.23e-06       1936.860398
         2.24e-06       1949.165158
         2.25e-06       1955.834229
         2.26e-06       1964.521877
         2.27e-06       1976.515086
         2.28e-06        1981.98566
         2.29e-06       1991.248828
          2.3e-06       1995.244246
         2.31e-06       2002.963015
         2.32e-06       2006.963065
         2.33e-06         2014.0644
         2.34e-06       2021.882809
         2.35e-06       2027.510632
         2.36e-06       2032.773148
         2.37e-06       2040.925745
         2.38e-06       2047.486047
         2.39e-06        2053.01539
          2.4e-06       2063.804109
         2.41e-06        2080.07948
         2.42e-06       2087.902116
         2.43e-06       2093.753746
         2.44e-06       2096.394757
         2.45e-06       2103.846711
         2.46e-06       2113.565905
         2.47e-06       2121.330717
         2.48e-06       2128.902924
         2.49e-06       2140.457705
          2.5e-06       2145.803206
         2.51e-06       2159.350828
         2.52e-06       2168.603189
         2.53e-06       2174.803248
         2.54e-06        2186.35992
         2.55e-06       2196.877508
         2.56e-06       2203.687798
         2.57e-06       2209.468554
         2.58e-06       2211.821524
         2.59e-06       2216.526258
          2.6e-06       2232.247567
         2.61e-06       2243.467375
         2.62e-06       2254.000129
         2.63e-06       2258.232092
         2.64e-06       2271.921068
         2.65e-06        2277.09369
         2.66e-06       2277.854085
         2.67e-06        2286.30158
         2.68e-06        2292.69288
         2.69e-06       2296.957288
          2.7e-06       2299.796748
         2.71e-06        2309.70276
         2.72e-06       2317.111474
         2.73e-06       2328.058408
         2.74e-06       2327.484024
         2.75e-06       2332.176227
         2.76e-06       2339.278152
         2.77e-06       2349.947696
         2.78e-06       2357.766562
         2.79e-06       2366.571139
          2.8e-06       2375.758819
         2.81e-06       2379.810298
         2.82e-06       2388.529568
         2.83e-06       2390.496142
         2.84e-06       2398.017511
         2.85e-06       2403.297053
         2.86e-06       2407.691712
         2.87e-06       2414.918885
         2.88e-06       2420.649071
         2.89e-06       2428.927578
          2.9e-06       2436.088352
         2.91e-06       2449.316085
         2.92e-06       2453.779939
         2.93e-06       2457.214777
         2.94e-06       2462.675089
         2.95e-06       2470.765333
         2.96e-06       2481.516701
         2.97e-06       2483.175751
         2.98e-06       2489.538694
         2.99e-06       2500.152996
            3e-06       2510.563338
         3.01e-06       2517.357695
         3.02e-06       2523.886863
         3.03e-06       2529.282587
         3.04e-06       2540.909043
         3.05e-06       2549.416832
         3.06e-06       2555.146082
         3.07e-06        2563.96382
         3.08e-06       2568.408787
         3.09e-06       2572.186218
          3.1e-06       2579.466138
         3.11e-06       2587.410681
         3.12e-06       2592.193279
         3.13e-06       2602.784144
         3.14e-06       2609.703828
         3.15e-06       2620.694715
         3.16e-06       2623.567591
         3.17e-06        2627.41615
         3.18e-06       2631.102519
         3.19e-06       2640.001555
          3.2e-06       2639.625152
         3.21e-06       2644.062194
         3.22e-06       2655.758189
         3.23e-06       2660.987905
         3.24e-06       2664.329373
         3.25e-06       2669.968702
         3.26e-06       2679.031263
         3.27e-06       2686.226743
         3.28e-06       2694.854954
         3.29e-06       2704.794393
          3.3e-06       2718.315357
         3.31e-06        2728.50994
         3.32e-06       2738.195051
         3.33e-06       2749.243688
         3.34e-06       2756.102157
         3.35e-06       2764.319897
         3.36e-06       2773.553185
         3.37e-06       2782.151498
         3.38e-06       2782.603216
         3.39e-06       2789.248452
          3.4e-06       2797.541309
         3.41e-06       2804.672948
         3.42e-06       2809.339882
         3.43e-06       2813.640996
         3.44e-06       2823.586796
         3.45e-06       2831.003238
         3.46e-06       2841.371019
         3.47e-06       2845.301655
         3.48e-06       2851.574256
         3.49e-06       2852.626366
          3.5e-06       2861.695607
         3.51e-06        2865.23072
         3.52e-06       2873.426304
         3.53e-06       2875.108249
         3.54e-06       2879.454581
         3.55e-06       2886.113715
         3.56e-06       2891.073274
         3.57e-06       2903.720347
         3.58e-06       2909.468729
         3.59e-06       2914.701033
          3.6e-06       2922.079313
         3.61e-06       2925.707192
         3.62e-06       2926.827146
         3.63e-06       2939.831156
         3.64e-06       2946.754151
         3.65e-06       2953.715556
         3.66e-06       2963.009698
         3.67e-06       2971.283736
         3.68e-06       2978.113339
         3.69e-06       2987.358245
          3.7e-06       2992.409767
         3.71e-06       2998.782258
         3.72e-06       3002.590208
         3.73e-06       3014.057361
         3.74e-06       3021.020277
         3.75e-06       3024.143218
         3.76e-06       3035.694822
         3.77e-06       3037.231271
         3.78e-06       3039.314701
         3.79e-06       3046.797611
          3.8e-06       3055.105076
         3.81e-06       3060.017102
         3.82e-06       3065.075002
         3.83e-06        3068.03522
         3.84e-06       3071.431303
         3.85e-06       3086.807222
         3.86e-06       3092.675249
         3.87e-06       3096.807885
         3.88e-06       3106.878636
         3.89e-06       3106.542222
          3.9e-06       3111.164368
         3.91e-06       3112.232594
         3.92e-06       3118.057476
         3.93e-06       3127.152438
         3.94e-06       3129.769662
         3.95e-06       3137.066748
         3.96e-06       3143.541443
         3.97e-06       3152.990402
         3.98e-06       3158.129262
         3.99e-06       3171.990742
            4e-06       3181.518122
         4.01e-06       3190.777425
         4.02e-06        3197.72033
         4.03e-06       3203.312635
         4.04e-06       3208.138102
         4.05e-06       3212.036381
         4.06e-06        3220.56874
         4.07e-06       3231.639359
         4.08e-06       3236.175895
         4.09e-06       3246.395877
          4.1e-06       3260.665463
         4.11e-06       3260.667104
         4.12e-06       3267.080074
         4.13e-06       3275.493152
         4.14e-06       3273.015397
         4.15e-06       3287.138626
         4.16e-06        3290.85048
         4.17e-06        3295.20143
         4.18e-06       3300.302088
         4.19e-06       3307.839151
          4.2e-06       3317.691461
         4.21e-06        3319.00922
         4.22e-06       3320.783972
         4.23e-06        3327.84113
         4.24e-06       3330.986975
         4.25e-06       3339.161439
         4.26e-06       3347.911269
         4.27e-06       3349.750432
         4.28e-06       3353.104563
         4.29e-06       3358.949424
          4.3e-06       3369.888688
         4.31e-06       3381.926097
         4.32e-06       3381.200003
         4.33e-06       3385.530461
         4.34e-06       3393.154643
         4.35e-06       3391.543554
         4.36e-06       3396.600493
         4.37e-06       3406.531647
         4.38e-06       3412.621735
         4.39e-06       3410.509629
          4.4e-06       3413.185869
         4.41e-06       3422.941683
         4.42e-06       3429.480708
         4.43e-06       3435.974621
         4.44e-06       3447.824994
         4.45e-06       3448.818567
         4.46e-06       3455.096283
         4.47e-06       3464.683559
         4.48e-06       3474.660054
         4.49e-06       3481.454654
          4.5e-06       3483.704554
         4.51e-06       3485.380302
         4.52e-06       3493.216123
         4.53e-06       3501.127083
         4.54e-06       3505.309021
         4.55e-06       3512.402417
         4.56e-06       3516.114375
         4.57e-06       3523.159908
         4.58e-06        3531.26709
         4.59e-06       3531.794962
          4.6e-06       3541.620656
         4.61e-06       3547.167183
         4.62e-06       3555.429059
         4.63e-06        3563.18101
         4.64e-06       3568.682403
         4.65e-06       3576.289819
         4.66e-06       3578.804038
         4.67e-06       3584.357425
         4.68e-06       3588.020302
         4.69e-06       3588.898403
          4.7e-06         3593.1397
         4.71e-06       3595.013244
         4.72e-06        3603.19999
         4.73e-06       3612.029974
         4.74e-06       3622.590291
         4.75e-06       3629.784928
         4.76e-06       3632.224759
         4.77e-06       3634.342169
         4.78e-06       3637.796677
         4.79e-06       3645.931682
          4.8e-06       3655.067521
         4.81e-06       3663.049903
         4.82e-06        3669.93746
         4.83e-06       3680.215005
         4.84e-06       3682.941545
         4.85e-06       3686.756691
         4.86e-06       3687.487829
         4.87e-06        3690.98222
         4.88e-06       3705.606272
         4.89e-06       3705.964179
          4.9e-06       3716.718949
         4.91e-06       3717.421524
         4.92e-06       3721.687241
         4.93e-06       3727.498724
         4.94e-06       3733.128059
         4.95e-06       3742.372441
         4.96e-06       3744.910316
         4.97e-06        3751.62378
         4.98e-06       3762.918414
         4.99e-06        3769.32008
            5e-06       3778.530768
         5.01e-06        3780.56962
         5.02e-06       3784.623987
         5.03e-06       3792.032647
         5.04e-06       3797.078596
         5.05e-06       3807.145678
         5.06e-06       3819.275251
         5.07e-06       3819.826363
         5.08e-06       3817.899852
         5.09e-06       3821.417581
          5.1e-06        3831.77257
         5.11e-06       3834.637392
         5.12e-06       3840.121806
         5.13e-06       3842.273125
         5.14e-06       3844.379387
         5.15e-06       3847.568196
         5.16e-06       3852.343073
         5.17e-06       3856.180004
         5.18e-06        3862.64036
         5.19e-06       3865.742073
          5.2e-06        3871.11879
         5.21e-06       3878.649451
         5.22e-06       3878.116341
         5.23e-06       3886.191608
         5.24e-06       3894.707936
         5.25e-06       3897.366967
         5.26e-06       3902.225327
         5.27e-06       3900.184576
         5.28e-06       3908.822416
         5.29e-06       3913.907305
          5.3e-06        3924.75843
         5.31e-06       3931.128045
         5.32e-06       3932.138584
         5.33e-06       3937.717292
         5.34e-06       3944.806997
         5.35e-06        3953.53616
         5.36e-06       3955.108834
         5.37e-06       3964.034312
         5.38e-06       3963.262933
         5.39e-06       3972.805236
          5.4e-06       3983.193314
         5.41e-06       3989.718374
         5.42e-06       3994.858985
         5.43e-06       3998.366182
         5.44e-06       4003.088237
         5.45e-06       4008.874384
         5.46e-06       4015.739099
         5.47e-06       4020.181459
         5.48e-06       4023.441391
         5.49e-06       4024.903444
          5.5e-06       4030.315025
         5.51e-06       4028.279138
         5.52e-06        4026.94537
         5.53e-06       4037.668899
         5.54e-06       4039.476666
         5.55e-06       4043.710912
         5.56e-06       4044.918777
         5.57e-06       4053.084349
         5.58e-06       4053.297611
         5.59e-06       4059.340493
          5.6e-06       4064.349097
         5.61e-06       4068.735042
         5.62e-06       4080.261556
         5.63e-06        4079.95843
         5.64e-06        4085.21078
         5.65e-06       4091.424837
         5.66e-06       4098.375058
         5.67e-06        4104.21933
         5.68e-06        4106.25527
         5.69e-06       4108.078216
          5.7e-06       4115.288066
         5.71e-06       4107.875688
         5.72e-06       4112.518672
         5.73e-06       4118.973783
         5.74e-06         4118.1829
         5.75e-06       4125.594766
         5.76e-06       4132.595439
         5.77e-06       4141.734823
         5.78e-06       4148.100812
         5.79e-06       4156.100382
          5.8e-06       4162.346285
         5.81e-06       4163.529185
         5.82e-06        4156.51262
         5.83e-06        4159.87435
         5.84e-06       4162.194043
         5.85e-06       4166.132548
         5.86e-06       4172.321403
         5.87e-06       4180.431595
         5.88e-06       4183.206123
         5.89e-06       4191.128505
          5.9e-06       4196.877414
         5.91e-06       4199.540203
         5.92e-06       4199.842922
         5.93e-06       4204.274143
         5.94e-06       4207.031942
         5.95e-06       4218.972293
         5.96e-06       4224.226604
         5.97e-06       4233.256863
         5.98e-06       4241.360808
         5.99e-06       4244.183251
            6e-06       4248.481692
         6.01e-06       4254.416606
         6.02e-06       4254.438645
         6.03e-06       4258.971047
         6.04e-06       4264.699915
         6.05e-06       4276.864608
         6.06e-06       4286.341136
         6.07e-06       4294.621996
         6.08e-06       4291.628536
         6.09e-06       4288.962453
          6.1e-06       4286.314675
         6.11e-06       4284.716222
         6.12e-06       4290.887396
         6.13e-06       4291.079865
         6.14e-06       4296.695863
         6.15e-06        4306.06325
         6.16e-06       4310.184437
         6.17e-06       4307.684257
         6.18e-06       4310.360147
         6.19e-06       4311.902682
          6.2e-06         4314.9719
         6.21e-06       4319.676222
         6.22e-06       4328.794009
         6.23e-06       4332.209946
         6.24e-06       4336.272705
         6.25e-06       4346.716016
         6.26e-06        4352.15556
         6.27e-06       4357.132012
         6.28e-06       4360.003748
         6.29e-06       4375.618683
          6.3e-06       4376.678167
         6.31e-06       4380.562485
         6.32e-06       4392.678706
         6.33e-06        4399.73215
         6.34e-06       4397.172686
         6.35e-06       4398.883734
         6.36e-06       4402.682604
         6.37e-06       4403.286074
         6.38e-06       4409.521674
         6.39e-06       4408.622394
          6.4e-06       4414.768311
         6.41e-06       4423.879448
         6.42e-06       4426.526277
         6.43e-06       4431.485884
         6.44e-06       4427.406716
         6.45e-06       4431.939367
         6.46e-06       4438.892334
         6.47e-06        4444.10396
         6.48e-06       4448.059044
         6.49e-06       4452.530325
          6.5e-06       4463.263646
         6.51e-06       4464.061175
         6.52e-06       4471.572906
         6.53e-06       4478.128604
         6.54e-06       4476.064759
         6.55e-06        4481.40961
         6.56e-06       4490.752219
         6.57e-06       4492.417463
         6.58e-06       4496.988902
         6.59e-06        4498.30277
          6.6e-06       4502.592148
         6.61e-06       4504.962171
         6.62e-06       4510.192354
         6.63e-06       4511.723365
         6.64e-06       4520.486985
         6.65e-06       4521.589425
         6.66e-06       4532.624135
         6.67e-06       4524.208875
         6.68e-06       4531.388546
         6.69e-06         4541.6365
          6.7e-06       4547.440176
         6.71e-06       4547.342695
         6.72e-06       4548.602472
         6.73e-06       4557.287022
         6.74e-06       4558.299146
         6.75e-06       4567.317984
         6.76e-06       4572.538134
         6.77e-06       4570.671554
         6.78e-06       4576.154541
         6.79e-06       4571.607807
          6.8e-06       4580.442036
         6.81e-06       4586.076278
         6.82e-06       4594.751215
         6.83e-06       4600.106187
         6.84e-06       4599.035027
         6.85e-06        4609.47583
         6.86e-06       4612.591174
         6.87e-06       4614.415774
         6.88e-06       4615.505507
         6.89e-06       4620.709868
          6.9e-06       4621.841829
         6.91e-06       4623.343473
         6.92e-06       4629.207293
         6.93e-06       4627.694261
         6.94e-06       4637.248578
         6.95e-06       4639.056802
         6.96e-06       4647.966301
         6.97e-06       4650.022602
         6.98e-06       4657.380455
         6.99e-06       4656.312488
            7e-06       4660.035538
         7.01e-06       4667.474533
         7.02e-06       4676.766972
         7.03e-06       4682.489046
         7.04e-06       4677.214767
         7.05e-06       4669.437871
         7.06e-06       4672.609428
         7.07e-06       4682.142633
         7.08e-06        4684.66104
         7.09e-06       4680.336916
          7.1e-06       4682.701801
         7.11e-06       4683.640056
         7.12e-06       4690.981444
         7.13e-06       4688.364841
         7.14e-06       4689.829732
         7.15e-06       4701.280998
         7.16e-06       4708.107723
         7.17e-06       4705.806761
         7.18e-06       4712.396018
         7.19e-06       4712.460625
          7.2e-06       4714.383995
         7.21e-06       4710.946101
         7.22e-06       4708.199046
         7.23e-06       4712.401359
         7.24e-06        4721.23575
         7.25e-06       4724.488853
         7.26e-06       4731.825196
         7.27e-06       4746.082475
         7.28e-06       4752.684766
         7.29e-06       4754.984568
          7.3e-06       4762.671272
         7.31e-06        4771.90117
         7.32e-06       4771.049144
         7.33e-06       4779.869871
         7.34e-06       4779.130876
         7.35e-06        4779.89715
         7.36e-06       4782.538522
         7.37e-06       4791.550061
         7.38e-06       4794.244148
         7.39e-06        4799.60398
          7.4e-06       4804.745225
         7.41e-06       4809.776267
         7.42e-06       4815.048236
         7.43e-06       4815.083146
         7.44e-06       4819.402612
         7.45e-06       4819.642828
         7.46e-06       4832.745791
         7.47e-06       4834.868131
         7.48e-06       4831.692976
         7.49e-06       4833.738864
          7.5e-06       4835.823484
         7.51e-06       4841.440322
         7.52e-06       4837.559794
         7.53e-06       4830.746963
         7.54e-06        4842.96704
         7.55e-06       4837.319163
         7.56e-06       4845.640985
         7.57e-06       4857.121459
         7.58e-06       4867.134653
         7.59e-06       4871.180296
          7.6e-06       4875.841012
         7.61e-06       4878.547645
         7.62e-06       4875.900058
         7.63e-06       4881.864073
         7.64e-06       4884.491208
         7.65e-06        4888.97049
         7.66e-06       4898.127329
         7.67e-06       4900.818533
         7.68e-06        4909.98314
         7.69e-06       4916.505084
          7.7e-06       4916.727222
         7.71e-06       4910.871134
         7.72e-06       4916.036112
         7.73e-06       4922.334962
         7.74e-06       4928.993422
         7.75e-06       4930.948132
         7.76e-06       4933.982303
         7.77e-06       4942.618877
         7.78e-06       4949.229474
         7.79e-06       4945.498427
          7.8e-06        4943.26591
         7.81e-06       4942.558307
         7.82e-06       4945.220404
         7.83e-06       4945.195808
         7.84e-06       4942.573674
         7.85e-06       4942.966888
         7.86e-06       4939.318593
         7.87e-06       4950.731156
         7.88e-06       4951.175874
         7.89e-06       4959.397792
          7.9e-06       4968.494642
         7.91e-06       4966.990846
         7.92e-06       4964.605257
         7.93e-06        4963.87976
         7.94e-06       4969.396509
         7.95e-06       4969.302013
         7.96e-06       4964.259723
         7.97e-06       4964.641387
         7.98e-06       4961.416984
         7.99e-06       4965.447851
            8e-06       4965.053565
         8.01e-06       4972.708677
         8.02e-06       4978.686433
         8.03e-06       4983.146093
         8.04e-06       4982.556512
         8.05e-06        4988.50384
         8.06e-06       4989.934248
         8.07e-06       4993.133297
         8.08e-06        4996.83329
         8.09e-06       4994.294614
          8.1e-06       4994.511889
         8.11e-06        4995.00082
         8.12e-06       5003.545003
         8.13e-06       5007.776044
         8.14e-06       5010.261775
         8.15e-06       5014.228055
         8.16e-06       5018.831562
         8.17e-06       5019.720366
         8.18e-06       5026.266739
         8.19e-06       5029.207071
          8.2e-06       5028.668183
         8.21e-06       5036.966091
         8.22e-06       5043.326977
         8.23e-06       5037.714283
         8.24e-06       5041.825581
         8.25e-06       5041.990573
         8.26e-06        5049.26437
         8.27e-06       5056.969337
         8.28e-06       5055.161887
         8.29e-06       5059.503424
          8.3e-06       5056.740835
         8.31e-06       5056.041916