# Probe 0 (5e-06 5e-06 5e-06)
#           Probe                 0
#            Time
            1e-08       9827.577564
            2e-08       9716.754417
            3e-08       9620.196908
            4e-08       9530.595452
            5e-08       9460.376282
            6e-08       9398.851755
            7e-08       9329.954411
            8e-08       9270.634752
            9e-08       9219.015968
            1e-07       9176.010076
          1.1e-07       9125.957247
          1.2e-07       9083.267467
          1.3e-07       9041.953312
          1.4e-07       9003.717358
          1.5e-07       8971.410782
          1.6e-07       8937.933309
          1.7e-07       8906.257864
          1.8e-07       8875.852744
          1.9e-07       8842.478714
            2e-07       8806.488286
          2.1e-07       8778.276269
          2.2e-07       8750.820659
          2.3e-07       8721.860726
          2.4e-07       8694.605823
          2.5e-07       8672.340197
          2.6e-07       8644.013077
          2.7e-07       8625.173717
          2.8e-07        8603.31656
          2.9e-07       8582.474877
            3e-07       8565.509436
          3.1e-07       8548.145323
          3.2e-07       8531.807647
          3.3e-07       8512.257131
          3.4e-07        8497.43073
          3.5e-07       8480.689699
          3.6e-07       8464.227641
          3.7e-07       8448.544583
          3.8e-07       8436.316846
          3.9e-07       8419.982825
            4e-07       8404.475797
          4.1e-07       8389.412981
          4.2e-07       8374.661705
          4.3e-07       8361.053474
          4.4e-07       8346.936569
          4.5e-07       8337.507739
          4.6e-07       8323.813771
          4.7e-07       8309.542307
          4.8e-07        8298.76887
          4.9e-07       8286.524459
            5e-07       8275.990838
          5.1e-07       8266.493976
          5.2e-07       8252.946222
          5.3e-07       8240.500403
          5.4e-07       8231.502632
          5.5e-07       8219.631823
          5.6e-07       8207.697216
          5.7e-07       8200.394821
          5.8e-07       8189.269499
          5.9e-07        8179.13799
            6e-07       8171.467842
          6.1e-07       8163.396296
          6.2e-07       8153.883955
          6.3e-07       8142.803311
          6.4e-07       8133.557685
          6.5e-07       8124.619146
          6.6e-07       8120.301523
          6.7e-07       8112.199665
          6.8e-07         8103.0175
          6.9e-07       8095.583856
            7e-07       8089.483993
          7.1e-07       8081.249042
          7.2e-07       8073.775316
          7.3e-07       8065.986256
          7.4e-07       8057.967712
          7.5e-07       8050.854515
          7.6e-07       8043.840106
          7.7e-07       8032.757579
          7.8e-07       8025.796009
          7.9e-07       8017.281862
            8e-07       8010.102429
          8.1e-07       8000.799106
          8.2e-07       7994.434224
          8.3e-07       7987.053682
          8.4e-07       7979.378993
          8.5e-07       7970.162212
          8.6e-07       7965.434568
          8.7e-07       7960.721841
          8.8e-07        7955.33372
          8.9e-07       7949.799375
            9e-07       7944.184706
          9.1e-07       7937.841891
          9.2e-07       7931.408173
          9.3e-07       7924.952907
          9.4e-07        7919.14032
          9.5e-07       7916.474249
          9.6e-07       7910.227788
          9.7e-07       7905.726928
          9.8e-07        7899.73054
          9.9e-07       7893.763638
            1e-06       7889.747589
         1.01e-06       7883.090836
         1.02e-06       7878.035228
         1.03e-06       7872.561489
         1.04e-06       7868.822859
         1.05e-06       7864.238186
         1.06e-06       7856.896255
         1.07e-06       7851.008466
         1.08e-06       7846.322777
         1.09e-06       7841.440781
          1.1e-06       7837.512629
         1.11e-06       7833.790026
         1.12e-06       7828.733724
         1.13e-06       7825.409931
         1.14e-06       7820.586077
         1.15e-06       7814.631401
         1.16e-06       7809.793201
         1.17e-06       7804.747654
         1.18e-06       7799.918162
         1.19e-06       7796.443491
          1.2e-06       7791.945847
         1.21e-06       7787.203007
         1.22e-06       7781.968366
         1.23e-06       7778.444431
         1.24e-06         7773.8452
         1.25e-06       7769.818499
         1.26e-06       7765.887125
         1.27e-06       7761.934348
         1.28e-06       7757.870049
         1.29e-06       7753.311941
          1.3e-06       7749.546649
         1.31e-06       7745.728919
         1.32e-06       7741.461242
         1.33e-06       7738.052901
         1.34e-06       7733.226134
         1.35e-06       7729.660686
         1.36e-06       7725.820156
         1.37e-06       7721.771521
         1.38e-06       7717.157913
         1.39e-06       7714.934202
          1.4e-06       7711.788761
         1.41e-06       7707.603497
         1.42e-06       7703.898002
         1.43e-06       7699.504005
         1.44e-06       7695.590086
         1.45e-06        7691.93221
         1.46e-06       7687.980352
         1.47e-06       7684.055047
         1.48e-06       7680.617227
         1.49e-06       7677.817448
          1.5e-06       7674.978275
         1.51e-06       7671.758589
         1.52e-06       7668.647397
         1.53e-06        7665.72216
         1.54e-06       7661.116556
         1.55e-06       7658.217985
         1.56e-06       7654.991055
         1.57e-06       7651.594542
         1.58e-06        7648.18873
         1.59e-06        7645.25679
          1.6e-06       7642.418567
         1.61e-06       7638.687786
         1.62e-06       7636.457461
         1.63e-06       7634.007741
         1.64e-06       7630.164001
         1.65e-06       7626.201586
         1.66e-06       7625.023504
         1.67e-06       7623.021444
         1.68e-06       7620.470285
         1.69e-06       7617.554283
          1.7e-06       7614.566172
         1.71e-06       7611.458332
         1.72e-06       7609.791706
         1.73e-06        7605.84008
         1.74e-06       7603.366849
         1.75e-06       7601.134984
         1.76e-06       7598.096385
         1.77e-06       7595.711723
         1.78e-06       7592.975908
         1.79e-06       7590.026364
          1.8e-06       7587.226355
         1.81e-06       7584.621847
         1.82e-06        7581.27231
         1.83e-06       7579.508949
         1.84e-06       7576.217686
         1.85e-06       7573.294338
         1.86e-06       7572.053609
         1.87e-06       7567.918148
         1.88e-06        7565.24058
         1.89e-06       7563.014336
          1.9e-06       7560.715331
         1.91e-06       7558.472997
         1.92e-06       7555.982456
         1.93e-06       7553.802023
         1.94e-06       7551.879899
         1.95e-06       7549.902929
         1.96e-06       7547.761235
         1.97e-06       7545.482835
         1.98e-06       7542.643486
         1.99e-06       7539.563641
            2e-06       7536.916566
         2.01e-06       7534.385771
         2.02e-06       7531.133421
         2.03e-06        7528.63746
         2.04e-06       7526.519159
         2.05e-06       7523.805232
         2.06e-06       7521.764627
         2.07e-06       7519.660742
         2.08e-06       7517.180073
         2.09e-06       7514.961202
          2.1e-06       7512.599215
         2.11e-06        7509.36576
         2.12e-06       7506.213974
         2.13e-06       7504.772304
         2.14e-06        7502.12149
         2.15e-06       7499.805939
         2.16e-06       7497.321737
         2.17e-06       7494.709327
         2.18e-06       7492.082434
         2.19e-06       7490.242525
          2.2e-06        7488.55363
         2.21e-06       7486.451856
         2.22e-06       7483.552255
         2.23e-06       7481.560753
         2.24e-06       7478.153592
         2.25e-06        7475.82005
         2.26e-06        7473.81544
         2.27e-06       7470.844475
         2.28e-06        7469.30823
         2.29e-06        7466.91099
          2.3e-06       7465.956425
         2.31e-06       7463.790048
         2.32e-06       7462.190846
         2.33e-06       7460.581115
         2.34e-06        7458.74195
         2.35e-06       7457.639007
         2.36e-06       7455.514289
         2.37e-06       7453.367746
         2.38e-06       7451.339038
         2.39e-06        7449.80275
          2.4e-06       7447.731423
         2.41e-06       7444.322774
         2.42e-06       7442.711909
         2.43e-06       7440.975742
         2.44e-06       7439.704253
         2.45e-06       7437.762946
         2.46e-06       7435.687101
         2.47e-06        7433.68568
         2.48e-06       7431.944742
         2.49e-06        7430.50754
          2.5e-06       7429.169324
         2.51e-06       7426.622468
         2.52e-06       7424.488089
         2.53e-06       7422.230822
         2.54e-06       7419.646517
         2.55e-06       7417.533073
         2.56e-06       7416.298756
         2.57e-06       7414.848185
         2.58e-06       7413.626558
         2.59e-06       7412.471743
          2.6e-06       7409.427855
         2.61e-06        7407.64931
         2.62e-06       7405.298725
         2.63e-06       7403.012297
         2.64e-06       7400.833312
         2.65e-06       7399.546607
         2.66e-06       7398.623371
         2.67e-06       7396.469771
         2.68e-06        7395.12283
         2.69e-06       7393.979967
          2.7e-06       7392.626396
         2.71e-06       7391.117194
         2.72e-06       7389.072126
         2.73e-06       7387.848871
         2.74e-06       7386.742638
         2.75e-06       7385.325237
         2.76e-06       7383.944105
         2.77e-06       7381.806782
         2.78e-06       7380.571848
         2.79e-06       7378.916999
          2.8e-06        7377.46537
         2.81e-06       7376.730646
         2.82e-06       7375.255591
         2.83e-06       7374.393466
         2.84e-06       7372.815211
         2.85e-06       7371.280593
         2.86e-06       7370.124814
         2.87e-06       7369.069198
         2.88e-06       7367.583064
         2.89e-06       7365.706129
          2.9e-06       7363.940796
         2.91e-06       7361.429726
         2.92e-06       7359.256654
         2.93e-06       7357.772229
         2.94e-06       7356.892291
         2.95e-06       7355.590399
         2.96e-06       7353.833318
         2.97e-06        7352.45243
         2.98e-06       7351.091497
         2.99e-06        7349.07302
            3e-06       7347.787816
         3.01e-06       7346.961199
         3.02e-06       7345.425742
         3.03e-06       7344.084802
         3.04e-06       7341.981103
         3.05e-06        7340.30047
         3.06e-06       7339.044794
         3.07e-06       7337.583765
         3.08e-06       7335.917752
         3.09e-06       7334.786652
          3.1e-06       7333.304488
         3.11e-06       7332.343111
         3.12e-06       7331.318224
         3.13e-06       7329.836793
         3.14e-06       7329.450268
         3.15e-06       7327.345198
         3.16e-06       7325.506679
         3.17e-06       7324.832958
         3.18e-06        7324.00774
         3.19e-06        7322.21363
          3.2e-06       7321.769799
         3.21e-06         7320.7004
         3.22e-06       7319.160947
         3.23e-06        7317.85219
         3.24e-06       7317.462092
         3.25e-06       7316.479745
         3.26e-06       7314.991977
         3.27e-06       7313.420752
         3.28e-06       7312.395088
         3.29e-06        7310.56932
          3.3e-06       7309.041036
         3.31e-06       7307.368901
         3.32e-06       7305.882966
         3.33e-06       7304.347532
         3.34e-06       7302.760311
         3.35e-06       7301.481091
         3.36e-06       7300.176484
         3.37e-06        7298.65852
         3.38e-06       7297.673199
         3.39e-06       7296.375621
          3.4e-06       7295.240894
         3.41e-06       7294.143503
         3.42e-06       7293.189499
         3.43e-06       7292.285868
         3.44e-06       7290.677632
         3.45e-06        7289.01206
         3.46e-06       7287.838675
         3.47e-06       7286.963988
         3.48e-06       7286.112259
         3.49e-06       7285.582553
          3.5e-06       7284.478937
         3.51e-06        7283.21823
         3.52e-06       7281.617145
         3.53e-06       7280.764767
         3.54e-06       7279.291975
         3.55e-06       7278.112048
         3.56e-06       7277.265172
         3.57e-06       7275.685148
         3.58e-06       7275.032788
         3.59e-06       7274.415736
          3.6e-06       7273.242911
         3.61e-06       7272.078403
         3.62e-06       7271.606726
         3.63e-06       7270.375365
         3.64e-06       7269.422363
         3.65e-06       7268.193424
         3.66e-06       7266.644539
         3.67e-06       7265.531213
         3.68e-06       7264.652902
         3.69e-06       7263.069167
          3.7e-06       7262.441319
         3.71e-06       7261.432691
         3.72e-06       7260.608332
         3.73e-06       7259.390318
         3.74e-06       7258.336993
         3.75e-06       7257.542421
         3.76e-06       7255.849609
         3.77e-06       7255.370186
         3.78e-06       7254.431345
         3.79e-06        7253.50583
          3.8e-06       7252.228823
         3.81e-06       7251.611142
         3.82e-06       7250.568355
         3.83e-06       7249.803938
         3.84e-06       7249.455719
         3.85e-06       7247.936312
         3.86e-06       7246.795701
         3.87e-06       7246.064083
         3.88e-06       7244.796591
         3.89e-06       7244.387034
          3.9e-06       7242.951326
         3.91e-06       7242.490516
         3.92e-06        7241.74511
         3.93e-06       7239.902724
         3.94e-06       7239.417621
         3.95e-06       7238.536551
         3.96e-06        7237.90564
         3.97e-06       7236.004334
         3.98e-06       7235.131607
         3.99e-06       7233.887335
            4e-06       7233.039125
         4.01e-06       7231.418411
         4.02e-06        7230.36414
         4.03e-06       7229.058835
         4.04e-06        7228.29307
         4.05e-06       7227.441743
         4.06e-06       7225.937649
         4.07e-06       7224.633259
         4.08e-06        7223.47142
         4.09e-06        7222.79906
          4.1e-06       7221.326303
         4.11e-06        7221.09982
         4.12e-06       7220.024328
         4.13e-06       7219.059097
         4.14e-06       7218.810269
         4.15e-06        7217.40929
         4.16e-06       7216.937067
         4.17e-06       7216.129702
         4.18e-06        7215.52602
         4.19e-06       7214.117905
          4.2e-06       7212.699825
         4.21e-06       7211.805446
         4.22e-06       7211.085719
         4.23e-06        7210.69796
         4.24e-06       7210.097621
         4.25e-06        7208.81464
         4.26e-06       7207.916363
         4.27e-06       7207.170077
         4.28e-06        7206.13698
         4.29e-06        7205.25617
          4.3e-06       7204.019327
         4.31e-06       7202.595033
         4.32e-06       7201.821857
         4.33e-06       7201.410059
         4.34e-06       7200.381992
         4.35e-06       7200.232161
         4.36e-06        7199.81494
         4.37e-06        7198.82928
         4.38e-06       7198.127904
         4.39e-06       7197.803949
          4.4e-06       7197.092071
         4.41e-06       7195.903578
         4.42e-06       7194.902033
         4.43e-06       7194.189194
         4.44e-06       7193.063678
         4.45e-06       7192.710896
         4.46e-06       7191.745838
         4.47e-06       7190.644608
         4.48e-06       7189.808824
         4.49e-06       7188.863456
          4.5e-06       7187.987077
         4.51e-06       7187.000714
         4.52e-06       7186.166104
         4.53e-06       7185.033931
         4.54e-06       7184.549829
         4.55e-06        7183.68668
         4.56e-06       7183.088911
         4.57e-06       7182.320613
         4.58e-06       7181.475083
         4.59e-06       7180.861371
          4.6e-06       7179.719953
         4.61e-06       7179.173078
         4.62e-06        7178.20102
         4.63e-06        7177.35081
         4.64e-06       7176.444668
         4.65e-06       7175.452439
         4.66e-06       7174.699898
         4.67e-06       7173.796456
         4.68e-06       7173.360147
         4.69e-06       7173.109726
          4.7e-06       7172.549902
         4.71e-06        7172.44079
         4.72e-06         7171.4899
         4.73e-06       7170.669964
         4.74e-06        7170.00655
         4.75e-06       7169.671084
         4.76e-06       7169.058903
         4.77e-06       7168.144056
         4.78e-06       7167.269919
         4.79e-06        7166.05471
          4.8e-06         7164.9358
         4.81e-06       7164.402994
         4.82e-06       7163.580519
         4.83e-06       7162.749162
         4.84e-06       7162.276107
         4.85e-06        7161.34284
         4.86e-06       7160.870606
         4.87e-06       7160.316603
         4.88e-06       7159.131067
         4.89e-06       7158.707285
          4.9e-06       7157.768763
         4.91e-06       7157.400982
         4.92e-06       7157.257234
         4.93e-06       7156.649416
         4.94e-06       7156.104503
         4.95e-06       7155.028948
         4.96e-06       7154.663481
         4.97e-06       7154.094435
         4.98e-06       7153.248857
         4.99e-06       7152.678379
            5e-06        7151.82127
         5.01e-06       7151.402755
         5.02e-06       7150.775746
         5.03e-06       7150.233918
         5.04e-06       7149.581662
         5.05e-06       7148.612597
         5.06e-06       7147.965322
         5.07e-06       7147.650829
         5.08e-06       7147.163102
         5.09e-06       7146.735522
          5.1e-06       7146.104843
         5.11e-06       7145.170484
         5.12e-06       7144.364984
         5.13e-06       7143.928909
         5.14e-06        7143.66913
         5.15e-06        7143.03994
         5.16e-06       7141.924359
         5.17e-06       7141.020341
         5.18e-06       7140.806997
         5.19e-06         7140.6294
          5.2e-06       7140.115933
         5.21e-06       7139.689031
         5.22e-06        7139.81417
         5.23e-06       7138.991992
         5.24e-06       7138.448348
         5.25e-06        7138.17864
         5.26e-06       7137.612473
         5.27e-06        7136.95421
         5.28e-06       7136.328593
         5.29e-06       7135.457064
          5.3e-06       7134.635729
         5.31e-06       7133.962572
         5.32e-06       7133.577803
         5.33e-06       7132.807634
         5.34e-06       7132.232784
         5.35e-06       7131.464245
         5.36e-06       7131.255333
         5.37e-06       7130.619528
         5.38e-06       7130.158939
         5.39e-06       7129.341079
          5.4e-06       7128.879723
         5.41e-06       7127.963626
         5.42e-06       7127.529461
         5.43e-06       7126.912635
         5.44e-06        7126.08252
         5.45e-06       7126.251722
         5.46e-06       7125.162517
         5.47e-06       7124.625975
         5.48e-06       7123.997339
         5.49e-06       7123.396906
          5.5e-06       7122.881259
         5.51e-06       7123.152789
         5.52e-06       7122.934213
         5.53e-06       7122.421719
         5.54e-06        7122.17247
         5.55e-06       7121.929032
         5.56e-06       7121.362444
         5.57e-06        7121.28075
         5.58e-06       7120.694158
         5.59e-06        7119.77249
          5.6e-06       7119.018197
         5.61e-06       7118.408633
         5.62e-06        7117.86621
         5.63e-06       7117.697886
         5.64e-06       7116.899695
         5.65e-06       7116.172133
         5.66e-06       7115.384319
         5.67e-06       7114.940576
         5.68e-06        7114.36594
         5.69e-06       7113.971342
          5.7e-06       7113.474363
         5.71e-06       7113.512702
         5.72e-06       7112.933035
         5.73e-06       7112.537411
         5.74e-06       7112.550873
         5.75e-06       7111.776665
         5.76e-06         7110.9022
         5.77e-06       7110.538522
         5.78e-06       7110.177709
         5.79e-06       7109.459672
          5.8e-06       7109.255086
         5.81e-06         7108.6945
         5.82e-06       7108.524579
         5.83e-06        7108.49512
         5.84e-06       7107.955512
         5.85e-06       7107.481192
         5.86e-06       7106.719644
         5.87e-06       7106.397064
         5.88e-06       7105.962483
         5.89e-06        7105.74864
          5.9e-06       7105.128006
         5.91e-06        7104.78504
         5.92e-06       7104.333384
         5.93e-06       7103.755476
         5.94e-06       7103.029838
         5.95e-06       7102.255928
         5.96e-06       7101.534898
         5.97e-06       7101.022354
         5.98e-06       7100.645626
         5.99e-06       7100.201158
            6e-06       7100.046083
         6.01e-06       7099.575189
         6.02e-06       7099.521578
         6.03e-06       7099.144466
         6.04e-06       7098.505449
         6.05e-06       7097.904566
         6.06e-06       7097.375714
         6.07e-06       7096.617438
         6.08e-06       7096.128722
         6.09e-06       7095.873786
          6.1e-06       7095.710816
         6.11e-06       7095.454597
         6.12e-06       7095.477098
         6.13e-06        7094.85148
         6.14e-06       7094.139589
         6.15e-06       7093.260159
         6.16e-06       7093.085965
         6.17e-06       7092.515065
         6.18e-06       7092.257702
         6.19e-06       7092.029156
          6.2e-06       7091.555203
         6.21e-06       7090.768787
         6.22e-06       7090.628238
         6.23e-06       7090.111987
         6.24e-06       7089.372535
         6.25e-06       7088.915475
         6.26e-06        7088.30429
         6.27e-06       7087.584358
         6.28e-06       7087.464824
         6.29e-06       7086.895811
          6.3e-06       7086.779682
         6.31e-06       7086.113636
         6.32e-06       7085.853048
         6.33e-06       7085.419498
         6.34e-06       7084.867533
         6.35e-06       7084.367493
         6.36e-06       7084.037356
         6.37e-06       7083.862322
         6.38e-06       7083.830997
         6.39e-06       7083.465865
          6.4e-06       7082.774184
         6.41e-06       7082.229639
         6.42e-06       7081.633399
         6.43e-06       7081.112939
         6.44e-06       7080.992543
         6.45e-06       7080.559988
         6.46e-06       7080.026872
         6.47e-06       7079.690169
         6.48e-06       7079.430414
         6.49e-06       7078.811405
          6.5e-06       7078.684217
         6.51e-06       7077.726503
         6.52e-06       7077.266038
         6.53e-06       7076.973927
         6.54e-06       7076.622638
         6.55e-06       7076.902386
         6.56e-06       7076.847064
         6.57e-06       7076.389851
         6.58e-06       7076.334346
         6.59e-06       7076.071714
          6.6e-06       7075.423793
         6.61e-06       7074.994958
         6.62e-06       7074.857715
         6.63e-06       7074.669969
         6.64e-06       7074.313399
         6.65e-06       7073.773698
         6.66e-06       7073.153343
         6.67e-06       7072.899117
         6.68e-06       7072.487783
         6.69e-06       7071.968497
          6.7e-06       7071.723244
         6.71e-06       7071.197614
         6.72e-06       7070.636405
         6.73e-06       7070.486021
         6.74e-06       7070.169603
         6.75e-06        7070.00817
         6.76e-06       7069.791073
         6.77e-06       7069.472229
         6.78e-06       7069.189571
         6.79e-06       7068.920006
          6.8e-06       7068.610085
         6.81e-06       7068.199265
         6.82e-06       7067.667794
         6.83e-06       7067.611643
         6.84e-06       7067.571167
         6.85e-06        7066.88436
         6.86e-06       7066.643319
         6.87e-06       7066.573847
         6.88e-06       7066.216096
         6.89e-06        7065.99727
          6.9e-06       7065.846051
         6.91e-06        7065.58135
         6.92e-06       7065.709549
         6.93e-06       7065.511519
         6.94e-06       7065.313776
         6.95e-06       7064.560688
         6.96e-06       7064.453945
         6.97e-06       7063.993501
         6.98e-06       7063.540877
         6.99e-06       7063.132682
            7e-06       7062.762821
         7.01e-06       7062.301731
         7.02e-06        7061.91194
         7.03e-06       7061.736205
         7.04e-06       7061.330713
         7.05e-06       7060.760928
         7.06e-06       7060.639701
         7.07e-06       7060.193405
         7.08e-06       7060.079386
         7.09e-06       7059.927749
          7.1e-06       7059.628501
         7.11e-06       7059.372755
         7.12e-06       7058.875616
         7.13e-06       7058.692233
         7.14e-06        7058.82913
         7.15e-06       7058.449812
         7.16e-06       7058.339007
         7.17e-06       7057.701473
         7.18e-06       7057.351924
         7.19e-06       7057.216832
          7.2e-06       7057.036838
         7.21e-06       7056.694422
         7.22e-06       7056.503175
         7.23e-06       7056.531852
         7.24e-06       7055.925882
         7.25e-06       7055.428345
         7.26e-06       7055.440389
         7.27e-06       7055.134944
         7.28e-06       7054.676835
         7.29e-06       7054.380406
          7.3e-06       7054.334691
         7.31e-06       7054.005154
         7.32e-06       7053.815443
         7.33e-06       7053.713217
         7.34e-06       7053.031934
         7.35e-06       7052.830802
         7.36e-06       7052.361899
         7.37e-06       7052.207398
         7.38e-06       7051.899843
         7.39e-06       7051.742067
          7.4e-06       7051.353611
         7.41e-06       7051.002313
         7.42e-06       7051.040963
         7.43e-06       7050.785541
         7.44e-06        7050.45613
         7.45e-06       7050.125385
         7.46e-06       7049.768355
         7.47e-06       7049.276612
         7.48e-06        7049.28772
         7.49e-06       7048.968037
          7.5e-06       7048.567988
         7.51e-06        7048.19718
         7.52e-06       7048.100045
         7.53e-06       7048.207178
         7.54e-06       7047.986128
         7.55e-06       7047.509676
         7.56e-06       7047.372334
         7.57e-06       7047.136447
         7.58e-06       7047.126012
         7.59e-06       7046.422718
          7.6e-06       7046.120408
         7.61e-06        7045.66445
         7.62e-06        7045.55003
         7.63e-06        7045.24912
         7.64e-06       7044.804493
         7.65e-06       7044.789884
         7.66e-06       7044.215442
         7.67e-06         7043.8223
         7.68e-06       7043.852897
         7.69e-06       7043.757943
          7.7e-06       7043.731004
         7.71e-06       7043.819229
         7.72e-06       7043.177505
         7.73e-06       7043.075272
         7.74e-06       7042.988904
         7.75e-06        7042.54531
         7.76e-06       7042.193219
         7.77e-06       7042.414586
         7.78e-06       7042.050186
         7.79e-06       7042.345234
          7.8e-06       7041.839116
         7.81e-06       7041.603768
         7.82e-06       7041.456381
         7.83e-06       7041.013075
         7.84e-06       7040.894701
         7.85e-06       7040.798913
         7.86e-06       7040.462386
         7.87e-06       7040.277688
         7.88e-06       7040.087511
         7.89e-06       7040.251681
          7.9e-06       7040.091316
         7.91e-06       7040.035635
         7.92e-06       7039.853993
         7.93e-06        7039.61561
         7.94e-06       7039.694335
         7.95e-06       7039.649406
         7.96e-06       7039.354329
         7.97e-06       7039.141321
         7.98e-06        7038.53335
         7.99e-06       7038.351974
            8e-06       7038.151452
         8.01e-06       7038.404954
         8.02e-06       7038.204533
         8.03e-06       7037.888323
         8.04e-06       7037.421574
         8.05e-06       7037.097338
         8.06e-06       7037.024813
         8.07e-06       7036.374934
         8.08e-06       7036.155842
         8.09e-06        7035.66279
          8.1e-06       7035.537592
         8.11e-06       7035.774568
         8.12e-06       7035.394897
         8.13e-06       7035.197648
         8.14e-06       7034.862912
         8.15e-06       7034.582263
         8.16e-06        7034.12988
         8.17e-06       7033.922395
         8.18e-06       7033.805015
         8.19e-06       7033.538563
          8.2e-06        7033.16723
         8.21e-06       7032.822421
         8.22e-06        7032.81728
         8.23e-06       7032.583443
         8.24e-06       7032.266644
         8.25e-06       7031.670722
         8.26e-06        7031.81871
         8.27e-06        7031.49732
         8.28e-06       7031.266544
         8.29e-06       7030.951055
          8.3e-06       7030.841848
         8.31e-06       7030.494509