# Probe 0 (5e-06 5e-06 5e-06)
#           Probe                 0
#            Time
            1e-08       9995.759211
            2e-08       9997.872502
            3e-08       10015.14952
            4e-08       10014.24816
            5e-08       10000.55231
            6e-08       9962.744715
            7e-08       9961.413514
            8e-08       9947.291672
            9e-08        9925.32161
            1e-07       9902.172781
          1.1e-07       9895.276598
          1.2e-07       9902.986586
          1.3e-07       9886.819204
          1.4e-07       9893.281564
          1.5e-07        9886.47192
          1.6e-07       9873.433817
          1.7e-07       9861.655503
          1.8e-07       9848.312612
          1.9e-07       9849.330455
            2e-07       9850.778494
          2.1e-07       9849.813985
          2.2e-07       9848.294199
          2.3e-07       9840.575193
          2.4e-07       9824.067273
          2.5e-07       9795.993161
          2.6e-07       9777.598662
          2.7e-07        9758.94285
          2.8e-07        9780.53622
          2.9e-07       9762.727627
            3e-07       9758.921008
          3.1e-07       9756.981419
          3.2e-07       9762.935163
          3.3e-07        9765.35623
          3.4e-07       9742.013937
          3.5e-07       9716.726438
          3.6e-07       9707.732634
          3.7e-07       9716.679908
          3.8e-07       9732.306232
          3.9e-07        9725.00026
            4e-07       9719.753777
          4.1e-07       9688.396199
          4.2e-07       9686.523387
          4.3e-07       9685.741149
          4.4e-07       9662.884749
          4.5e-07        9658.89272
          4.6e-07       9640.715229
          4.7e-07       9630.677861
          4.8e-07       9630.631183
          4.9e-07       9635.960097
            5e-07       9624.157243
          5.1e-07       9637.839246
          5.2e-07       9622.016376
          5.3e-07       9628.911976
          5.4e-07       9624.358836
          5.5e-07        9623.17324
          5.6e-07       9604.217727
          5.7e-07       9586.122816
          5.8e-07       9604.343164
          5.9e-07       9596.279529
            6e-07        9595.94595
          6.1e-07       9603.777198
          6.2e-07       9589.319243
          6.3e-07       9593.478341
          6.4e-07       9567.768259
          6.5e-07        9545.63498
          6.6e-07       9542.787035
          6.7e-07       9530.258617
          6.8e-07       9516.205783
          6.9e-07       9501.425877
            7e-07       9528.779091
          7.1e-07       9517.839208
          7.2e-07       9506.962631
          7.3e-07       9501.631407
          7.4e-07       9508.779175
          7.5e-07        9494.53531
          7.6e-07       9473.223287
          7.7e-07        9470.76909
          7.8e-07        9456.64844
          7.9e-07       9458.529811
            8e-07       9425.759628
          8.1e-07       9409.743984
          8.2e-07       9407.888807
          8.3e-07       9412.391676
          8.4e-07       9412.693278
          8.5e-07       9429.883716
          8.6e-07       9421.211711
          8.7e-07       9403.252128
          8.8e-07        9408.03062
          8.9e-07       9406.515074
            9e-07       9401.489843
          9.1e-07       9381.134793
          9.2e-07       9369.028533
          9.3e-07       9373.975535
          9.4e-07       9360.728186
          9.5e-07       9376.906658
          9.6e-07       9370.315697
          9.7e-07       9350.485659
          9.8e-07       9327.723223
          9.9e-07       9338.484828
            1e-06       9338.509141
         1.01e-06       9333.719753
         1.02e-06       9335.395774
         1.03e-06       9327.732718
         1.04e-06       9322.207203
         1.05e-06       9311.009767
         1.06e-06       9295.980055
         1.07e-06       9287.581146
         1.08e-06       9266.810877
         1.09e-06       9279.106909
          1.1e-06       9266.903708
         1.11e-06       9262.830887
         1.12e-06       9249.681822
         1.13e-06       9258.726091
         1.14e-06       9241.754988
         1.15e-06       9232.079672
         1.16e-06       9243.005766
         1.17e-06       9233.161707
         1.18e-06       9226.156866
         1.19e-06       9231.837994
          1.2e-06       9234.539846
         1.21e-06       9242.568075
         1.22e-06       9244.428815
         1.23e-06       9238.217432
         1.24e-06       9220.822682
         1.25e-06       9192.249072
         1.26e-06       9195.248351
         1.27e-06       9190.639833
         1.28e-06       9204.287549
         1.29e-06       9187.761239
          1.3e-06       9191.991281
         1.31e-06       9177.281892
         1.32e-06        9173.87163
         1.33e-06       9176.549599
         1.34e-06        9168.50469
         1.35e-06       9151.986353
         1.36e-06       9138.841878
         1.37e-06       9114.622845
         1.38e-06       9120.347718
         1.39e-06       9108.727708
          1.4e-06       9105.177667
         1.41e-06        9111.43383
         1.42e-06       9097.090508
         1.43e-06       9068.286022
         1.44e-06        9063.42141
         1.45e-06       9078.454596
         1.46e-06       9086.529771
         1.47e-06       9088.766791
         1.48e-06        9065.64393
         1.49e-06       9064.556201
          1.5e-06       9053.141919
         1.51e-06       9074.341987
         1.52e-06       9083.740172
         1.53e-06       9095.306552
         1.54e-06       9085.407417
         1.55e-06       9072.262645
         1.56e-06       9100.674181
         1.57e-06       9098.344934
         1.58e-06       9104.304452
         1.59e-06       9107.279782
          1.6e-06       9077.657133
         1.61e-06       9063.460841
         1.62e-06       9047.203913
         1.63e-06       9035.419438
         1.64e-06       9027.744552
         1.65e-06       9014.462319
         1.66e-06       8992.170633
         1.67e-06       8986.893814
         1.68e-06        8998.18424
         1.69e-06       8996.133411
          1.7e-06       8998.390368
         1.71e-06       9010.213066
         1.72e-06       9012.922404
         1.73e-06       8985.196274
         1.74e-06        8984.56292
         1.75e-06       8990.469319
         1.76e-06       8998.854862
         1.77e-06       8990.269557
         1.78e-06       8979.592133
         1.79e-06       8988.451533
          1.8e-06       8986.632301
         1.81e-06       8969.773699
         1.82e-06       8970.869754
         1.83e-06       8982.277682
         1.84e-06       8971.237676
         1.85e-06       8964.474652
         1.86e-06       8940.503786
         1.87e-06       8940.628831
         1.88e-06       8946.970784
         1.89e-06       8940.248724
          1.9e-06       8947.825454
         1.91e-06       8952.654889
         1.92e-06       8958.768263
         1.93e-06       8947.129107
         1.94e-06       8959.810245
         1.95e-06       8960.501643
         1.96e-06       8962.630985
         1.97e-06       8930.524267
         1.98e-06       8920.900573
         1.99e-06       8919.668486
            2e-06       8902.510807
         2.01e-06       8897.397508
         2.02e-06       8889.758586
         2.03e-06       8869.041238
         2.04e-06       8881.344029
         2.05e-06       8881.661176
         2.06e-06       8883.915704
         2.07e-06       8876.489793
         2.08e-06        8886.20262
         2.09e-06       8884.695493
          2.1e-06       8879.250329
         2.11e-06       8849.643569
         2.12e-06       8863.178367
         2.13e-06       8850.339364
         2.14e-06       8837.597367
         2.15e-06       8829.337106
         2.16e-06        8836.08795
         2.17e-06       8847.966452
         2.18e-06       8841.603165
         2.19e-06       8813.882102
          2.2e-06       8824.859086
         2.21e-06       8799.607861
         2.22e-06       8812.685267
         2.23e-06       8812.372291
         2.24e-06       8798.611925
         2.25e-06       8791.559797
         2.26e-06       8798.002045
         2.27e-06       8785.631485
         2.28e-06       8780.602038
         2.29e-06       8778.627157
          2.3e-06       8766.404252
         2.31e-06       8762.664494
         2.32e-06       8762.830171
         2.33e-06       8760.243854
         2.34e-06       8756.248231
         2.35e-06       8737.913058
         2.36e-06       8735.728655
         2.37e-06        8723.60992
         2.38e-06       8728.775436
         2.39e-06       8722.012009
          2.4e-06       8737.295453
         2.41e-06       8739.049019
         2.42e-06       8738.644177
         2.43e-06        8725.29979
         2.44e-06       8712.366415
         2.45e-06       8708.905263
         2.46e-06       8703.586519
         2.47e-06       8704.690903
         2.48e-06       8702.058751
         2.49e-06       8712.187292
          2.5e-06       8687.688773
         2.51e-06       8695.236416
         2.52e-06       8704.034524
         2.53e-06       8695.630387
         2.54e-06       8679.548097
         2.55e-06       8695.047686
         2.56e-06       8681.196396
         2.57e-06       8682.401006
         2.58e-06       8678.912032
         2.59e-06       8682.507939
          2.6e-06       8675.135281
         2.61e-06       8681.366522
         2.62e-06       8678.713299
         2.63e-06       8663.432933
         2.64e-06        8671.93856
         2.65e-06       8669.682894
         2.66e-06       8655.726589
         2.67e-06       8651.394721
         2.68e-06       8652.689937
         2.69e-06       8634.364697
          2.7e-06       8627.518941
         2.71e-06       8628.920761
         2.72e-06       8622.310754
         2.73e-06       8633.971059
         2.74e-06       8626.070091
         2.75e-06       8619.867633
         2.76e-06       8631.264597
         2.77e-06       8628.204227
         2.78e-06       8624.582137
         2.79e-06       8632.195629
          2.8e-06       8628.118746
         2.81e-06       8627.758701
         2.82e-06       8632.716428
         2.83e-06       8620.321862
         2.84e-06       8618.602833
         2.85e-06       8618.050117
         2.86e-06       8594.392179
         2.87e-06       8599.749141
         2.88e-06       8587.871137
         2.89e-06       8593.596233
          2.9e-06       8586.708865
         2.91e-06       8585.141037
         2.92e-06       8559.627376
         2.93e-06       8542.090438
         2.94e-06       8540.859721
         2.95e-06       8554.836009
         2.96e-06       8572.616948
         2.97e-06       8546.426465
         2.98e-06       8529.804426
         2.99e-06       8540.665523
            3e-06       8546.564614
         3.01e-06       8559.667064
         3.02e-06       8557.333356
         3.03e-06       8542.186792
         3.04e-06       8541.498885
         3.05e-06        8542.58586
         3.06e-06       8541.336608
         3.07e-06       8543.823407
         3.08e-06       8522.159646
         3.09e-06       8518.999848
          3.1e-06        8507.82632
         3.11e-06       8510.091554
         3.12e-06       8501.545221
         3.13e-06       8512.157288
         3.14e-06       8519.081964
         3.15e-06       8512.619945
         3.16e-06       8485.221498
         3.17e-06        8488.69404
         3.18e-06       8490.784066
         3.19e-06       8478.850058
          3.2e-06       8465.744795
         3.21e-06       8472.342532
         3.22e-06       8473.684337
         3.23e-06       8467.844538
         3.24e-06       8471.232386
         3.25e-06       8478.739654
         3.26e-06       8478.887884
         3.27e-06       8473.452357
         3.28e-06        8477.46825
         3.29e-06       8465.895725
          3.3e-06       8483.815276
         3.31e-06       8478.388601
         3.32e-06       8478.056999
         3.33e-06       8489.994444
         3.34e-06       8471.366794
         3.35e-06       8468.257292
         3.36e-06       8460.774543
         3.37e-06       8460.028537
         3.38e-06       8437.621422
         3.39e-06       8412.340658
          3.4e-06       8424.480963
         3.41e-06        8434.07346
         3.42e-06       8428.076289
         3.43e-06       8433.204113
         3.44e-06       8434.022744
         3.45e-06       8429.797913
         3.46e-06       8449.228515
         3.47e-06       8446.649323
         3.48e-06       8449.673719
         3.49e-06       8446.019289
          3.5e-06       8459.136474
         3.51e-06        8434.68152
         3.52e-06       8419.167677
         3.53e-06       8412.871039
         3.54e-06        8400.17584
         3.55e-06       8408.593887
         3.56e-06       8412.351207
         3.57e-06       8418.634724
         3.58e-06       8424.614244
         3.59e-06         8428.4557
          3.6e-06       8427.432625
         3.61e-06       8414.869454
         3.62e-06       8409.526064
         3.63e-06       8422.507149
         3.64e-06       8423.288344
         3.65e-06       8425.071108
         3.66e-06       8424.712976
         3.67e-06       8420.516987
         3.68e-06        8423.39253
         3.69e-06       8423.953301
          3.7e-06       8429.182525
         3.71e-06       8426.106306
         3.72e-06       8416.092289
         3.73e-06       8429.472989
         3.74e-06        8428.33055
         3.75e-06       8420.784515
         3.76e-06       8432.373546
         3.77e-06       8426.014671
         3.78e-06       8405.437401
         3.79e-06       8415.107666
          3.8e-06       8409.652438
         3.81e-06       8403.278426
         3.82e-06       8402.180981
         3.83e-06       8399.599715
         3.84e-06       8399.928857
         3.85e-06       8413.539118
         3.86e-06       8402.464938
         3.87e-06       8391.961053
         3.88e-06       8390.536843
         3.89e-06       8367.554302
          3.9e-06       8350.937744
         3.91e-06       8337.220213
         3.92e-06       8342.742253
         3.93e-06        8342.10461
         3.94e-06       8339.747851
         3.95e-06       8349.541622
         3.96e-06       8348.046022
         3.97e-06       8330.245168
         3.98e-06       8326.205615
         3.99e-06       8345.510653
            4e-06       8356.892127
         4.01e-06       8349.254819
         4.02e-06       8343.774167
         4.03e-06       8340.858122
         4.04e-06       8341.659341
         4.05e-06       8332.903314
         4.06e-06       8329.886109
         4.07e-06       8326.059945
         4.08e-06        8310.78011
         4.09e-06       8328.799208
          4.1e-06       8347.716814
         4.11e-06       8338.642402
         4.12e-06       8332.816211
         4.13e-06       8334.589636
         4.14e-06       8314.465777
         4.15e-06       8322.153578
         4.16e-06       8316.992033
         4.17e-06       8308.807762
         4.18e-06       8312.348011
         4.19e-06       8298.826916
          4.2e-06       8289.737732
         4.21e-06       8276.977103
         4.22e-06       8260.309335
         4.23e-06       8267.207273
         4.24e-06       8266.787635
         4.25e-06       8263.135881
         4.26e-06       8258.811873
         4.27e-06       8255.716657
         4.28e-06       8239.159454
         4.29e-06       8237.734873
          4.3e-06       8255.882377
         4.31e-06       8254.087363
         4.32e-06       8224.199517
         4.33e-06       8222.557298
         4.34e-06       8230.102476
         4.35e-06       8226.928438
         4.36e-06        8237.34492
         4.37e-06        8244.51851
         4.38e-06       8237.529724
         4.39e-06       8210.397517
          4.4e-06       8200.838305
         4.41e-06       8198.044319
         4.42e-06       8203.599289
         4.43e-06       8207.807164
         4.44e-06       8230.390018
         4.45e-06       8223.574042
         4.46e-06       8215.950735
         4.47e-06       8219.589418
         4.48e-06       8222.707332
         4.49e-06        8221.16284
          4.5e-06       8216.930781
         4.51e-06       8203.148749
         4.52e-06        8201.85251
         4.53e-06       8208.075099
         4.54e-06       8210.517568
         4.55e-06       8212.760904
         4.56e-06       8210.714415
         4.57e-06        8222.45823
         4.58e-06       8228.996392
         4.59e-06       8204.927511
          4.6e-06       8208.221281
         4.61e-06       8213.867774
         4.62e-06       8210.495231
         4.63e-06       8208.028544
         4.64e-06       8197.762297
         4.65e-06       8199.228272
         4.66e-06        8190.21154
         4.67e-06       8180.672527
         4.68e-06       8180.681796
         4.69e-06       8174.789669
          4.7e-06       8174.035352
         4.71e-06       8183.133718
         4.72e-06       8177.395578
         4.73e-06       8179.246378
         4.74e-06       8196.625193
         4.75e-06       8207.658951
         4.76e-06       8195.765734
         4.77e-06       8168.361629
         4.78e-06       8154.310132
         4.79e-06       8143.194092
          4.8e-06       8142.919966
         4.81e-06       8149.170671
         4.82e-06       8146.958405
         4.83e-06       8152.638536
         4.84e-06       8149.703047
         4.85e-06       8136.960819
         4.86e-06        8128.17474
         4.87e-06       8125.110076
         4.88e-06       8137.950365
         4.89e-06       8125.672908
          4.9e-06       8131.475546
         4.91e-06       8129.806337
         4.92e-06       8135.634277
         4.93e-06       8140.171274
         4.94e-06       8151.327003
         4.95e-06       8145.287796
         4.96e-06       8149.455079
         4.97e-06       8140.803309
         4.98e-06       8150.152942
         4.99e-06       8149.830177
            5e-06       8156.773669
         5.01e-06       8153.473281
         5.02e-06       8153.751305
         5.03e-06       8153.231489
         5.04e-06       8147.611168
         5.05e-06       8158.390212
         5.06e-06       8170.847702
         5.07e-06       8163.368569
         5.08e-06       8143.981235
         5.09e-06       8145.395066
          5.1e-06       8154.405015
         5.11e-06       8139.344439
         5.12e-06       8128.506008
         5.13e-06       8124.348787
         5.14e-06       8126.735691
         5.15e-06       8126.454967
         5.16e-06       8109.867428
         5.17e-06       8100.356251
         5.18e-06       8110.369674
         5.19e-06       8107.079081
          5.2e-06       8104.077504
         5.21e-06       8112.916194
         5.22e-06       8113.500374
         5.23e-06       8115.803462
         5.24e-06       8120.487311
         5.25e-06       8120.244118
         5.26e-06       8109.315375
         5.27e-06       8086.152496
         5.28e-06       8096.254779
         5.29e-06       8087.860538
          5.3e-06       8100.731652
         5.31e-06       8088.882748
         5.32e-06       8077.075073
         5.33e-06       8070.487894
         5.34e-06       8072.230301
         5.35e-06       8076.470965
         5.36e-06       8069.672356
         5.37e-06       8075.893407
         5.38e-06       8061.492169
         5.39e-06       8060.678553
          5.4e-06       8075.173752
         5.41e-06       8074.769878
         5.42e-06       8070.847345
         5.43e-06       8064.934308
         5.44e-06       8050.472766
         5.45e-06       8079.851751
         5.46e-06       8070.142054
         5.47e-06        8066.60108
         5.48e-06       8057.019286
         5.49e-06       8043.656961
          5.5e-06       8044.238011
         5.51e-06       8053.789651
         5.52e-06       8043.334563
         5.53e-06       8062.733836
         5.54e-06       8060.155999
         5.55e-06       8060.290787
         5.56e-06       8048.043078
         5.57e-06       8066.110849
         5.58e-06       8049.161835
         5.59e-06       8042.622578
          5.6e-06       8032.426601
         5.61e-06       8027.172383
         5.62e-06        8038.06797
         5.63e-06       8034.280461
         5.64e-06       8032.301977
         5.65e-06        8030.60704
         5.66e-06       8025.128815
         5.67e-06       8027.038816
         5.68e-06       8014.918243
         5.69e-06       8010.726115
          5.7e-06       8011.762566
         5.71e-06       7992.888289
         5.72e-06       7994.822832
         5.73e-06       7999.404734
         5.74e-06       7998.444576
         5.75e-06       7991.307668
         5.76e-06       7989.199215
         5.77e-06       8007.313517
         5.78e-06       8014.629939
         5.79e-06       8012.802356
          5.8e-06       8018.609667
         5.81e-06       8011.405751
         5.82e-06        7986.29939
         5.83e-06       7997.247304
         5.84e-06       7989.322941
         5.85e-06       7986.444009
         5.86e-06       7981.025932
         5.87e-06       7990.426993
         5.88e-06        7991.65046
         5.89e-06       8005.677439
          5.9e-06       8004.776294
         5.91e-06       8010.723942
         5.92e-06       8004.232958
         5.93e-06       8001.431526
         5.94e-06       7986.565783
         5.95e-06         7990.1342
         5.96e-06       7986.626301
         5.97e-06       7995.569294
         5.98e-06       8002.836388
         5.99e-06        7997.60286
            6e-06       8006.168609
         6.01e-06       8007.531883
         6.02e-06       8012.179642
         6.03e-06       8009.426636
         6.04e-06       8006.633362
         6.05e-06       8022.242132
         6.06e-06       8027.691371
         6.07e-06       8025.264549
         6.08e-06       7998.499893
         6.09e-06       7986.436339
          6.1e-06       7978.966433
         6.11e-06       7971.313497
         6.12e-06       7979.407006
         6.13e-06       7965.006959
         6.14e-06       7959.942362
         6.15e-06       7961.925632
         6.16e-06       7959.945751
         6.17e-06       7943.761756
         6.18e-06       7947.156065
         6.19e-06       7948.699135
          6.2e-06       7938.428964
         6.21e-06       7930.486208
         6.22e-06       7947.497803
         6.23e-06       7943.983367
         6.24e-06       7933.168985
         6.25e-06       7952.877231
         6.26e-06       7951.691629
         6.27e-06       7940.471698
         6.28e-06       7936.222024
         6.29e-06       7955.121632
          6.3e-06       7955.651116
         6.31e-06       7943.457661
         6.32e-06       7962.672549
         6.33e-06       7966.110067
         6.34e-06       7946.309474
         6.35e-06       7938.771952
         6.36e-06        7939.18302
         6.37e-06       7936.208743
         6.38e-06       7952.959098
         6.39e-06       7936.653587
          6.4e-06        7935.51297
         6.41e-06       7942.147576
         6.42e-06       7935.177283
         6.43e-06       7927.873675
         6.44e-06       7918.685626
         6.45e-06       7910.974539
         6.46e-06        7906.58474
         6.47e-06       7910.521184
         6.48e-06       7912.440662
         6.49e-06       7908.835425
          6.5e-06       7932.705126
         6.51e-06       7904.198346
         6.52e-06       7904.549146
         6.53e-06       7906.986685
         6.54e-06       7896.401264
         6.55e-06        7918.42754
         6.56e-06       7940.637225
         6.57e-06       7928.120597
         6.58e-06       7933.953015
         6.59e-06       7928.714976
          6.6e-06         7919.5763
         6.61e-06       7913.540637
         6.62e-06       7922.026438
         6.63e-06       7917.102496
         6.64e-06       7919.542089
         6.65e-06       7908.253713
         6.66e-06       7915.984632
         6.67e-06       7887.121523
         6.68e-06       7896.287575
         6.69e-06       7905.250893
          6.7e-06        7907.76907
         6.71e-06       7891.882174
         6.72e-06       7884.338498
         6.73e-06       7895.906813
         6.74e-06       7885.265149
         6.75e-06       7901.769745
         6.76e-06        7908.00528
         6.77e-06       7894.462124
         6.78e-06       7894.692219
         6.79e-06       7874.293043
          6.8e-06       7885.161339
         6.81e-06       7885.154637
         6.82e-06        7889.73205
         6.83e-06       7897.229588
         6.84e-06       7891.816826
         6.85e-06       7893.263943
         6.86e-06       7893.410048
         6.87e-06       7889.805342
         6.88e-06       7879.444886
         6.89e-06       7882.494762
          6.9e-06       7880.914701
         6.91e-06       7875.047119
         6.92e-06       7893.302306
         6.93e-06       7888.270272
         6.94e-06       7905.897438
         6.95e-06       7891.796516
         6.96e-06       7902.276736
         6.97e-06       7895.759705
         6.98e-06       7900.075999
         6.99e-06       7883.009344
            7e-06       7879.276849
         7.01e-06       7880.546915
         7.02e-06       7887.746714
         7.03e-06       7893.155218
         7.04e-06       7866.001183
         7.05e-06       7833.355105
         7.06e-06       7830.765942
         7.07e-06       7842.494689
         7.08e-06       7845.081049
         7.09e-06       7832.007921
          7.1e-06        7834.42479
         7.11e-06       7830.549337
         7.12e-06       7829.678618
         7.13e-06       7821.670193
         7.14e-06       7829.346176
         7.15e-06       7840.166777
         7.16e-06       7846.728923
         7.17e-06       7825.315431
         7.18e-06       7831.083607
         7.19e-06       7827.333325
          7.2e-06       7824.989921
         7.21e-06       7805.457211
         7.22e-06       7800.136348
         7.23e-06       7808.746415
         7.24e-06       7808.836084
         7.25e-06       7806.531602
         7.26e-06       7819.324315
         7.27e-06       7837.658097
         7.28e-06       7836.572143
         7.29e-06       7829.700816
          7.3e-06       7843.205376
         7.31e-06        7855.66568
         7.32e-06       7842.368349
         7.33e-06       7852.806228
         7.34e-06       7837.789956
         7.35e-06       7832.974548
         7.36e-06       7825.172438
         7.37e-06        7842.86948
         7.38e-06       7842.161859
         7.39e-06       7846.856317
          7.4e-06       7845.050237
         7.41e-06        7840.23472
         7.42e-06       7841.813131
         7.43e-06       7834.344055
         7.44e-06       7829.538562
         7.45e-06       7819.468288
         7.46e-06        7835.62035
         7.47e-06        7828.08244
         7.48e-06        7827.53746
         7.49e-06        7825.68619
          7.5e-06       7818.106667
         7.51e-06       7820.346036
         7.52e-06       7809.860298
         7.53e-06        7798.88735
         7.54e-06       7814.833716
         7.55e-06       7793.644085
         7.56e-06       7804.442605
         7.57e-06       7817.897293
         7.58e-06       7830.797323
         7.59e-06       7820.303674
          7.6e-06       7819.901168
         7.61e-06       7811.112194
         7.62e-06       7801.012523
         7.63e-06       7806.922236
         7.64e-06        7791.66812
         7.65e-06       7798.049291
         7.66e-06       7795.662517
         7.67e-06       7785.337845
         7.68e-06       7797.743454
         7.69e-06       7810.451885
          7.7e-06       7810.848581
         7.71e-06       7803.498636
         7.72e-06       7798.006569
         7.73e-06       7807.483627
         7.74e-06       7820.362621
         7.75e-06       7814.092437
         7.76e-06       7808.782382
         7.77e-06       7831.263317
         7.78e-06       7832.195859
         7.79e-06       7832.177995
          7.8e-06       7816.203853
         7.81e-06       7810.659423
         7.82e-06       7808.792274
         7.83e-06       7790.863529
         7.84e-06       7784.328288
         7.85e-06       7783.823659
         7.86e-06       7770.831876
         7.87e-06       7789.888221
         7.88e-06       7787.518251
         7.89e-06       7804.500848
          7.9e-06       7815.483812
         7.91e-06        7806.38929
         7.92e-06       7801.318237
         7.93e-06       7798.314461
         7.94e-06       7810.633132
         7.95e-06       7809.692926
         7.96e-06       7795.580712
         7.97e-06       7792.064242
         7.98e-06       7773.442988
         7.99e-06       7774.587352
            8e-06       7767.459289
         8.01e-06       7784.380812
         8.02e-06       7792.342241
         8.03e-06       7788.742208
         8.04e-06       7773.947508
         8.05e-06       7773.207143
         8.06e-06       7769.937828
         8.07e-06       7759.802836
         8.08e-06        7761.61965
         8.09e-06       7742.178992
          8.1e-06       7738.887259
         8.11e-06       7746.205603
         8.12e-06       7751.928171
         8.13e-06       7752.164222
         8.14e-06       7750.818317
         8.15e-06       7754.557252
         8.16e-06       7752.277813
         8.17e-06       7749.339257
         8.18e-06       7759.292638
         8.19e-06       7755.796969
          8.2e-06       7747.481468
         8.21e-06       7750.995822
         8.22e-06        7765.55753
         8.23e-06       7753.246215
         8.24e-06       7750.646437
         8.25e-06       7732.956676
         8.26e-06        7748.08496
         8.27e-06       7754.100924
         8.28e-06       7743.823985
         8.29e-06       7742.100523
          8.3e-06       7737.074044
         8.31e-06       7723.493278