# Probe 0 (5e-06 5e-06 5e-06)
#           Probe                 0
#            Time
            1e-08       9970.490883
            2e-08       9953.690557
            3e-08       9927.051612
            4e-08       9911.615011
            5e-08        9906.15918
            6e-08       9917.275701
            7e-08       9901.085756
            8e-08       9895.770207
            9e-08       9896.269226
            1e-07        9899.13032
          1.1e-07        9887.36616
          1.2e-07       9868.147875
          1.3e-07       9864.185084
          1.4e-07       9845.771344
          1.5e-07       9837.802608
          1.6e-07           9833.24
          1.7e-07         9827.8415
          1.8e-07       9823.162394
          1.9e-07       9807.320865
            2e-07        9789.59379
          2.1e-07       9776.650733
          2.2e-07        9763.26812
          2.3e-07        9753.40223
          2.4e-07       9749.572252
          2.5e-07        9755.47131
          2.6e-07       9750.853431
          2.7e-07        9752.05573
          2.8e-07       9723.993231
          2.9e-07       9722.718724
            3e-07       9713.970919
          3.1e-07       9704.156261
          3.2e-07       9688.498346
          3.3e-07       9673.318498
          3.4e-07       9678.207935
          3.5e-07       9682.958067
          3.6e-07       9677.180054
          3.7e-07       9659.373943
          3.8e-07        9639.49056
          3.9e-07       9631.565407
            4e-07       9622.784501
          4.1e-07       9631.262897
          4.2e-07       9620.479099
          4.3e-07       9609.664686
          4.4e-07        9612.57949
          4.5e-07       9606.943874
          4.6e-07       9606.936433
          4.7e-07       9600.691585
          4.8e-07       9590.859156
          4.9e-07       9575.840188
            5e-07       9573.494973
          5.1e-07       9555.213431
          5.2e-07       9552.644103
          5.3e-07       9535.846348
          5.4e-07       9529.802791
          5.5e-07       9518.458928
          5.6e-07       9518.685093
          5.7e-07       9522.947377
          5.8e-07       9499.135116
          5.9e-07       9493.453808
            6e-07       9485.375555
          6.1e-07       9471.293285
          6.2e-07       9470.239045
          6.3e-07       9454.965437
          6.4e-07       9461.360029
          6.5e-07       9465.677342
          6.6e-07        9462.49063
          6.7e-07       9461.163313
          6.8e-07       9459.496387
          6.9e-07       9460.301752
            7e-07        9434.80127
          7.1e-07       9431.884039
          7.2e-07       9429.781763
          7.3e-07       9423.517143
          7.4e-07       9408.549647
          7.5e-07       9408.823151
          7.6e-07       9413.837236
          7.7e-07       9400.756801
          7.8e-07       9400.920197
          7.9e-07       9388.404799
            8e-07       9400.352695
          8.1e-07       9397.959952
          8.2e-07       9390.441318
          8.3e-07       9377.057565
          8.4e-07       9366.137542
          8.5e-07       9341.511121
          8.6e-07       9340.420572
          8.7e-07       9345.492482
          8.8e-07       9334.267014
          8.9e-07       9327.184038
            9e-07       9322.142264
          9.1e-07       9326.204494
          9.2e-07       9324.628621
          9.3e-07       9311.305762
          9.4e-07       9311.341665
          9.5e-07       9296.771007
          9.6e-07       9291.340946
          9.7e-07        9297.53696
          9.8e-07       9302.944633
          9.9e-07       9286.221541
            1e-06       9279.631131
         1.01e-06       9272.088984
         1.02e-06       9263.132862
         1.03e-06       9259.148319
         1.04e-06       9256.541535
         1.05e-06       9256.378714
         1.06e-06        9253.82542
         1.07e-06       9249.789473
         1.08e-06       9255.798832
         1.09e-06       9239.458482
          1.1e-06        9240.66806
         1.11e-06       9236.783398
         1.12e-06       9237.033548
         1.13e-06        9225.57013
         1.14e-06       9228.486579
         1.15e-06       9224.260986
         1.16e-06       9208.254156
         1.17e-06       9205.436302
         1.18e-06       9201.438126
         1.19e-06       9192.137675
          1.2e-06       9182.129499
         1.21e-06       9167.874548
         1.22e-06        9156.95756
         1.23e-06         9154.1666
         1.24e-06       9157.568655
         1.25e-06       9168.564302
         1.26e-06       9159.309385
         1.27e-06       9154.640271
         1.28e-06       9137.543024
         1.29e-06       9139.511815
          1.3e-06       9129.606071
         1.31e-06       9131.650338
         1.32e-06       9125.423471
         1.33e-06       9117.028619
         1.34e-06       9112.695424
         1.35e-06       9116.242929
         1.36e-06       9117.428795
         1.37e-06        9125.49479
         1.38e-06       9111.951612
         1.39e-06       9115.632646
          1.4e-06       9112.164826
         1.41e-06       9099.854051
         1.42e-06       9102.138261
         1.43e-06        9111.81234
         1.44e-06       9106.719985
         1.45e-06       9089.197458
         1.46e-06       9075.706695
         1.47e-06       9065.812957
         1.48e-06       9073.770082
         1.49e-06        9068.92693
          1.5e-06        9070.30871
         1.51e-06       9049.989576
         1.52e-06       9037.330403
         1.53e-06       9023.953348
         1.54e-06       9020.887619
         1.55e-06       9022.935713
         1.56e-06       8997.376581
         1.57e-06       8991.295663
         1.58e-06       8980.198751
         1.59e-06       8971.716738
          1.6e-06       8984.842323
         1.61e-06       8985.909094
         1.62e-06       8992.011211
         1.63e-06       8994.511026
         1.64e-06       8991.446832
         1.65e-06       8990.850811
         1.66e-06       9003.188932
         1.67e-06       9002.170546
         1.68e-06       8989.378428
         1.69e-06       8984.453202
          1.7e-06       8976.251417
         1.71e-06       8961.210377
         1.72e-06       8955.736686
         1.73e-06       8963.652978
         1.74e-06       8958.620266
         1.75e-06       8950.105129
         1.76e-06       8937.178301
         1.77e-06       8937.107085
         1.78e-06       8937.965984
         1.79e-06       8924.537713
          1.8e-06       8918.775061
         1.81e-06       8923.475995
         1.82e-06       8914.790195
         1.83e-06       8903.041187
         1.84e-06       8902.405749
         1.85e-06          8899.669
         1.86e-06       8912.151185
         1.87e-06        8902.11041
         1.88e-06       8891.799308
         1.89e-06       8889.873647
          1.9e-06       8879.195298
         1.91e-06       8870.307133
         1.92e-06       8860.973262
         1.93e-06       8862.940818
         1.94e-06       8851.017219
         1.95e-06        8845.49743
         1.96e-06       8838.651443
         1.97e-06       8853.732693
         1.98e-06       8852.516507
         1.99e-06       8844.955628
            2e-06       8849.410442
         2.01e-06       8845.824409
         2.02e-06       8843.601034
         2.03e-06       8850.313041
         2.04e-06       8836.632894
         2.05e-06        8829.06715
         2.06e-06        8822.70952
         2.07e-06       8822.138983
         2.08e-06       8809.427263
         2.09e-06       8805.118596
          2.1e-06       8802.638264
         2.11e-06       8813.543013
         2.12e-06       8796.865452
         2.13e-06       8801.924551
         2.14e-06       8802.872834
         2.15e-06       8801.632516
         2.16e-06       8790.651281
         2.17e-06       8775.375744
         2.18e-06       8772.064666
         2.19e-06       8785.368205
          2.2e-06       8773.828534
         2.21e-06       8784.738087
         2.22e-06       8768.068511
         2.23e-06       8762.440915
         2.24e-06       8762.453678
         2.25e-06       8760.287808
         2.26e-06       8750.788571
         2.27e-06       8751.347527
         2.28e-06       8750.457952
         2.29e-06       8745.262815
          2.3e-06       8751.121888
         2.31e-06       8747.559332
         2.32e-06       8742.324515
         2.33e-06       8739.897246
         2.34e-06       8737.780688
         2.35e-06       8747.726128
         2.36e-06       8742.349018
         2.37e-06       8744.675855
         2.38e-06       8734.993471
         2.39e-06       8735.078441
          2.4e-06       8719.501019
         2.41e-06       8709.435799
         2.42e-06       8705.630213
         2.43e-06       8709.491477
         2.44e-06       8714.024906
         2.45e-06       8710.788806
         2.46e-06       8708.889353
         2.47e-06       8702.193708
         2.48e-06       8699.199754
         2.49e-06       8690.039055
          2.5e-06       8702.972927
         2.51e-06       8691.309016
         2.52e-06       8679.242937
         2.53e-06       8677.381884
         2.54e-06       8681.173254
         2.55e-06       8664.763829
         2.56e-06       8671.288683
         2.57e-06       8666.101917
         2.58e-06        8663.96767
         2.59e-06       8657.899823
          2.6e-06       8655.106133
         2.61e-06       8646.582911
         2.62e-06       8641.559262
         2.63e-06       8643.379376
         2.64e-06       8632.360525
         2.65e-06       8629.882795
         2.66e-06       8635.700932
         2.67e-06        8631.87076
         2.68e-06       8627.063525
         2.69e-06       8636.155533
          2.7e-06       8635.669183
         2.71e-06       8631.187484
         2.72e-06       8629.043867
         2.73e-06       8619.050409
         2.74e-06       8619.228704
         2.75e-06        8618.73168
         2.76e-06        8606.70042
         2.77e-06       8602.673113
         2.78e-06       8602.073399
         2.79e-06       8592.382221
          2.8e-06        8591.31503
         2.81e-06        8589.53606
         2.82e-06        8582.20617
         2.83e-06       8587.488709
         2.84e-06       8583.826495
         2.85e-06       8578.813789
         2.86e-06       8591.503718
         2.87e-06       8585.280437
         2.88e-06       8588.438146
         2.89e-06       8578.293398
          2.9e-06        8577.20623
         2.91e-06       8570.925234
         2.92e-06        8579.71935
         2.93e-06       8586.044083
         2.94e-06        8584.68789
         2.95e-06       8571.224466
         2.96e-06       8553.929215
         2.97e-06       8566.111187
         2.98e-06       8573.471829
         2.99e-06       8559.587397
            3e-06       8552.675238
         3.01e-06       8542.006156
         3.02e-06       8538.198314
         3.03e-06       8544.130734
         3.04e-06       8538.187836
         3.05e-06       8531.868695
         3.06e-06       8528.595756
         3.07e-06       8522.507177
         3.08e-06       8531.065359
         3.09e-06       8528.718893
          3.1e-06       8531.799465
         3.11e-06       8528.069508
         3.12e-06        8530.76476
         3.13e-06       8519.549799
         3.14e-06       8514.995845
         3.15e-06       8512.805492
         3.16e-06       8523.798871
         3.17e-06       8519.104813
         3.18e-06        8514.66802
         3.19e-06       8517.094174
          3.2e-06       8523.807274
         3.21e-06       8515.220765
         3.22e-06       8510.451919
         3.23e-06       8509.650595
         3.24e-06       8506.345017
         3.25e-06       8497.779979
         3.26e-06        8493.09195
         3.27e-06         8491.2473
         3.28e-06       8486.212443
         3.29e-06       8488.274531
          3.3e-06       8472.624942
         3.31e-06       8470.957193
         3.32e-06       8467.193021
         3.33e-06       8453.948054
         3.34e-06       8461.189286
         3.35e-06       8459.529216
         3.36e-06       8461.229713
         3.37e-06        8456.64766
         3.38e-06       8467.427574
         3.39e-06       8481.000468
          3.4e-06       8469.255818
         3.41e-06       8458.727118
         3.42e-06       8459.491404
         3.43e-06       8452.526459
         3.44e-06       8446.494905
         3.45e-06        8442.89427
         3.46e-06       8426.309704
         3.47e-06       8424.638901
         3.48e-06       8419.953967
         3.49e-06         8419.9239
          3.5e-06        8407.65249
         3.51e-06       8419.441894
         3.52e-06       8424.859452
         3.53e-06       8425.062672
         3.54e-06        8427.24225
         3.55e-06       8417.069484
         3.56e-06       8411.053212
         3.57e-06       8402.377259
         3.58e-06       8396.328669
         3.59e-06       8391.893993
          3.6e-06       8388.716769
         3.61e-06       8392.344714
         3.62e-06       8393.796239
         3.63e-06       8382.331292
         3.64e-06       8378.662374
         3.65e-06       8372.733533
         3.66e-06       8367.563575
         3.67e-06       8367.098401
         3.68e-06        8362.63902
         3.69e-06       8356.019964
          3.7e-06       8350.411191
         3.71e-06       8349.044015
         3.72e-06       8352.848063
         3.73e-06       8340.265623
         3.74e-06       8337.381803
         3.75e-06       8339.437853
         3.76e-06       8324.919598
         3.77e-06       8327.520228
         3.78e-06       8337.864134
         3.79e-06       8327.496014
          3.8e-06       8327.054927
         3.81e-06        8329.82594
         3.82e-06       8326.076213
         3.83e-06       8324.881388
         3.84e-06       8323.533918
         3.85e-06       8310.053018
         3.86e-06       8313.538201
         3.87e-06       8318.540252
         3.88e-06       8315.320575
         3.89e-06       8329.514058
          3.9e-06       8334.529493
         3.91e-06       8342.425124
         3.92e-06       8335.768129
         3.93e-06       8328.339744
         3.94e-06       8327.781197
         3.95e-06        8317.95414
         3.96e-06       8317.469389
         3.97e-06       8322.559939
         3.98e-06       8321.731839
         3.99e-06       8305.045053
            4e-06       8294.834098
         4.01e-06       8293.813127
         4.02e-06        8293.69306
         4.03e-06       8289.534699
         4.04e-06       8286.095502
         4.05e-06       8288.415558
         4.06e-06       8284.299258
         4.07e-06       8282.879152
         4.08e-06       8288.538483
         4.09e-06       8274.632992
          4.1e-06       8256.585272
         4.11e-06       8261.762094
         4.12e-06       8261.523727
         4.13e-06       8257.225083
         4.14e-06       8269.536229
         4.15e-06       8260.210862
         4.16e-06       8262.316826
         4.17e-06       8264.769868
         4.18e-06       8260.034952
         4.19e-06       8263.921255
          4.2e-06       8265.082278
         4.21e-06       8269.102387
         4.22e-06       8277.468681
         4.23e-06       8272.370642
         4.24e-06       8270.140422
         4.25e-06       8267.346258
         4.26e-06       8267.899028
         4.27e-06        8265.74928
         4.28e-06       8272.446864
         4.29e-06       8269.880944
          4.3e-06       8251.900696
         4.31e-06        8248.30713
         4.32e-06       8265.203075
         4.33e-06       8265.576359
         4.34e-06       8255.817371
         4.35e-06       8256.157884
         4.36e-06       8247.569392
         4.37e-06       8239.196042
         4.38e-06       8241.932316
         4.39e-06       8259.409934
          4.4e-06       8262.844031
         4.41e-06       8260.715697
         4.42e-06       8251.739407
         4.43e-06       8246.270829
         4.44e-06       8225.727464
         4.45e-06       8228.791624
         4.46e-06       8230.202089
         4.47e-06       8223.551334
         4.48e-06       8219.175636
         4.49e-06       8216.344549
          4.5e-06        8214.04223
         4.51e-06       8218.615863
         4.52e-06       8216.097658
         4.53e-06       8206.580879
         4.54e-06       8202.567908
         4.55e-06        8197.37967
         4.56e-06       8196.049334
         4.57e-06       8184.278034
         4.58e-06       8176.215075
         4.59e-06       8190.491114
          4.6e-06       8183.501035
         4.61e-06        8177.46757
         4.62e-06       8176.186963
         4.63e-06       8174.880263
         4.64e-06       8178.341117
         4.65e-06        8173.03247
         4.66e-06       8175.179648
         4.67e-06       8178.134165
         4.68e-06       8176.149967
         4.69e-06       8179.224085
          4.7e-06       8177.327641
         4.71e-06       8170.225713
         4.72e-06       8170.823262
         4.73e-06        8167.02344
         4.74e-06       8152.677562
         4.75e-06       8144.736781
         4.76e-06       8150.449259
         4.77e-06       8165.522532
         4.78e-06       8170.957342
         4.79e-06       8173.632329
          4.8e-06       8169.136656
         4.81e-06       8163.385496
         4.82e-06       8161.638028
         4.83e-06       8154.913175
         4.84e-06       8154.610478
         4.85e-06       8158.818722
         4.86e-06       8162.325368
         4.87e-06       8161.736715
         4.88e-06       8148.784854
         4.89e-06       8154.952507
          4.9e-06       8147.422915
         4.91e-06       8146.256929
         4.92e-06        8142.34914
         4.93e-06       8136.093121
         4.94e-06        8125.36473
         4.95e-06       8125.420989
         4.96e-06       8120.379055
         4.97e-06       8125.393048
         4.98e-06       8115.839845
         4.99e-06       8114.400377
            5e-06        8105.51018
         5.01e-06       8105.745164
         5.02e-06       8102.257045
         5.03e-06       8101.501007
         5.04e-06        8102.52159
         5.05e-06       8090.533567
         5.06e-06       8079.923056
         5.07e-06       8083.476414
         5.08e-06       8094.106899
         5.09e-06       8091.464839
          5.1e-06       8082.952333
         5.11e-06       8088.625562
         5.12e-06       8092.551612
         5.13e-06       8093.606451
         5.14e-06        8090.17025
         5.15e-06       8086.441133
         5.16e-06       8092.191736
         5.17e-06       8093.868371
         5.18e-06       8086.697548
         5.19e-06       8089.143906
          5.2e-06        8089.53957
         5.21e-06       8082.061737
         5.22e-06       8082.547887
         5.23e-06        8077.39286
         5.24e-06       8072.565023
         5.25e-06       8071.458746
         5.26e-06       8077.567525
         5.27e-06       8089.613445
         5.28e-06       8080.024622
         5.29e-06       8081.246596
          5.3e-06       8068.833092
         5.31e-06       8074.877356
         5.32e-06       8081.569938
         5.33e-06       8082.560845
         5.34e-06       8079.403225
         5.35e-06       8072.907971
         5.36e-06       8077.263953
         5.37e-06       8070.361382
         5.38e-06        8077.74215
         5.39e-06       8075.271591
          5.4e-06       8063.914731
         5.41e-06       8059.277821
         5.42e-06       8060.421976
         5.43e-06       8061.361385
         5.44e-06       8067.906427
         5.45e-06       8047.806765
         5.46e-06       8048.929481
         5.47e-06       8049.035379
         5.48e-06       8052.486833
         5.49e-06       8058.813694
          5.5e-06       8055.941707
         5.51e-06       8049.683905
         5.52e-06       8055.650114
         5.53e-06       8039.724467
         5.54e-06       8040.404559
         5.55e-06       8039.964194
         5.56e-06       8045.534953
         5.57e-06       8033.185361
         5.58e-06       8041.983476
         5.59e-06       8042.011799
          5.6e-06       8045.914026
         5.61e-06       8045.936891
         5.62e-06        8036.97418
         5.63e-06       8038.450709
         5.64e-06       8034.868568
         5.65e-06       8032.324511
         5.66e-06        8032.43906
         5.67e-06       8029.535956
         5.68e-06       8034.948492
         5.69e-06       8035.587436
          5.7e-06       8033.218778
         5.71e-06       8046.011954
         5.72e-06       8040.960171
         5.73e-06       8036.263348
         5.74e-06       8036.744543
         5.75e-06       8038.875858
         5.76e-06       8036.123463
         5.77e-06       8020.657505
         5.78e-06       8013.825097
         5.79e-06       8012.030619
          5.8e-06       8008.004208
         5.81e-06       8009.109334
         5.82e-06       8025.536097
         5.83e-06       8017.482569
         5.84e-06       8020.329544
         5.85e-06       8019.827644
         5.86e-06       8019.586121
         5.87e-06       8012.167395
         5.88e-06       8008.636655
         5.89e-06       7997.706717
          5.9e-06       7995.111658
         5.91e-06       7987.666294
         5.92e-06       7988.884541
         5.93e-06       7987.642946
         5.94e-06       7994.823788
         5.95e-06       7988.847168
         5.96e-06       7987.016476
         5.97e-06       7978.727403
         5.98e-06       7972.005833
         5.99e-06       7973.540477
            6e-06       7966.753693
         6.01e-06       7963.406461
         6.02e-06       7958.676616
         6.03e-06       7959.184729
         6.04e-06       7957.561901
         6.05e-06        7943.62661
         6.06e-06       7937.601461
         6.07e-06       7935.753207
         6.08e-06       7952.678892
         6.09e-06       7959.043584
          6.1e-06       7962.583595
         6.11e-06       7966.036889
         6.12e-06       7961.945168
         6.13e-06       7967.913333
         6.14e-06       7967.610824
         6.15e-06       7961.140039
         6.16e-06       7962.718289
         6.17e-06       7969.749478
         6.18e-06       7965.493464
         6.19e-06       7962.660419
          6.2e-06       7967.898105
         6.21e-06       7969.626177
         6.22e-06       7956.487414
         6.23e-06       7955.782703
         6.24e-06        7959.04234
         6.25e-06       7942.286239
         6.26e-06       7938.937199
         6.27e-06       7943.313533
         6.28e-06       7947.180128
         6.29e-06       7931.610213
          6.3e-06        7930.32789
         6.31e-06       7935.769149
         6.32e-06       7921.325699
         6.33e-06        7916.98577
         6.34e-06       7927.093128
         6.35e-06       7929.203119
         6.36e-06       7927.017593
         6.37e-06       7928.171798
         6.38e-06       7915.627318
         6.39e-06       7926.112484
          6.4e-06       7921.984836
         6.41e-06       7914.520415
         6.42e-06       7915.187964
         6.43e-06       7919.104779
         6.44e-06        7923.52763
         6.45e-06       7927.417525
         6.46e-06       7928.601331
         6.47e-06       7923.800058
         6.48e-06       7920.796041
         6.49e-06       7919.398283
          6.5e-06       7902.112587
         6.51e-06       7917.120588
         6.52e-06       7914.524343
         6.53e-06       7912.145104
         6.54e-06       7916.686954
         6.55e-06       7902.504818
         6.56e-06       7886.383247
         6.57e-06       7893.095376
         6.58e-06       7889.280492
         6.59e-06       7891.852137
          6.6e-06       7894.404993
         6.61e-06        7895.99298
         6.62e-06       7889.260867
         6.63e-06       7892.423417
         6.64e-06        7889.81065
         6.65e-06       7894.520887
         6.66e-06       7885.415637
         6.67e-06        7904.73058
         6.68e-06       7895.049604
         6.69e-06       7885.929234
          6.7e-06       7883.150719
         6.71e-06       7891.417065
         6.72e-06       7892.812763
         6.73e-06       7884.144441
         6.74e-06       7890.478218
         6.75e-06       7877.773915
         6.76e-06       7871.847206
         6.77e-06       7879.975038
         6.78e-06       7878.769668
         6.79e-06       7892.139172
          6.8e-06       7882.496446
         6.81e-06       7880.305351
         6.82e-06       7874.109306
         6.83e-06       7868.808536
         6.84e-06       7872.500787
         6.85e-06       7867.888841
         6.86e-06       7866.368562
         6.87e-06       7869.667274
         6.88e-06       7875.537439
         6.89e-06       7872.158299
          6.9e-06       7872.333908
         6.91e-06       7875.233419
         6.92e-06       7862.818459
         6.93e-06       7865.102166
         6.94e-06       7849.923059
         6.95e-06        7855.68362
         6.96e-06       7848.070685
         6.97e-06       7849.739934
         6.98e-06       7843.499014
         6.99e-06       7853.706211
            7e-06       7854.688942
         7.01e-06       7850.805702
         7.02e-06       7843.529876
         7.03e-06       7839.060594
         7.04e-06       7857.024922
         7.05e-06       7877.655072
         7.06e-06       7879.166026
         7.07e-06       7867.286622
         7.08e-06       7864.409482
         7.09e-06       7872.895357
          7.1e-06       7868.146144
         7.11e-06       7869.337987
         7.12e-06          7867.248
         7.13e-06       7871.716293
         7.14e-06       7866.526685
         7.15e-06       7856.863344
         7.16e-06       7852.243848
         7.17e-06       7863.831346
         7.18e-06       7856.644133
         7.19e-06       7859.175179
          7.2e-06       7859.584399
         7.21e-06       7872.081177
         7.22e-06        7874.08259
         7.23e-06       7867.788787
         7.24e-06       7864.006812
         7.25e-06       7861.799008
         7.26e-06       7852.764742
         7.27e-06       7838.215303
         7.28e-06       7836.351446
         7.29e-06       7840.004818
          7.3e-06       7830.243956
         7.31e-06       7818.754619
         7.32e-06       7827.851773
         7.33e-06       7820.521079
         7.34e-06       7826.085219
         7.35e-06       7828.469975
         7.36e-06       7830.942578
         7.37e-06       7816.098263
         7.38e-06       7814.427198
         7.39e-06       7810.736337
          7.4e-06       7809.182166
         7.41e-06       7811.730458
         7.42e-06       7812.774483
         7.43e-06       7816.478191
         7.44e-06       7818.736282
         7.45e-06       7823.994676
         7.46e-06       7809.822685
         7.47e-06       7811.536361
         7.48e-06       7811.371588
         7.49e-06       7809.736044
          7.5e-06       7812.451907
         7.51e-06       7807.883143
         7.52e-06       7815.066259
         7.53e-06        7824.11292
         7.54e-06       7811.431456
         7.55e-06       7822.878141
         7.56e-06       7814.787239
         7.57e-06        7803.91031
         7.58e-06       7794.941053
         7.59e-06        7798.23136
          7.6e-06       7796.048046
         7.61e-06       7800.001075
         7.62e-06       7807.192198
         7.63e-06       7800.216379
         7.64e-06       7809.864613
         7.65e-06        7805.43799
         7.66e-06       7804.166675
         7.67e-06       7810.237882
         7.68e-06       7802.026613
         7.69e-06       7791.299582
          7.7e-06       7790.659015
         7.71e-06        7796.66357
         7.72e-06       7795.748936
         7.73e-06       7787.587845
         7.74e-06       7776.773713
         7.75e-06       7777.864981
         7.76e-06       7779.622704
         7.77e-06       7764.504806
         7.78e-06       7761.167745
         7.79e-06       7763.551143
          7.8e-06       7771.658184
         7.81e-06       7773.504208
         7.82e-06       7774.513745
         7.83e-06       7785.973967
         7.84e-06       7789.714431
         7.85e-06       7789.278846
         7.86e-06       7796.133472
         7.87e-06       7779.845925
         7.88e-06       7779.648612
         7.89e-06       7768.600837
          7.9e-06       7759.403636
         7.91e-06       7766.900256
         7.92e-06       7768.391555
         7.93e-06       7768.060062
         7.94e-06       7759.698752
         7.95e-06       7759.401501
         7.96e-06       7767.162073
         7.97e-06       7768.346285
         7.98e-06       7776.748259
         7.99e-06       7774.998619
            8e-06       7779.080645
         8.01e-06        7769.20814
         8.02e-06       7761.032269
         8.03e-06       7761.992764
         8.04e-06        7770.47249
         8.05e-06       7768.746981
         8.06e-06       7771.804694
         8.07e-06       7774.403471
         8.08e-06       7770.726412
         8.09e-06       7782.105134
          8.1e-06       7784.236102
         8.11e-06       7780.127425
         8.12e-06       7773.583103
         8.13e-06         7772.4222
         8.14e-06       7769.387263
         8.15e-06       7763.221471
         8.16e-06       7761.454569
         8.17e-06       7761.620342
         8.18e-06       7753.492249
         8.19e-06       7754.068236
          8.2e-06        7756.98353
         8.21e-06       7751.830114
         8.22e-06       7739.880479
         8.23e-06       7746.747509
         8.24e-06       7746.488161
         8.25e-06       7756.313716
         8.26e-06       7745.913252
         8.27e-06       7738.226178
         8.28e-06       7744.414424
         8.29e-06       7743.496995
          8.3e-06       7746.015283
         8.31e-06       7754.578783