# Probe 0 (5e-06 5e-06 5e-06)
#           Probe                 0
#            Time
            1e-08       472.1138003
            2e-08       548.9695613
            3e-08       609.5345227
            4e-08       663.6048633
            5e-08       705.3220579
            6e-08       741.6469254
            7e-08       783.0981658
            8e-08       820.4654423
            9e-08        853.384587
            1e-07       881.3519025
          1.1e-07       913.8276797
          1.2e-07       942.8491029
          1.3e-07       971.2827275
          1.4e-07       998.3642051
          1.5e-07       1021.714693
          1.6e-07       1046.833444
          1.7e-07       1070.848304
          1.8e-07       1093.924931
          1.9e-07       1120.535542
            2e-07       1149.956017
          2.1e-07       1173.946523
          2.2e-07       1196.723122
          2.3e-07       1222.473065
          2.4e-07       1247.022427
          2.5e-07       1266.862026
          2.6e-07       1292.622613
          2.7e-07       1310.682658
          2.8e-07       1331.278155
          2.9e-07       1351.955416
            3e-07       1368.385162
          3.1e-07       1386.914024
          3.2e-07       1402.191431
          3.3e-07       1422.750564
          3.4e-07         1438.1467
          3.5e-07       1456.251409
          3.6e-07       1475.553726
          3.7e-07       1492.967427
          3.8e-07       1506.595473
          3.9e-07       1525.228276
            4e-07       1543.754413
          4.1e-07       1561.294365
          4.2e-07       1579.861579
          4.3e-07       1597.321254
          4.4e-07       1614.613795
          4.5e-07       1626.092075
          4.6e-07       1643.815517
          4.7e-07       1662.242032
          4.8e-07       1676.447353
          4.9e-07       1692.314536
            5e-07       1705.456758
          5.1e-07       1717.608587
          5.2e-07       1736.893014
          5.3e-07       1755.188804
          5.4e-07       1767.735861
          5.5e-07       1785.149195
          5.6e-07       1801.799992
          5.7e-07       1812.084292
          5.8e-07       1829.516162
          5.9e-07       1843.539277
            6e-07       1855.498383
          6.1e-07       1868.049521
          6.2e-07       1882.155206
          6.3e-07       1899.100179
          6.4e-07       1913.278777
          6.5e-07       1927.484123
          6.6e-07       1934.426598
          6.7e-07       1947.942309
          6.8e-07       1963.953079
          6.9e-07       1974.937887
            7e-07       1984.404035
          7.1e-07       1998.623055
          7.2e-07       2011.219504
          7.3e-07       2024.449604
          7.4e-07       2038.860211
          7.5e-07        2051.23156
          7.6e-07       2063.339196
          7.7e-07       2083.860679
          7.8e-07       2096.130109
          7.9e-07       2109.055416
            8e-07       2122.089745
          8.1e-07       2139.858041
          8.2e-07       2151.869794
          8.3e-07       2166.312422
          8.4e-07       2179.259203
          8.5e-07       2197.017526
          8.6e-07       2205.456929
          8.7e-07       2214.603615
          8.8e-07       2224.947368
          8.9e-07       2235.871991
            9e-07       2247.253581
          9.1e-07       2259.042126
          9.2e-07       2270.796143
          9.3e-07       2284.594553
          9.4e-07       2294.568064
          9.5e-07       2299.014811
          9.6e-07       2311.834386
          9.7e-07         2319.9355
          9.8e-07       2333.809462
          9.9e-07       2346.721111
            1e-06       2356.117902
         1.01e-06       2369.740548
         1.02e-06       2378.175866
         1.03e-06        2390.20132
         1.04e-06       2398.868725
         1.05e-06       2408.404898
         1.06e-06       2425.401252
         1.07e-06       2436.327172
         1.08e-06       2445.382454
         1.09e-06       2455.497517
          1.1e-06       2464.688014
         1.11e-06       2473.390447
         1.12e-06       2482.909981
         1.13e-06       2489.092604
         1.14e-06       2499.110818
         1.15e-06       2513.006717
         1.16e-06       2524.795761
         1.17e-06       2537.661438
         1.18e-06       2548.255994
         1.19e-06       2552.781024
          1.2e-06       2563.439662
         1.21e-06       2575.751422
         1.22e-06       2587.959656
         1.23e-06       2597.879545
         1.24e-06       2606.642602
         1.25e-06       2617.273438
         1.26e-06       2625.932583
         1.27e-06       2636.434038
         1.28e-06       2647.481495
         1.29e-06       2659.457326
          1.3e-06       2668.004155
         1.31e-06       2678.246527
         1.32e-06       2689.369154
         1.33e-06       2697.570166
         1.34e-06       2709.926041
         1.35e-06        2719.74401
         1.36e-06       2728.698505
         1.37e-06       2738.150861
         1.38e-06       2751.511609
         1.39e-06       2755.208399
          1.4e-06       2761.122124
         1.41e-06       2770.371449
         1.42e-06         2778.4261
         1.43e-06       2790.503326
         1.44e-06       2801.432288
         1.45e-06       2810.762344
         1.46e-06        2820.80276
         1.47e-06       2831.481436
         1.48e-06       2840.753478
         1.49e-06       2846.838028
          1.5e-06       2854.394306
         1.51e-06       2861.235949
         1.52e-06       2868.883301
         1.53e-06       2874.748027
         1.54e-06       2885.904276
         1.55e-06        2894.75497
         1.56e-06       2902.677954
         1.57e-06       2912.400829
         1.58e-06       2920.769411
         1.59e-06       2928.898662
          1.6e-06       2936.930941
         1.61e-06        2947.09262
         1.62e-06       2951.970914
         1.63e-06       2957.913806
         1.64e-06        2966.83783
         1.65e-06       2979.213606
         1.66e-06       2981.437415
         1.67e-06       2986.783379
         1.68e-06       2992.412226
         1.69e-06       2999.411422
          1.7e-06       3007.260058
         1.71e-06       3016.453781
         1.72e-06       3020.659813
         1.73e-06       3035.494779
         1.74e-06       3041.587477
         1.75e-06       3046.238906
         1.76e-06       3055.705061
         1.77e-06       3062.997627
         1.78e-06       3069.769588
         1.79e-06       3080.337793
          1.8e-06       3089.134316
         1.81e-06       3097.527867
         1.82e-06        3107.05072
         1.83e-06       3112.211796
         1.84e-06        3121.73074
         1.85e-06       3130.611257
         1.86e-06       3135.203779
         1.87e-06       3147.094564
         1.88e-06       3153.638751
         1.89e-06       3163.052836
          1.9e-06       3169.829517
         1.91e-06       3177.216601
         1.92e-06       3181.991564
         1.93e-06       3189.399813
         1.94e-06       3191.657282
         1.95e-06       3197.982196
         1.96e-06       3204.799724
         1.97e-06       3212.626663
         1.98e-06       3222.425774
         1.99e-06       3233.537912
            2e-06       3241.922838
         2.01e-06       3251.151296
         2.02e-06       3258.030188
         2.03e-06       3267.278489
         2.04e-06        3274.17816
         2.05e-06       3283.446331
         2.06e-06       3288.724755
         2.07e-06       3295.198721
         2.08e-06       3302.680085
         2.09e-06       3308.284388
          2.1e-06       3315.318045
         2.11e-06       3325.655447
         2.12e-06       3334.186064
         2.13e-06       3337.490061
         2.14e-06       3347.119454
         2.15e-06       3355.809892
         2.16e-06       3363.398009
         2.17e-06       3373.162322
         2.18e-06       3382.760687
         2.19e-06       3388.635769
          2.2e-06        3393.36338
         2.21e-06       3400.149703
         2.22e-06       3410.046608
         2.23e-06       3417.602417
         2.24e-06       3427.986767
         2.25e-06       3436.685432
         2.26e-06       3442.507048
         2.27e-06       3450.595361
         2.28e-06       3455.503798
         2.29e-06       3462.959008
          2.3e-06       3464.851844
         2.31e-06        3471.93181
         2.32e-06       3478.987406
         2.33e-06        3483.33241
         2.34e-06       3488.307678
         2.35e-06       3489.382085
         2.36e-06       3498.653731
         2.37e-06       3504.654876
         2.38e-06       3512.849856
         2.39e-06       3518.079017
          2.4e-06       3524.101235
         2.41e-06       3533.506638
         2.42e-06       3537.497005
         2.43e-06       3543.237002
         2.44e-06       3548.346473
         2.45e-06       3554.691799
         2.46e-06       3560.243339
         2.47e-06        3567.56676
         2.48e-06       3572.627268
         2.49e-06        3573.09365
          2.5e-06       3575.891861
         2.51e-06       3582.793497
         2.52e-06       3590.160496
         2.53e-06        3599.95055
         2.54e-06       3606.802556
         2.55e-06       3614.073151
         2.56e-06       3615.611041
         2.57e-06       3620.876827
         2.58e-06       3627.190463
         2.59e-06       3631.965992
          2.6e-06         3638.8141
         2.61e-06       3642.843386
         2.62e-06       3650.388801
         2.63e-06       3661.914617
         2.64e-06       3666.687266
         2.65e-06       3671.436246
         2.66e-06        3676.13829
         2.67e-06       3684.144868
         2.68e-06       3688.566642
         2.69e-06       3691.289361
          2.7e-06       3698.316659
         2.71e-06       3701.062201
         2.72e-06       3708.902593
         2.73e-06       3709.693555
         2.74e-06       3717.742172
         2.75e-06       3723.301146
         2.76e-06       3729.022407
         2.77e-06        3735.25472
         2.78e-06       3737.649807
         2.79e-06       3742.323449
          2.8e-06       3745.834262
         2.81e-06       3747.810461
         2.82e-06       3751.809165
         2.83e-06       3755.389184
         2.84e-06       3760.782074
         2.85e-06       3767.754956
         2.86e-06       3770.055838
         2.87e-06       3772.356637
         2.88e-06       3777.771322
         2.89e-06       3785.787931
          2.9e-06       3792.316664
         2.91e-06       3799.890097
         2.92e-06        3810.62149
         2.93e-06       3817.263854
         2.94e-06       3818.866282
         2.95e-06       3823.998434
         2.96e-06       3830.407262
         2.97e-06       3837.047643
         2.98e-06       3840.088996
         2.99e-06       3848.167648
            3e-06       3850.256797
         3.01e-06       3851.695951
         3.02e-06       3858.380654
         3.03e-06       3862.604676
         3.04e-06       3869.404339
         3.05e-06       3876.064107
         3.06e-06        3880.70468
         3.07e-06       3885.437745
         3.08e-06       3892.235162
         3.09e-06       3898.289642
          3.1e-06       3902.372062
         3.11e-06       3903.786937
         3.12e-06       3906.500633
         3.13e-06       3910.466616
         3.14e-06       3908.889527
         3.15e-06       3915.545535
         3.16e-06       3924.774788
         3.17e-06        3927.78911
         3.18e-06       3931.684355
         3.19e-06       3937.155891
          3.2e-06       3939.937869
         3.21e-06       3945.594228
         3.22e-06       3948.422243
         3.23e-06       3954.031588
         3.24e-06       3954.981889
         3.25e-06       3959.547798
         3.26e-06       3964.252473
         3.27e-06       3970.578978
         3.28e-06       3971.899828
         3.29e-06       3977.461047
          3.3e-06        3980.03297
         3.31e-06       3985.524077
         3.32e-06       3988.535906
         3.33e-06       3994.976182
         3.34e-06       4000.165069
         3.35e-06       4003.500595
         3.36e-06       4005.562063
         3.37e-06       4011.120797
         3.38e-06       4016.378062
         3.39e-06       4018.068648
          3.4e-06       4022.051799
         3.41e-06        4027.40094
         3.42e-06       4030.851055
         3.43e-06       4035.435535
         3.44e-06       4041.570907
         3.45e-06       4049.534596
         3.46e-06       4053.377251
         3.47e-06       4057.590067
         3.48e-06       4060.275041
         3.49e-06       4063.770001
          3.5e-06       4067.542534
         3.51e-06       4072.286877
         3.52e-06       4076.591257
         3.53e-06       4082.237514
         3.54e-06       4090.474785
         3.55e-06       4096.189479
         3.56e-06       4100.909004
         3.57e-06       4104.610402
         3.58e-06        4106.73863
         3.59e-06       4108.519822
          3.6e-06       4112.405925
         3.61e-06       4118.257865
         3.62e-06       4121.079602
         3.63e-06       4122.421049
         3.64e-06       4125.658936
         3.65e-06       4131.417439
         3.66e-06       4137.221794
         3.67e-06       4139.881025
         3.68e-06       4141.938981
         3.69e-06       4149.638528
          3.7e-06       4151.904327
         3.71e-06        4155.37227
         3.72e-06       4158.262114
         3.73e-06       4161.591093
         3.74e-06       4165.405389
         3.75e-06       4168.664743
         3.76e-06       4177.217071
         3.77e-06       4178.742532
         3.78e-06       4182.047605
         3.79e-06       4187.316973
          3.8e-06       4190.968364
         3.81e-06       4191.522993
         3.82e-06       4197.300162
         3.83e-06       4200.535211
         3.84e-06       4201.644343
         3.85e-06       4205.248925
         3.86e-06       4208.968884
         3.87e-06       4210.101015
         3.88e-06       4214.074909
         3.89e-06       4214.490771
          3.9e-06       4221.860453
         3.91e-06       4222.414887
         3.92e-06       4226.064825
         3.93e-06       4235.928155
         3.94e-06       4238.676759
         3.95e-06       4242.441518
         3.96e-06       4242.972729
         3.97e-06       4249.693434
         3.98e-06       4253.850322
         3.99e-06       4257.221881
            4e-06       4259.554188
         4.01e-06       4266.135131
         4.02e-06       4269.944935
         4.03e-06       4278.048903
         4.04e-06       4281.211799
         4.05e-06       4285.321093
         4.06e-06       4292.477297
         4.07e-06       4295.524288
         4.08e-06       4300.371571
         4.09e-06       4301.825708
          4.1e-06       4307.711268
         4.11e-06       4308.565221
         4.12e-06       4312.973342
         4.13e-06       4315.627347
         4.14e-06        4316.78124
         4.15e-06       4319.919756
         4.16e-06       4320.704369
         4.17e-06       4323.727377
         4.18e-06       4326.404159
         4.19e-06       4331.388312
          4.2e-06       4335.841527
         4.21e-06       4341.840352
         4.22e-06       4344.562774
         4.23e-06       4343.916782
         4.24e-06       4346.823709
         4.25e-06        4352.72958
         4.26e-06       4353.721546
         4.27e-06       4359.880742
         4.28e-06       4364.770913
         4.29e-06       4368.622906
          4.3e-06       4376.441758
         4.31e-06       4380.546986
         4.32e-06       4383.498955
         4.33e-06       4383.106901
         4.34e-06       4389.102843
         4.35e-06       4392.492697
         4.36e-06       4394.337468
         4.37e-06       4397.865497
         4.38e-06       4398.787837
         4.39e-06       4398.349727
          4.4e-06       4401.554807
         4.41e-06       4404.875071
         4.42e-06       4412.206935
         4.43e-06       4414.858265
         4.44e-06       4422.166356
         4.45e-06        4423.78006
         4.46e-06       4427.399275
         4.47e-06       4431.686842
         4.48e-06       4432.816333
         4.49e-06       4436.988426
          4.5e-06       4444.433235
         4.51e-06       4450.033777
         4.52e-06       4453.652074
         4.53e-06       4460.381313
         4.54e-06       4463.469244
         4.55e-06       4467.640112
         4.56e-06           4470.82
         4.57e-06       4476.096559
         4.58e-06       4480.382131
         4.59e-06       4481.188536
          4.6e-06       4486.441542
         4.61e-06        4488.90668
         4.62e-06       4492.039857
         4.63e-06       4494.458791
         4.64e-06       4497.545733
         4.65e-06       4502.429371
         4.66e-06       4507.427961
         4.67e-06         4510.5606
         4.68e-06       4512.863954
         4.69e-06       4513.508884
          4.7e-06       4516.134632
         4.71e-06       4518.000256
         4.72e-06       4520.464674
         4.73e-06       4522.099912
         4.74e-06       4525.047884
         4.75e-06       4524.656361
         4.76e-06        4526.52184
         4.77e-06       4529.009097
         4.78e-06       4533.453776
         4.79e-06       4537.944332
          4.8e-06       4542.826166
         4.81e-06       4543.655135
         4.82e-06       4546.717662
         4.83e-06       4549.066311
         4.84e-06       4551.760287
         4.85e-06       4556.664539
         4.86e-06       4559.565545
         4.87e-06       4562.673682
         4.88e-06       4566.449377
         4.89e-06       4568.820634
          4.9e-06       4572.204767
         4.91e-06       4575.496719
         4.92e-06       4574.760067
         4.93e-06       4578.926693
         4.94e-06       4583.576559
         4.95e-06       4586.891199
         4.96e-06       4590.136691
         4.97e-06       4588.755642
         4.98e-06       4591.770911
         4.99e-06       4592.461419
            5e-06       4597.571053
         5.01e-06       4599.826585
         5.02e-06       4604.015312
         5.03e-06        4603.55502
         5.04e-06       4606.247704
         5.05e-06       4611.955066
         5.06e-06       4613.588977
         5.07e-06        4615.17684
         5.08e-06       4617.846243
         5.09e-06       4619.411036
          5.1e-06        4621.59711
         5.11e-06       4626.544389
         5.12e-06       4629.673722
         5.13e-06       4631.238358
         5.14e-06       4634.022437
         5.15e-06       4639.544384
         5.16e-06       4645.595221
         5.17e-06       4651.323675
         5.18e-06       4651.185643
         5.19e-06       4649.598266
          5.2e-06        4650.40346
         5.21e-06       4651.576733
         5.22e-06       4650.265427
         5.23e-06       4653.946249
         5.24e-06       4654.728409
         5.25e-06       4656.108679
         5.26e-06       4655.648591
         5.27e-06       4659.904339
         5.28e-06       4662.848768
         5.29e-06       4668.001345
          5.3e-06       4672.049644
         5.31e-06       4672.486668
         5.32e-06       4673.084699
         5.33e-06       4676.534816
         5.34e-06       4677.799835
         5.35e-06       4681.755808
         5.36e-06       4680.996823
         5.37e-06       4683.572752
         5.38e-06       4686.171625
         5.39e-06       4688.333478
          5.4e-06       4689.368393
         5.41e-06       4695.370732
         5.42e-06       4696.198617
         5.43e-06       4699.579092
         5.44e-06        4701.99366
         5.45e-06       4703.833299
         5.46e-06       4709.857925
         5.47e-06       4711.927385
         5.48e-06       4715.077496
         5.49e-06       4717.652711
          5.5e-06       4720.296849
         5.51e-06       4721.561416
         5.52e-06       4722.711012
         5.53e-06       4726.297683
         5.54e-06       4727.240317
         5.55e-06       4726.573577
         5.56e-06       4729.355469
         5.57e-06       4729.263507
         5.58e-06       4731.769458
         5.59e-06       4736.367403
          5.6e-06       4738.666312
         5.61e-06       4743.034125
         5.62e-06       4743.470898
         5.63e-06       4744.942122
         5.64e-06       4751.447485
         5.65e-06       4755.539027
         5.66e-06       4758.963869
         5.67e-06       4759.998198
         5.68e-06       4762.825324
         5.69e-06       4765.468515
          5.7e-06        4766.24997
         5.71e-06       4766.341906
         5.72e-06       4771.444225
         5.73e-06       4772.708281
         5.74e-06       4773.167935
         5.75e-06       4774.592852
         5.76e-06       4778.913471
         5.77e-06       4784.038273
         5.78e-06       4786.152481
         5.79e-06       4788.657315
          5.8e-06       4787.600235
         5.81e-06       4792.793631
         5.82e-06       4792.977465
         5.83e-06       4794.310248
         5.84e-06       4796.768967
         5.85e-06       4799.434443
         5.86e-06       4803.639349
         5.87e-06        4804.05294
         5.88e-06       4807.637333
         5.89e-06       4809.544374
          5.9e-06       4813.036714
         5.91e-06       4818.757521
         5.92e-06       4823.237497
         5.93e-06        4826.82137
         5.94e-06       4828.911918
         5.95e-06       4832.082136
         5.96e-06       4837.181895
         5.97e-06       4839.088512
         5.98e-06       4840.742422
         5.99e-06       4842.557106
            6e-06        4843.84345
         6.01e-06        4846.37016
         6.02e-06       4849.654813
         6.03e-06       4850.320921
         6.04e-06       4854.271567
         6.05e-06       4858.084289
         6.06e-06       4859.944676
         6.07e-06       4863.045262
         6.08e-06        4862.74669
         6.09e-06       4865.273048
          6.1e-06       4867.753426
         6.11e-06       4870.141896
         6.12e-06       4866.995537
         6.13e-06       4871.680599
         6.14e-06       4875.653589
         6.15e-06       4881.693233
         6.16e-06       4879.947964
         6.17e-06       4885.367411
         6.18e-06       4888.191868
         6.19e-06       4890.832569
          6.2e-06       4891.682175
         6.21e-06       4895.080548
         6.22e-06        4897.58335
         6.23e-06       4901.303028
         6.24e-06       4905.780286
         6.25e-06       4910.509951
         6.26e-06       4915.928207
         6.27e-06       4918.591341
         6.28e-06       4915.537916
         6.29e-06       4917.856688
          6.3e-06       4919.188243
         6.31e-06       4921.300339
         6.32e-06       4922.540032
         6.33e-06        4924.19294
         6.34e-06       4928.256257
         6.35e-06       4931.860344
         6.36e-06       4933.995206
         6.37e-06       4934.844551
         6.38e-06       4937.140051
         6.39e-06       4936.198901
          6.4e-06       4942.695011
         6.41e-06       4945.724897
         6.42e-06       4951.027045
         6.43e-06        4950.04008
         6.44e-06       4953.414095
         6.45e-06       4953.528856
         6.46e-06       4953.987899
         6.47e-06        4956.51261
         6.48e-06       4958.555299
         6.49e-06       4963.191406
          6.5e-06       4964.568439
         6.51e-06       4968.217513
         6.52e-06       4970.282985
         6.53e-06       4969.846943
         6.54e-06       4973.633579
         6.55e-06       4973.495885
         6.56e-06       4975.194103
         6.57e-06       4976.226793
         6.58e-06       4975.377693
         6.59e-06       4975.905512
          6.6e-06        4979.80673
         6.61e-06       4982.629311
         6.62e-06       4983.753739
         6.63e-06        4982.92763
         6.64e-06       4982.422783
         6.65e-06       4985.612468
         6.66e-06        4989.88057
         6.67e-06       4989.238068
         6.68e-06       4994.102658
         6.69e-06       4997.223253
          6.7e-06        4997.77394
         6.71e-06       5000.091389
         6.72e-06       5004.886789
         6.73e-06       5005.322727
         6.74e-06       5005.253894
         6.75e-06       5007.181184
         6.76e-06       5009.337882
         6.77e-06       5009.842637
         6.78e-06       5010.117957
         6.79e-06       5009.704977
          6.8e-06       5012.366385
         6.81e-06       5014.408295
         6.82e-06       5017.551406
         6.83e-06       5017.367868
         6.84e-06       5017.092562
         6.85e-06       5020.327383
         6.86e-06       5021.818589
         6.87e-06       5019.386768
         6.88e-06       5019.685012
         6.89e-06       5020.900925
          6.9e-06       5021.887413
         6.91e-06       5022.552716
         6.92e-06       5023.103308
         6.93e-06       5024.548604
         6.94e-06       5029.802024
         6.95e-06       5033.564186
         6.96e-06       5033.403608
         6.97e-06       5036.546321
         6.98e-06       5040.606518
         6.99e-06       5041.157044
            7e-06       5042.097523
         7.01e-06       5045.400621
         7.02e-06       5047.671459
         7.03e-06       5047.992585
         7.04e-06       5046.845704
         7.05e-06       5047.258582
         7.06e-06       5046.753953
         7.07e-06       5052.052476
         7.08e-06       5053.635116
         7.09e-06       5053.841546
          7.1e-06        5058.70404
         7.11e-06       5060.263676
         7.12e-06       5062.603099
         7.13e-06       5063.818667
         7.14e-06       5064.483786
         7.15e-06       5066.479124
         7.16e-06       5065.676405
         7.17e-06       5068.428567
         7.18e-06       5072.969526
         7.19e-06       5072.235643
          7.2e-06        5073.54287
         7.21e-06       5073.336467
         7.22e-06       5075.950892
         7.23e-06       5076.776491
         7.24e-06       5080.583361
         7.25e-06       5085.605536
         7.26e-06       5085.880719
         7.27e-06       5087.600601
         7.28e-06       5089.985474
         7.29e-06       5090.191855
          7.3e-06        5090.65048
         7.31e-06       5094.594595
         7.32e-06       5093.264613
         7.33e-06       5092.484964
         7.34e-06        5098.51568
         7.35e-06        5099.15772
         7.36e-06       5102.230302
         7.37e-06       5106.747348
         7.38e-06       5109.384142
         7.39e-06       5109.131929
          7.4e-06       5112.341884
         7.41e-06       5111.378905
         7.42e-06       5106.540988
         7.43e-06       5107.939643
         7.44e-06       5107.756213
         7.45e-06       5109.131929
         7.46e-06         5112.8463
         7.47e-06       5117.064987
         7.48e-06       5118.624038
         7.49e-06       5122.773791
          7.5e-06       5125.410319
         7.51e-06       5129.284788
         7.52e-06       5128.895053
         7.53e-06       5126.671251
         7.54e-06       5128.321911
         7.55e-06       5132.265085
         7.56e-06       5132.402636
         7.57e-06       5133.755213
         7.58e-06       5133.182089
         7.59e-06       5136.918823
          7.6e-06       5139.921902
         7.61e-06        5141.29734
         7.62e-06       5140.128219
         7.63e-06        5144.18572
         7.64e-06       5142.741536
         7.65e-06       5142.443529
         7.66e-06       5144.369107
         7.67e-06       5143.773097
         7.68e-06       5142.581071
         7.69e-06       5145.927892
          7.7e-06       5146.546818
         7.71e-06       5145.469428
         7.72e-06       5151.131374
         7.73e-06       5153.606981
         7.74e-06       5156.907731
         7.75e-06       5160.873127
         7.76e-06       5162.431753
         7.77e-06        5162.61512
         7.78e-06        5165.54896
         7.79e-06       5162.592199
          7.8e-06       5165.686483
         7.81e-06       5168.459828
         7.82e-06       5167.863906
         7.83e-06       5166.717898
         7.84e-06       5167.772226
         7.85e-06       5168.849468
         7.86e-06       5171.439403
         7.87e-06       5176.389961
         7.88e-06        5179.07145
         7.89e-06       5178.177625
          7.9e-06       5180.011107
         7.91e-06       5176.985851
         7.92e-06       5180.331965
         7.93e-06       5184.090532
         7.94e-06       5184.021778
         7.95e-06        5185.71769
         7.96e-06        5188.37611
         7.97e-06       5189.682388
         7.98e-06       5195.434468
         7.99e-06        5196.03029
            8e-06       5196.488613
         8.01e-06       5193.761573
         8.02e-06       5197.863574
         8.03e-06       5198.665629
         8.04e-06       5199.330186
         8.05e-06        5201.48425
         8.06e-06       5199.123945
         8.07e-06       5204.073673
         8.08e-06       5207.556726
         8.09e-06       5208.771195
          8.1e-06       5208.267077
         8.11e-06       5207.762958
         8.12e-06       5210.329369
         8.13e-06        5210.83348
         8.14e-06       5216.928531
         8.15e-06       5222.542197
         8.16e-06       5226.437284
         8.17e-06       5228.980498
         8.18e-06       5230.538484
         8.19e-06       5232.417213
          8.2e-06       5236.082966
         8.21e-06        5238.96969
         8.22e-06       5242.612392
         8.23e-06       5245.040816
         8.24e-06       5246.988113
         8.25e-06       5248.110662
         8.26e-06        5248.40848
         8.27e-06       5253.242221
         8.28e-06       5253.746205
         8.29e-06       5255.807942
          8.3e-06       5257.388591
         8.31e-06       5256.815894