# Probe 0 (5e-06 5e-06 5e-06)
#       Probe             0
#        Time
        1e-09      0.333337
        2e-09      0.333343
        3e-09       0.33335
        4e-09      0.333359
        5e-09      0.333369
        6e-09      0.333381
        7e-09      0.333394
        8e-09      0.333409
        9e-09      0.333426
        1e-08      0.333445
      1.1e-08      0.333465
      1.2e-08      0.333486
      1.3e-08      0.333509
      1.4e-08      0.333534
      1.5e-08      0.333561
      1.6e-08      0.333589
      1.7e-08      0.333619
      1.8e-08       0.33365
      1.9e-08      0.333683
        2e-08      0.333718
      2.1e-08      0.333754
      2.2e-08      0.333792
      2.3e-08      0.333831
      2.4e-08      0.333873
      2.5e-08      0.333915
      2.6e-08       0.33396
      2.7e-08      0.334005
      2.8e-08      0.334053
      2.9e-08      0.334102
        3e-08      0.334153
      3.1e-08      0.334205
      3.2e-08      0.334258
      3.3e-08      0.334314
      3.4e-08      0.334371
      3.5e-08      0.334429
      3.6e-08      0.334489
      3.7e-08       0.33455
      3.8e-08      0.334613
      3.9e-08      0.334677
        4e-08      0.334743
      4.1e-08       0.33481
      4.2e-08      0.334879
      4.3e-08      0.334949
      4.4e-08      0.335021
      4.5e-08      0.335094
      4.6e-08      0.335169
      4.7e-08      0.335244
      4.8e-08      0.335322
      4.9e-08        0.3354
        5e-08       0.33548
      5.1e-08      0.335562
      5.2e-08      0.335645
      5.3e-08      0.335729
      5.4e-08      0.335814
      5.5e-08      0.335901
      5.6e-08      0.335989
      5.7e-08      0.336078
      5.8e-08      0.336169
      5.9e-08      0.336261
        6e-08      0.336354
      6.1e-08      0.336449
      6.2e-08      0.336544
      6.3e-08      0.336641
      6.4e-08      0.336739
      6.5e-08      0.336839
      6.6e-08      0.336939
      6.7e-08      0.337041
      6.8e-08      0.337144
      6.9e-08      0.337248
        7e-08      0.337353
      7.1e-08      0.337459
      7.2e-08      0.337567
      7.3e-08      0.337676
      7.4e-08      0.337785
      7.5e-08      0.337896
      7.6e-08      0.338008
      7.7e-08      0.338121
      7.8e-08      0.338235
      7.9e-08       0.33835
        8e-08      0.338466
      8.1e-08      0.338584
      8.2e-08      0.338702
      8.3e-08      0.338821
      8.4e-08      0.338941
      8.5e-08      0.339063
      8.6e-08      0.339185
      8.7e-08      0.339308
      8.8e-08      0.339432
      8.9e-08      0.339558
        9e-08      0.339684
      9.1e-08      0.339811
      9.2e-08      0.339939
      9.3e-08      0.340068
      9.4e-08      0.340198
      9.5e-08      0.340328
      9.6e-08       0.34046
      9.7e-08      0.340592
      9.8e-08      0.340726
      9.9e-08       0.34086
        1e-07      0.340995
     1.01e-07      0.341131
     1.02e-07      0.341268
     1.03e-07      0.341405
     1.04e-07      0.341544
     1.05e-07      0.341683
     1.06e-07      0.341823
     1.07e-07      0.341964
     1.08e-07      0.342106
     1.09e-07      0.342248
      1.1e-07      0.342391
     1.11e-07      0.342535
     1.12e-07       0.34268
     1.13e-07      0.342825
     1.14e-07      0.342971
     1.15e-07      0.343118
     1.16e-07      0.343266
     1.17e-07      0.343414
     1.18e-07      0.343563
     1.19e-07      0.343712
      1.2e-07      0.343863
     1.21e-07      0.344014
     1.22e-07      0.344166
     1.23e-07      0.344318
     1.24e-07      0.344471
     1.25e-07      0.344625
     1.26e-07      0.344779
     1.27e-07      0.344934
     1.28e-07      0.345089
     1.29e-07      0.345245
      1.3e-07      0.345402
     1.31e-07       0.34556
     1.32e-07      0.345718
     1.33e-07      0.345876
     1.34e-07      0.346035
     1.35e-07      0.346195
     1.36e-07      0.346355
     1.37e-07      0.346516
     1.38e-07      0.346677
     1.39e-07      0.346839
      1.4e-07      0.347002
     1.41e-07      0.347165
     1.42e-07      0.347328
     1.43e-07      0.347492
     1.44e-07      0.347657
     1.45e-07      0.347822
     1.46e-07      0.347988
     1.47e-07      0.348154
     1.48e-07       0.34832
     1.49e-07      0.348487
      1.5e-07      0.348655
     1.51e-07      0.348823
     1.52e-07      0.348991
     1.53e-07       0.34916
     1.54e-07      0.349329
     1.55e-07      0.349499
     1.56e-07      0.349669
     1.57e-07       0.34984
     1.58e-07      0.350011
     1.59e-07      0.350183
      1.6e-07      0.350354
     1.61e-07      0.350527
     1.62e-07        0.3507
     1.63e-07      0.350873
     1.64e-07      0.351046
     1.65e-07       0.35122
     1.66e-07      0.351394
     1.67e-07      0.351569
     1.68e-07      0.351744
     1.69e-07      0.351919
      1.7e-07      0.352095
     1.71e-07      0.352271
     1.72e-07      0.352448
     1.73e-07      0.352625
     1.74e-07      0.352802
     1.75e-07      0.352979
     1.76e-07      0.353157
     1.77e-07      0.353335
     1.78e-07      0.353514
     1.79e-07      0.353692
      1.8e-07      0.353872
     1.81e-07      0.354051
     1.82e-07      0.354231
     1.83e-07      0.354411
     1.84e-07      0.354591
     1.85e-07      0.354772
     1.86e-07      0.354952
     1.87e-07      0.355134
     1.88e-07      0.355315
     1.89e-07      0.355497
      1.9e-07      0.355679
     1.91e-07      0.355861
     1.92e-07      0.356043
     1.93e-07      0.356226
     1.94e-07      0.356409
     1.95e-07      0.356592
     1.96e-07      0.356776
     1.97e-07      0.356959
     1.98e-07      0.357143
     1.99e-07      0.357327
        2e-07      0.357512
     2.01e-07      0.357696
     2.02e-07      0.357881
     2.03e-07      0.358066
     2.04e-07      0.358251
     2.05e-07      0.358437
     2.06e-07      0.358622
     2.07e-07      0.358808
     2.08e-07      0.358994
     2.09e-07       0.35918
      2.1e-07      0.359367
     2.11e-07      0.359553
     2.12e-07       0.35974
     2.13e-07      0.359927
     2.14e-07      0.360114
     2.15e-07      0.360301
     2.16e-07      0.360489
     2.17e-07      0.360676
     2.18e-07      0.360864
     2.19e-07      0.361052
      2.2e-07       0.36124
     2.21e-07      0.361428
     2.22e-07      0.361617
     2.23e-07      0.361805
     2.24e-07      0.361994
     2.25e-07      0.362183
     2.26e-07      0.362372
     2.27e-07      0.362561
     2.28e-07       0.36275
     2.29e-07      0.362939
      2.3e-07      0.363128
     2.31e-07      0.363318
     2.32e-07      0.363507
     2.33e-07      0.363697
     2.34e-07      0.363887
     2.35e-07      0.364077
     2.36e-07      0.364267
     2.37e-07      0.364457
     2.38e-07      0.364647
     2.39e-07      0.364838
      2.4e-07      0.365028
     2.41e-07      0.365219
     2.42e-07      0.365409
     2.43e-07        0.3656
     2.44e-07      0.365791
     2.45e-07      0.365981
     2.46e-07      0.366172
     2.47e-07      0.366363
     2.48e-07      0.366554
     2.49e-07      0.366745
      2.5e-07      0.366936
     2.51e-07      0.367128
     2.52e-07      0.367319
     2.53e-07       0.36751
     2.54e-07      0.367702
     2.55e-07      0.367893
     2.56e-07      0.368085
     2.57e-07      0.368276
     2.58e-07      0.368468
     2.59e-07      0.368659
      2.6e-07      0.368851
     2.61e-07      0.369043
     2.62e-07      0.369234
     2.63e-07      0.369426
     2.64e-07      0.369618
     2.65e-07       0.36981
     2.66e-07      0.370002
     2.67e-07      0.370194
     2.68e-07      0.370385
     2.69e-07      0.370577
      2.7e-07      0.370769
     2.71e-07      0.370961
     2.72e-07      0.371153
     2.73e-07      0.371345
     2.74e-07      0.371537
     2.75e-07      0.371729
     2.76e-07      0.371921
     2.77e-07      0.372113
     2.78e-07      0.372305
     2.79e-07      0.372497
      2.8e-07      0.372689
     2.81e-07      0.372881
     2.82e-07      0.373073
     2.83e-07      0.373265
     2.84e-07      0.373457
     2.85e-07      0.373649
     2.86e-07      0.373841
     2.87e-07      0.374033
     2.88e-07      0.374225
     2.89e-07      0.374417
      2.9e-07      0.374608
     2.91e-07        0.3748
     2.92e-07      0.374992
     2.93e-07      0.375184
     2.94e-07      0.375376
     2.95e-07      0.375567
     2.96e-07      0.375759
     2.97e-07      0.375951
     2.98e-07      0.376142
     2.99e-07      0.376334
        3e-07      0.376526
     3.01e-07      0.376717
     3.02e-07      0.376909
     3.03e-07        0.3771
     3.04e-07      0.377291
     3.05e-07      0.377483
     3.06e-07      0.377674
     3.07e-07      0.377865
     3.08e-07      0.378057
     3.09e-07      0.378248
      3.1e-07      0.378439
     3.11e-07       0.37863
     3.12e-07      0.378821
     3.13e-07      0.379012
     3.14e-07      0.379203
     3.15e-07      0.379394
     3.16e-07      0.379584
     3.17e-07      0.379775
     3.18e-07      0.379966
     3.19e-07      0.380156
      3.2e-07      0.380347
     3.21e-07      0.380537
     3.22e-07      0.380728
     3.23e-07      0.380918
     3.24e-07      0.381108
     3.25e-07      0.381298
     3.26e-07      0.381488
     3.27e-07      0.381678
     3.28e-07      0.381868
     3.29e-07      0.382058
      3.3e-07      0.382248
     3.31e-07      0.382438
     3.32e-07      0.382627
     3.33e-07      0.382817
     3.34e-07      0.383006
     3.35e-07      0.383196
     3.36e-07      0.383385
     3.37e-07      0.383574
     3.38e-07      0.383764
     3.39e-07      0.383953
      3.4e-07      0.384142
     3.41e-07       0.38433
     3.42e-07      0.384519
     3.43e-07      0.384708
     3.44e-07      0.384896
     3.45e-07      0.385085
     3.46e-07      0.385273
     3.47e-07      0.385462
     3.48e-07       0.38565
     3.49e-07      0.385838
      3.5e-07      0.386026
     3.51e-07      0.386214
     3.52e-07      0.386402
     3.53e-07       0.38659
     3.54e-07      0.386777
     3.55e-07      0.386965
     3.56e-07      0.387152
     3.57e-07      0.387339
     3.58e-07      0.387527
     3.59e-07      0.387714
      3.6e-07      0.387901
     3.61e-07      0.388088
     3.62e-07      0.388274
     3.63e-07      0.388461
     3.64e-07      0.388648
     3.65e-07      0.388834
     3.66e-07       0.38902
     3.67e-07      0.389207
     3.68e-07      0.389393
     3.69e-07      0.389579
      3.7e-07      0.389765
     3.71e-07       0.38995
     3.72e-07      0.390136
     3.73e-07      0.390322
     3.74e-07      0.390507
     3.75e-07      0.390692
     3.76e-07      0.390878
     3.77e-07      0.391063
     3.78e-07      0.391248
     3.79e-07      0.391432
      3.8e-07      0.391617
     3.81e-07      0.391802
     3.82e-07      0.391986
     3.83e-07       0.39217
     3.84e-07      0.392355
     3.85e-07      0.392539
     3.86e-07      0.392723
     3.87e-07      0.392906
     3.88e-07       0.39309
     3.89e-07      0.393274
      3.9e-07      0.393457
     3.91e-07      0.393641
     3.92e-07      0.393824
     3.93e-07      0.394007
     3.94e-07       0.39419
     3.95e-07      0.394373
     3.96e-07      0.394555
     3.97e-07      0.394738
     3.98e-07       0.39492
     3.99e-07      0.395102
        4e-07      0.395285
     4.01e-07      0.395467
     4.02e-07      0.395648
     4.03e-07       0.39583
     4.04e-07      0.396012
     4.05e-07      0.396193
     4.06e-07      0.396375
     4.07e-07      0.396556
     4.08e-07      0.396737
     4.09e-07      0.396918
      4.1e-07      0.397099
     4.11e-07      0.397279
     4.12e-07       0.39746
     4.13e-07       0.39764
     4.14e-07       0.39782
     4.15e-07         0.398
     4.16e-07       0.39818
     4.17e-07       0.39836
     4.18e-07       0.39854
     4.19e-07      0.398719
      4.2e-07      0.398899
     4.21e-07      0.399078
     4.22e-07      0.399257
     4.23e-07      0.399436
     4.24e-07      0.399615
     4.25e-07      0.399793
     4.26e-07      0.399972
     4.27e-07       0.40015
     4.28e-07      0.400329
     4.29e-07      0.400507
      4.3e-07      0.400685
     4.31e-07      0.400862
     4.32e-07       0.40104
     4.33e-07      0.401218
     4.34e-07      0.401395
     4.35e-07      0.401572
     4.36e-07      0.401749
     4.37e-07      0.401926
     4.38e-07      0.402103
     4.39e-07      0.402279
      4.4e-07      0.402456
     4.41e-07      0.402632
     4.42e-07      0.402808
     4.43e-07      0.402984
     4.44e-07       0.40316
     4.45e-07      0.403336
     4.46e-07      0.403512
     4.47e-07      0.403687
     4.48e-07      0.403862
     4.49e-07      0.404037
      4.5e-07      0.404212
     4.51e-07      0.404387
     4.52e-07      0.404562
     4.53e-07      0.404736
     4.54e-07      0.404911
     4.55e-07      0.405085
     4.56e-07      0.405259
     4.57e-07      0.405433
     4.58e-07      0.405607
     4.59e-07       0.40578
      4.6e-07      0.405954
     4.61e-07      0.406127
     4.62e-07        0.4063
     4.63e-07      0.406473
     4.64e-07      0.406646
     4.65e-07      0.406818
     4.66e-07      0.406991
     4.67e-07      0.407163
     4.68e-07      0.407335
     4.69e-07      0.407507
      4.7e-07      0.407679
     4.71e-07      0.407851
     4.72e-07      0.408023
     4.73e-07      0.408194
     4.74e-07      0.408365
     4.75e-07      0.408536
     4.76e-07      0.408707
     4.77e-07      0.408878
     4.78e-07      0.409049
     4.79e-07      0.409219
      4.8e-07       0.40939
     4.81e-07       0.40956
     4.82e-07       0.40973
     4.83e-07        0.4099
     4.84e-07      0.410069
     4.85e-07      0.410239
     4.86e-07      0.410408
     4.87e-07      0.410577
     4.88e-07      0.410746
     4.89e-07      0.410915
      4.9e-07      0.411084
     4.91e-07      0.411253
     4.92e-07      0.411421
     4.93e-07      0.411589
     4.94e-07      0.411757
     4.95e-07      0.411925
     4.96e-07      0.412093
     4.97e-07      0.412261
     4.98e-07      0.412428
     4.99e-07      0.412596
        5e-07      0.412763
     5.01e-07       0.41293
     5.02e-07      0.413097
     5.03e-07      0.413263
     5.04e-07       0.41343
     5.05e-07      0.413596
     5.06e-07      0.413762
     5.07e-07      0.413928
     5.08e-07      0.414094
     5.09e-07       0.41426
      5.1e-07      0.414426
     5.11e-07      0.414591
     5.12e-07      0.414756
     5.13e-07      0.414921
     5.14e-07      0.415086
     5.15e-07      0.415251
     5.16e-07      0.415415
     5.17e-07       0.41558
     5.18e-07      0.415744
     5.19e-07      0.415908
      5.2e-07      0.416072
     5.21e-07      0.416236
     5.22e-07        0.4164
     5.23e-07      0.416563
     5.24e-07      0.416726
     5.25e-07       0.41689
     5.26e-07      0.417053
     5.27e-07      0.417215
     5.28e-07      0.417378
     5.29e-07      0.417541
      5.3e-07      0.417703
     5.31e-07      0.417865
     5.32e-07      0.418027
     5.33e-07      0.418189
     5.34e-07      0.418351
     5.35e-07      0.418512
     5.36e-07      0.418674
     5.37e-07      0.418835
     5.38e-07      0.418996
     5.39e-07      0.419157
      5.4e-07      0.419318
     5.41e-07      0.419478
     5.42e-07      0.419639
     5.43e-07      0.419799
     5.44e-07      0.419959
     5.45e-07      0.420119
     5.46e-07      0.420279
     5.47e-07      0.420438
     5.48e-07      0.420598
     5.49e-07      0.420757
      5.5e-07      0.420916
     5.51e-07      0.421075
     5.52e-07      0.421234
     5.53e-07      0.421393
     5.54e-07      0.421551
     5.55e-07       0.42171
     5.56e-07      0.421868
     5.57e-07      0.422026
     5.58e-07      0.422184
     5.59e-07      0.422341
      5.6e-07      0.422499
     5.61e-07      0.422656
     5.62e-07      0.422814
     5.63e-07      0.422971
     5.64e-07      0.423128
     5.65e-07      0.423284
     5.66e-07      0.423441
     5.67e-07      0.423597
     5.68e-07      0.423754
     5.69e-07       0.42391
      5.7e-07      0.424066
     5.71e-07      0.424221
     5.72e-07      0.424377
     5.73e-07      0.424533
     5.74e-07      0.424688
     5.75e-07      0.424843
     5.76e-07      0.424998
     5.77e-07      0.425153
     5.78e-07      0.425308
     5.79e-07      0.425462
      5.8e-07      0.425616
     5.81e-07      0.425771
     5.82e-07      0.425925
     5.83e-07      0.426079
     5.84e-07      0.426232
     5.85e-07      0.426386
     5.86e-07      0.426539
     5.87e-07      0.426693
     5.88e-07      0.426846
     5.89e-07      0.426999
      5.9e-07      0.427151
     5.91e-07      0.427304
     5.92e-07      0.427456
     5.93e-07      0.427609
     5.94e-07      0.427761
     5.95e-07      0.427913
     5.96e-07      0.428065
     5.97e-07      0.428216
     5.98e-07      0.428368
     5.99e-07      0.428519
        6e-07      0.428671
     6.01e-07      0.428822
     6.02e-07      0.428973
     6.03e-07      0.429123
     6.04e-07      0.429274
     6.05e-07      0.429424
     6.06e-07      0.429575
     6.07e-07      0.429725
     6.08e-07      0.429875
     6.09e-07      0.430024
      6.1e-07      0.430174
     6.11e-07      0.430324
     6.12e-07      0.430473
     6.13e-07      0.430622
     6.14e-07      0.430771
     6.15e-07       0.43092
     6.16e-07      0.431069
     6.17e-07      0.431217
     6.18e-07      0.431366
     6.19e-07      0.431514
      6.2e-07      0.431662
     6.21e-07       0.43181
     6.22e-07      0.431958
     6.23e-07      0.432105
     6.24e-07      0.432253
     6.25e-07        0.4324
     6.26e-07      0.432547
     6.27e-07      0.432694
     6.28e-07      0.432841
     6.29e-07      0.432988
      6.3e-07      0.433135
     6.31e-07      0.433281
     6.32e-07      0.433427
     6.33e-07      0.433573
     6.34e-07      0.433719
     6.35e-07      0.433865
     6.36e-07      0.434011
     6.37e-07      0.434156
     6.38e-07      0.434302
     6.39e-07      0.434447
      6.4e-07      0.434592
     6.41e-07      0.434737
     6.42e-07      0.434881
     6.43e-07      0.435026
     6.44e-07       0.43517
     6.45e-07      0.435315
     6.46e-07      0.435459
     6.47e-07      0.435603
     6.48e-07      0.435747
     6.49e-07       0.43589
      6.5e-07      0.436034
     6.51e-07      0.436177
     6.52e-07       0.43632
     6.53e-07      0.436463
     6.54e-07      0.436606
     6.55e-07      0.436749
     6.56e-07      0.436892
     6.57e-07      0.437034
     6.58e-07      0.437176
     6.59e-07      0.437319
      6.6e-07      0.437461
     6.61e-07      0.437602
     6.62e-07      0.437744
     6.63e-07      0.437886
     6.64e-07      0.438027
     6.65e-07      0.438168
     6.66e-07       0.43831
     6.67e-07      0.438451
     6.68e-07      0.438591
     6.69e-07      0.438732
      6.7e-07      0.438873
     6.71e-07      0.439013
     6.72e-07      0.439153
     6.73e-07      0.439293
     6.74e-07      0.439433
     6.75e-07      0.439573
     6.76e-07      0.439713
     6.77e-07      0.439852
     6.78e-07      0.439991
     6.79e-07      0.440131
      6.8e-07       0.44027
     6.81e-07      0.440409
     6.82e-07      0.440547
     6.83e-07      0.440686
     6.84e-07      0.440824
     6.85e-07      0.440963
     6.86e-07      0.441101
     6.87e-07      0.441239
     6.88e-07      0.441377
     6.89e-07      0.441515
      6.9e-07      0.441652
     6.91e-07       0.44179
     6.92e-07      0.441927
     6.93e-07      0.442064
     6.94e-07      0.442201
     6.95e-07      0.442338
     6.96e-07      0.442475
     6.97e-07      0.442611
     6.98e-07      0.442748
     6.99e-07      0.442884
        7e-07       0.44302
     7.01e-07      0.443156
     7.02e-07      0.443292
     7.03e-07      0.443428
     7.04e-07      0.443563
     7.05e-07      0.443699
     7.06e-07      0.443834
     7.07e-07      0.443969
     7.08e-07      0.444104
     7.09e-07      0.444239
      7.1e-07      0.444374
     7.11e-07      0.444509
     7.12e-07      0.444643
     7.13e-07      0.444777
     7.14e-07      0.444911
     7.15e-07      0.445045
     7.16e-07      0.445179
     7.17e-07      0.445313
     7.18e-07      0.445447
     7.19e-07       0.44558
      7.2e-07      0.445713
     7.21e-07      0.445847
     7.22e-07       0.44598
     7.23e-07      0.446112
     7.24e-07      0.446245
     7.25e-07      0.446378
     7.26e-07       0.44651
     7.27e-07      0.446643
     7.28e-07      0.446775
     7.29e-07      0.446907
      7.3e-07      0.447039
     7.31e-07      0.447171
     7.32e-07      0.447302
     7.33e-07      0.447434
     7.34e-07      0.447565
     7.35e-07      0.447696
     7.36e-07      0.447827
     7.37e-07      0.447958
     7.38e-07      0.448089
     7.39e-07       0.44822
      7.4e-07       0.44835
     7.41e-07      0.448481
     7.42e-07      0.448611
     7.43e-07      0.448741
     7.44e-07      0.448871
     7.45e-07      0.449001
     7.46e-07      0.449131
     7.47e-07       0.44926
     7.48e-07       0.44939
     7.49e-07      0.449519
      7.5e-07      0.449648
     7.51e-07      0.449777
     7.52e-07      0.449906
     7.53e-07      0.450035
     7.54e-07      0.450164
     7.55e-07      0.450292
     7.56e-07       0.45042
     7.57e-07      0.450549
     7.58e-07      0.450677
     7.59e-07      0.450805
      7.6e-07      0.450933
     7.61e-07       0.45106
     7.62e-07      0.451188
     7.63e-07      0.451315
     7.64e-07      0.451442
     7.65e-07       0.45157
     7.66e-07      0.451697
     7.67e-07      0.451824
     7.68e-07       0.45195
     7.69e-07      0.452077
      7.7e-07      0.452203
     7.71e-07       0.45233
     7.72e-07      0.452456
     7.73e-07      0.452582
     7.74e-07      0.452708
     7.75e-07      0.452834
     7.76e-07       0.45296
     7.77e-07      0.453085
     7.78e-07      0.453211
     7.79e-07      0.453336
      7.8e-07      0.453461
     7.81e-07      0.453586
     7.82e-07      0.453711
     7.83e-07      0.453836
     7.84e-07       0.45396
     7.85e-07      0.454085
     7.86e-07      0.454209
     7.87e-07      0.454334
     7.88e-07      0.454458
     7.89e-07      0.454582
      7.9e-07      0.454706
     7.91e-07      0.454829
     7.92e-07      0.454953
     7.93e-07      0.455077
     7.94e-07        0.4552
     7.95e-07      0.455323
     7.96e-07      0.455446
     7.97e-07      0.455569
     7.98e-07      0.455692
     7.99e-07      0.455815
        8e-07      0.455937
     8.01e-07       0.45606
     8.02e-07      0.456182
     8.03e-07      0.456304
     8.04e-07      0.456426
     8.05e-07      0.456548
     8.06e-07       0.45667
     8.07e-07      0.456792
     8.08e-07      0.456914
     8.09e-07      0.457035
      8.1e-07      0.457156
     8.11e-07      0.457278
     8.12e-07      0.457399
     8.13e-07       0.45752
     8.14e-07       0.45764
     8.15e-07      0.457761
     8.16e-07      0.457882
     8.17e-07      0.458002
     8.18e-07      0.458122
     8.19e-07      0.458243
      8.2e-07      0.458363
     8.21e-07      0.458483
     8.22e-07      0.458602
     8.23e-07      0.458722
     8.24e-07      0.458842
     8.25e-07      0.458961
     8.26e-07      0.459081
     8.27e-07        0.4592
     8.28e-07      0.459319
     8.29e-07      0.459438
      8.3e-07      0.459557
     8.31e-07      0.459675
     8.32e-07      0.459794
     8.33e-07      0.459912
     8.34e-07      0.460031
     8.35e-07      0.460149
     8.36e-07      0.460267
     8.37e-07      0.460385
     8.38e-07      0.460503
     8.39e-07      0.460621
      8.4e-07      0.460738
     8.41e-07      0.460856
     8.42e-07      0.460973
     8.43e-07       0.46109
     8.44e-07      0.461208
     8.45e-07      0.461325
     8.46e-07      0.461442
     8.47e-07      0.461558
     8.48e-07      0.461675
     8.49e-07      0.461792
      8.5e-07      0.461908
     8.51e-07      0.462024
     8.52e-07       0.46214
     8.53e-07      0.462256
     8.54e-07      0.462372
     8.55e-07      0.462488
     8.56e-07      0.462604
     8.57e-07       0.46272
     8.58e-07      0.462835
     8.59e-07       0.46295
      8.6e-07      0.463066
     8.61e-07      0.463181
     8.62e-07      0.463296
     8.63e-07      0.463411
     8.64e-07      0.463525
     8.65e-07       0.46364
     8.66e-07      0.463755
     8.67e-07      0.463869
     8.68e-07      0.463983
     8.69e-07      0.464097
      8.7e-07      0.464211
     8.71e-07      0.464325
     8.72e-07      0.464439
     8.73e-07      0.464553
     8.74e-07      0.464667
     8.75e-07       0.46478
     8.76e-07      0.464893
     8.77e-07      0.465007
     8.78e-07       0.46512
     8.79e-07      0.465233
      8.8e-07      0.465346
     8.81e-07      0.465459
     8.82e-07      0.465571
     8.83e-07      0.465684
     8.84e-07      0.465796
     8.85e-07      0.465909
     8.86e-07      0.466021
     8.87e-07      0.466133
     8.88e-07      0.466245
     8.89e-07      0.466357
      8.9e-07      0.466468
     8.91e-07       0.46658
     8.92e-07      0.466692
     8.93e-07      0.466803
     8.94e-07      0.466914
     8.95e-07      0.467026
     8.96e-07      0.467137
     8.97e-07      0.467248
     8.98e-07      0.467359
     8.99e-07      0.467469
        9e-07       0.46758
     9.01e-07       0.46769
     9.02e-07      0.467801
     9.03e-07      0.467911
     9.04e-07      0.468021
     9.05e-07      0.468131
     9.06e-07      0.468241
     9.07e-07      0.468351
     9.08e-07      0.468461
     9.09e-07      0.468571
      9.1e-07       0.46868
     9.11e-07       0.46879
     9.12e-07      0.468899
     9.13e-07      0.469008
     9.14e-07      0.469117
     9.15e-07      0.469226
     9.16e-07      0.469335
     9.17e-07      0.469444
     9.18e-07      0.469553
     9.19e-07      0.469661
      9.2e-07      0.469769
     9.21e-07      0.469878
     9.22e-07      0.469986
     9.23e-07      0.470094
     9.24e-07      0.470202
     9.25e-07       0.47031
     9.26e-07      0.470418
     9.27e-07      0.470526
     9.28e-07      0.470633
     9.29e-07      0.470741
      9.3e-07      0.470848
     9.31e-07      0.470955
     9.32e-07      0.471062
     9.33e-07      0.471169
     9.34e-07      0.471276
     9.35e-07      0.471383
     9.36e-07       0.47149
     9.37e-07      0.471596
     9.38e-07      0.471703
     9.39e-07      0.471809
      9.4e-07      0.471916
     9.41e-07      0.472022
     9.42e-07      0.472128
     9.43e-07      0.472234
     9.44e-07       0.47234
     9.45e-07      0.472445
     9.46e-07      0.472551
     9.47e-07      0.472657
     9.48e-07      0.472762
     9.49e-07      0.472867
      9.5e-07      0.472973
     9.51e-07      0.473078
     9.52e-07      0.473183
     9.53e-07      0.473288
     9.54e-07      0.473393
     9.55e-07      0.473497
     9.56e-07      0.473602
     9.57e-07      0.473706
     9.58e-07      0.473811
     9.59e-07      0.473915
      9.6e-07      0.474019
     9.61e-07      0.474124
     9.62e-07      0.474228
     9.63e-07      0.474331
     9.64e-07      0.474435
     9.65e-07      0.474539
     9.66e-07      0.474642
     9.67e-07      0.474746
     9.68e-07      0.474849
     9.69e-07      0.474953
      9.7e-07      0.475056
     9.71e-07      0.475159
     9.72e-07      0.475262
     9.73e-07      0.475365
     9.74e-07      0.475468
     9.75e-07       0.47557
     9.76e-07      0.475673
     9.77e-07      0.475775
     9.78e-07      0.475878
     9.79e-07       0.47598
      9.8e-07      0.476082
     9.81e-07      0.476184
     9.82e-07      0.476286
     9.83e-07      0.476388
     9.84e-07       0.47649
     9.85e-07      0.476591
     9.86e-07      0.476693
     9.87e-07      0.476794
     9.88e-07      0.476896
     9.89e-07      0.476997
      9.9e-07      0.477098
     9.91e-07      0.477199
     9.92e-07        0.4773
     9.93e-07      0.477401
     9.94e-07      0.477502
     9.95e-07      0.477603
     9.96e-07      0.477703
     9.97e-07      0.477804
     9.98e-07      0.477904
     9.99e-07      0.478005
        1e-06      0.478105
    1.001e-06      0.478205
    1.002e-06      0.478305
    1.003e-06      0.478405
    1.004e-06      0.478505
    1.005e-06      0.478604
    1.006e-06      0.478704
    1.007e-06      0.478803
    1.008e-06      0.478903
    1.009e-06      0.479002
     1.01e-06      0.479101
    1.011e-06      0.479201
    1.012e-06        0.4793
    1.013e-06      0.479398
    1.014e-06      0.479497
    1.015e-06      0.479596
    1.016e-06      0.479695
    1.017e-06      0.479793
    1.018e-06      0.479892
    1.019e-06       0.47999
     1.02e-06      0.480088
    1.021e-06      0.480187
    1.022e-06      0.480285
    1.023e-06      0.480383
    1.024e-06      0.480481
    1.025e-06      0.480578
    1.026e-06      0.480676
    1.027e-06      0.480774
    1.028e-06      0.480871
    1.029e-06      0.480969
     1.03e-06      0.481066
    1.031e-06      0.481163
    1.032e-06       0.48126
    1.033e-06      0.481357
    1.034e-06      0.481454
    1.035e-06      0.481551
    1.036e-06      0.481648
    1.037e-06      0.481745
    1.038e-06      0.481841
    1.039e-06      0.481938
     1.04e-06      0.482034
    1.041e-06      0.482131
    1.042e-06      0.482227
    1.043e-06      0.482323
    1.044e-06      0.482419
    1.045e-06      0.482515
    1.046e-06      0.482611
    1.047e-06      0.482707
    1.048e-06      0.482802
    1.049e-06      0.482898
     1.05e-06      0.482993
    1.051e-06      0.483089
    1.052e-06      0.483184
    1.053e-06      0.483279
    1.054e-06      0.483374
    1.055e-06      0.483469
    1.056e-06      0.483564
    1.057e-06      0.483659
    1.058e-06      0.483754
    1.059e-06      0.483849
     1.06e-06      0.483943
    1.061e-06      0.484038
    1.062e-06      0.484132
    1.063e-06      0.484227
    1.064e-06      0.484321
    1.065e-06      0.484415
    1.066e-06      0.484509
    1.067e-06      0.484603
    1.068e-06      0.484697