# Probe 0 (5e-06 5e-06 5e-06)
#       Probe             0
#        Time
        1e-09      0.333337
        2e-09      0.333343
        3e-09      0.333351
        4e-09      0.333362
        5e-09      0.333374
        6e-09      0.333388
        7e-09      0.333405
        8e-09      0.333424
        9e-09      0.333445
        1e-08      0.333468
      1.1e-08      0.333493
      1.2e-08       0.33352
      1.3e-08       0.33355
      1.4e-08      0.333582
      1.5e-08      0.333615
      1.6e-08      0.333651
      1.7e-08      0.333689
      1.8e-08       0.33373
      1.9e-08      0.333772
        2e-08      0.333817
      2.1e-08      0.333863
      2.2e-08      0.333912
      2.3e-08      0.333963
      2.4e-08      0.334016
      2.5e-08      0.334071
      2.6e-08      0.334128
      2.7e-08      0.334187
      2.8e-08      0.334248
      2.9e-08      0.334311
        3e-08      0.334376
      3.1e-08      0.334443
      3.2e-08      0.334512
      3.3e-08      0.334583
      3.4e-08      0.334656
      3.5e-08      0.334731
      3.6e-08      0.334808
      3.7e-08      0.334886
      3.8e-08      0.334967
      3.9e-08      0.335049
        4e-08      0.335133
      4.1e-08      0.335219
      4.2e-08      0.335307
      4.3e-08      0.335396
      4.4e-08      0.335487
      4.5e-08       0.33558
      4.6e-08      0.335675
      4.7e-08      0.335771
      4.8e-08      0.335869
      4.9e-08      0.335969
        5e-08      0.336071
      5.1e-08      0.336173
      5.2e-08      0.336278
      5.3e-08      0.336384
      5.4e-08      0.336492
      5.5e-08      0.336601
      5.6e-08      0.336712
      5.7e-08      0.336824
      5.8e-08      0.336938
      5.9e-08      0.337053
        6e-08       0.33717
      6.1e-08      0.337289
      6.2e-08      0.337408
      6.3e-08      0.337529
      6.4e-08      0.337652
      6.5e-08      0.337776
      6.6e-08      0.337901
      6.7e-08      0.338027
      6.8e-08      0.338155
      6.9e-08      0.338284
        7e-08      0.338415
      7.1e-08      0.338547
      7.2e-08       0.33868
      7.3e-08      0.338814
      7.4e-08       0.33895
      7.5e-08      0.339086
      7.6e-08      0.339224
      7.7e-08      0.339364
      7.8e-08      0.339504
      7.9e-08      0.339645
        8e-08      0.339788
      8.1e-08      0.339932
      8.2e-08      0.340077
      8.3e-08      0.340223
      8.4e-08       0.34037
      8.5e-08      0.340518
      8.6e-08      0.340667
      8.7e-08      0.340817
      8.8e-08      0.340968
      8.9e-08      0.341121
        9e-08      0.341274
      9.1e-08      0.341428
      9.2e-08      0.341584
      9.3e-08       0.34174
      9.4e-08      0.341897
      9.5e-08      0.342055
      9.6e-08      0.342214
      9.7e-08      0.342374
      9.8e-08      0.342535
      9.9e-08      0.342697
        1e-07      0.342859
     1.01e-07      0.343023
     1.02e-07      0.343187
     1.03e-07      0.343352
     1.04e-07      0.343518
     1.05e-07      0.343685
     1.06e-07      0.343852
     1.07e-07      0.344021
     1.08e-07       0.34419
     1.09e-07       0.34436
      1.1e-07      0.344531
     1.11e-07      0.344702
     1.12e-07      0.344874
     1.13e-07      0.345047
     1.14e-07      0.345221
     1.15e-07      0.345395
     1.16e-07       0.34557
     1.17e-07      0.345746
     1.18e-07      0.345922
     1.19e-07      0.346099
      1.2e-07      0.346277
     1.21e-07      0.346455
     1.22e-07      0.346634
     1.23e-07      0.346814
     1.24e-07      0.346994
     1.25e-07      0.347175
     1.26e-07      0.347356
     1.27e-07      0.347538
     1.28e-07      0.347721
     1.29e-07      0.347904
      1.3e-07      0.348087
     1.31e-07      0.348272
     1.32e-07      0.348456
     1.33e-07      0.348642
     1.34e-07      0.348828
     1.35e-07      0.349014
     1.36e-07      0.349201
     1.37e-07      0.349388
     1.38e-07      0.349576
     1.39e-07      0.349764
      1.4e-07      0.349953
     1.41e-07      0.350142
     1.42e-07      0.350332
     1.43e-07      0.350522
     1.44e-07      0.350713
     1.45e-07      0.350904
     1.46e-07      0.351096
     1.47e-07      0.351288
     1.48e-07       0.35148
     1.49e-07      0.351673
      1.5e-07      0.351866
     1.51e-07      0.352059
     1.52e-07      0.352253
     1.53e-07      0.352447
     1.54e-07      0.352642
     1.55e-07      0.352837
     1.56e-07      0.353032
     1.57e-07      0.353228
     1.58e-07      0.353424
     1.59e-07      0.353621
      1.6e-07      0.353817
     1.61e-07      0.354014
     1.62e-07      0.354212
     1.63e-07       0.35441
     1.64e-07      0.354608
     1.65e-07      0.354806
     1.66e-07      0.355004
     1.67e-07      0.355203
     1.68e-07      0.355402
     1.69e-07      0.355602
      1.7e-07      0.355802
     1.71e-07      0.356002
     1.72e-07      0.356202
     1.73e-07      0.356402
     1.74e-07      0.356603
     1.75e-07      0.356804
     1.76e-07      0.357005
     1.77e-07      0.357207
     1.78e-07      0.357408
     1.79e-07       0.35761
      1.8e-07      0.357812
     1.81e-07      0.358014
     1.82e-07      0.358217
     1.83e-07       0.35842
     1.84e-07      0.358623
     1.85e-07      0.358826
     1.86e-07      0.359029
     1.87e-07      0.359232
     1.88e-07      0.359436
     1.89e-07       0.35964
      1.9e-07      0.359844
     1.91e-07      0.360048
     1.92e-07      0.360252
     1.93e-07      0.360456
     1.94e-07      0.360661
     1.95e-07      0.360866
     1.96e-07      0.361071
     1.97e-07      0.361276
     1.98e-07      0.361481
     1.99e-07      0.361686
        2e-07      0.361891
     2.01e-07      0.362097
     2.02e-07      0.362302
     2.03e-07      0.362508
     2.04e-07      0.362714
     2.05e-07       0.36292
     2.06e-07      0.363126
     2.07e-07      0.363332
     2.08e-07      0.363538
     2.09e-07      0.363744
      2.1e-07      0.363951
     2.11e-07      0.364157
     2.12e-07      0.364364
     2.13e-07       0.36457
     2.14e-07      0.364777
     2.15e-07      0.364984
     2.16e-07      0.365191
     2.17e-07      0.365397
     2.18e-07      0.365604
     2.19e-07      0.365811
      2.2e-07      0.366018
     2.21e-07      0.366225
     2.22e-07      0.366432
     2.23e-07      0.366639
     2.24e-07      0.366847
     2.25e-07      0.367054
     2.26e-07      0.367261
     2.27e-07      0.367468
     2.28e-07      0.367676
     2.29e-07      0.367883
      2.3e-07       0.36809
     2.31e-07      0.368297
     2.32e-07      0.368505
     2.33e-07      0.368712
     2.34e-07      0.368919
     2.35e-07      0.369127
     2.36e-07      0.369334
     2.37e-07      0.369541
     2.38e-07      0.369749
     2.39e-07      0.369956
      2.4e-07      0.370163
     2.41e-07      0.370371
     2.42e-07      0.370578
     2.43e-07      0.370785
     2.44e-07      0.370993
     2.45e-07        0.3712
     2.46e-07      0.371407
     2.47e-07      0.371614
     2.48e-07      0.371821
     2.49e-07      0.372028
      2.5e-07      0.372235
     2.51e-07      0.372442
     2.52e-07      0.372649
     2.53e-07      0.372856
     2.54e-07      0.373063
     2.55e-07       0.37327
     2.56e-07      0.373477
     2.57e-07      0.373684
     2.58e-07       0.37389
     2.59e-07      0.374097
      2.6e-07      0.374304
     2.61e-07       0.37451
     2.62e-07      0.374717
     2.63e-07      0.374923
     2.64e-07      0.375129
     2.65e-07      0.375336
     2.66e-07      0.375542
     2.67e-07      0.375748
     2.68e-07      0.375954
     2.69e-07       0.37616
      2.7e-07      0.376366
     2.71e-07      0.376572
     2.72e-07      0.376777
     2.73e-07      0.376983
     2.74e-07      0.377189
     2.75e-07      0.377394
     2.76e-07        0.3776
     2.77e-07      0.377805
     2.78e-07       0.37801
     2.79e-07      0.378215
      2.8e-07       0.37842
     2.81e-07      0.378625
     2.82e-07       0.37883
     2.83e-07      0.379035
     2.84e-07       0.37924
     2.85e-07      0.379444
     2.86e-07      0.379649
     2.87e-07      0.379853
     2.88e-07      0.380057
     2.89e-07      0.380261
      2.9e-07      0.380465
     2.91e-07      0.380669
     2.92e-07      0.380873
     2.93e-07      0.381077
     2.94e-07       0.38128
     2.95e-07      0.381484
     2.96e-07      0.381687
     2.97e-07       0.38189
     2.98e-07      0.382093
     2.99e-07      0.382296
        3e-07      0.382499
     3.01e-07      0.382702
     3.02e-07      0.382904
     3.03e-07      0.383107
     3.04e-07      0.383309
     3.05e-07      0.383512
     3.06e-07      0.383714
     3.07e-07      0.383916
     3.08e-07      0.384117
     3.09e-07      0.384319
      3.1e-07      0.384521
     3.11e-07      0.384722
     3.12e-07      0.384923
     3.13e-07      0.385125
     3.14e-07      0.385326
     3.15e-07      0.385526
     3.16e-07      0.385727
     3.17e-07      0.385928
     3.18e-07      0.386128
     3.19e-07      0.386329
      3.2e-07      0.386529
     3.21e-07      0.386729
     3.22e-07      0.386929
     3.23e-07      0.387128
     3.24e-07      0.387328
     3.25e-07      0.387527
     3.26e-07      0.387727
     3.27e-07      0.387926
     3.28e-07      0.388125
     3.29e-07      0.388324
      3.3e-07      0.388522
     3.31e-07      0.388721
     3.32e-07      0.388919
     3.33e-07      0.389117
     3.34e-07      0.389315
     3.35e-07      0.389513
     3.36e-07      0.389711
     3.37e-07      0.389909
     3.38e-07      0.390106
     3.39e-07      0.390303
      3.4e-07        0.3905
     3.41e-07      0.390697
     3.42e-07      0.390894
     3.43e-07      0.391091
     3.44e-07      0.391287
     3.45e-07      0.391484
     3.46e-07       0.39168
     3.47e-07      0.391876
     3.48e-07      0.392071
     3.49e-07      0.392267
      3.5e-07      0.392463
     3.51e-07      0.392658
     3.52e-07      0.392853
     3.53e-07      0.393048
     3.54e-07      0.393243
     3.55e-07      0.393437
     3.56e-07      0.393632
     3.57e-07      0.393826
     3.58e-07       0.39402
     3.59e-07      0.394214
      3.6e-07      0.394408
     3.61e-07      0.394602
     3.62e-07      0.394795
     3.63e-07      0.394988
     3.64e-07      0.395181
     3.65e-07      0.395374
     3.66e-07      0.395567
     3.67e-07      0.395759
     3.68e-07      0.395952
     3.69e-07      0.396144
      3.7e-07      0.396336
     3.71e-07      0.396528
     3.72e-07      0.396719
     3.73e-07      0.396911
     3.74e-07      0.397102
     3.75e-07      0.397293
     3.76e-07      0.397484
     3.77e-07      0.397675
     3.78e-07      0.397866
     3.79e-07      0.398056
      3.8e-07      0.398246
     3.81e-07      0.398436
     3.82e-07      0.398626
     3.83e-07      0.398816
     3.84e-07      0.399005
     3.85e-07      0.399195
     3.86e-07      0.399384
     3.87e-07      0.399573
     3.88e-07      0.399761
     3.89e-07       0.39995
      3.9e-07      0.400138
     3.91e-07      0.400327
     3.92e-07      0.400515
     3.93e-07      0.400702
     3.94e-07       0.40089
     3.95e-07      0.401077
     3.96e-07      0.401265
     3.97e-07      0.401452
     3.98e-07      0.401639
     3.99e-07      0.401825
        4e-07      0.402012
     4.01e-07      0.402198
     4.02e-07      0.402384
     4.03e-07       0.40257
     4.04e-07      0.402756
     4.05e-07      0.402942
     4.06e-07      0.403127
     4.07e-07      0.403312
     4.08e-07      0.403497
     4.09e-07      0.403682
      4.1e-07      0.403867
     4.11e-07      0.404051
     4.12e-07      0.404236
     4.13e-07       0.40442
     4.14e-07      0.404603
     4.15e-07      0.404787
     4.16e-07      0.404971
     4.17e-07      0.405154
     4.18e-07      0.405337
     4.19e-07       0.40552
      4.2e-07      0.405703
     4.21e-07      0.405885
     4.22e-07      0.406068
     4.23e-07       0.40625
     4.24e-07      0.406432
     4.25e-07      0.406614
     4.26e-07      0.406795
     4.27e-07      0.406977
     4.28e-07      0.407158
     4.29e-07      0.407339
      4.3e-07       0.40752
     4.31e-07        0.4077
     4.32e-07      0.407881
     4.33e-07      0.408061
     4.34e-07      0.408241
     4.35e-07      0.408421
     4.36e-07      0.408601
     4.37e-07       0.40878
     4.38e-07      0.408959
     4.39e-07      0.409138
      4.4e-07      0.409317
     4.41e-07      0.409496
     4.42e-07      0.409675
     4.43e-07      0.409853
     4.44e-07      0.410031
     4.45e-07      0.410209
     4.46e-07      0.410387
     4.47e-07      0.410564
     4.48e-07      0.410742
     4.49e-07      0.410919
      4.5e-07      0.411096
     4.51e-07      0.411273
     4.52e-07      0.411449
     4.53e-07      0.411626
     4.54e-07      0.411802
     4.55e-07      0.411978
     4.56e-07      0.412154
     4.57e-07      0.412329
     4.58e-07      0.412505
     4.59e-07       0.41268
      4.6e-07      0.412855
     4.61e-07       0.41303
     4.62e-07      0.413204
     4.63e-07      0.413379
     4.64e-07      0.413553
     4.65e-07      0.413727
     4.66e-07      0.413901
     4.67e-07      0.414075
     4.68e-07      0.414248
     4.69e-07      0.414422
      4.7e-07      0.414595
     4.71e-07      0.414768
     4.72e-07      0.414941
     4.73e-07      0.415113
     4.74e-07      0.415285
     4.75e-07      0.415458
     4.76e-07       0.41563
     4.77e-07      0.415801
     4.78e-07      0.415973
     4.79e-07      0.416144
      4.8e-07      0.416316
     4.81e-07      0.416487
     4.82e-07      0.416657
     4.83e-07      0.416828
     4.84e-07      0.416998
     4.85e-07      0.417169
     4.86e-07      0.417339
     4.87e-07      0.417509
     4.88e-07      0.417678
     4.89e-07      0.417848
      4.9e-07      0.418017
     4.91e-07      0.418186
     4.92e-07      0.418355
     4.93e-07      0.418524
     4.94e-07      0.418692
     4.95e-07      0.418861
     4.96e-07      0.419029
     4.97e-07      0.419197
     4.98e-07      0.419364
     4.99e-07      0.419532
        5e-07      0.419699
     5.01e-07      0.419867
     5.02e-07      0.420034
     5.03e-07        0.4202
     5.04e-07      0.420367
     5.05e-07      0.420533
     5.06e-07        0.4207
     5.07e-07      0.420866
     5.08e-07      0.421032
     5.09e-07      0.421197
      5.1e-07      0.421363
     5.11e-07      0.421528
     5.12e-07      0.421693
     5.13e-07      0.421858
     5.14e-07      0.422023
     5.15e-07      0.422187
     5.16e-07      0.422352
     5.17e-07      0.422516
     5.18e-07       0.42268
     5.19e-07      0.422844
      5.2e-07      0.423007
     5.21e-07      0.423171
     5.22e-07      0.423334
     5.23e-07      0.423497
     5.24e-07       0.42366
     5.25e-07      0.423823
     5.26e-07      0.423985
     5.27e-07      0.424147
     5.28e-07       0.42431
     5.29e-07      0.424471
      5.3e-07      0.424633
     5.31e-07      0.424795
     5.32e-07      0.424956
     5.33e-07      0.425117
     5.34e-07      0.425278
     5.35e-07      0.425439
     5.36e-07        0.4256
     5.37e-07       0.42576
     5.38e-07       0.42592
     5.39e-07      0.426081
      5.4e-07       0.42624
     5.41e-07        0.4264
     5.42e-07       0.42656
     5.43e-07      0.426719
     5.44e-07      0.426878
     5.45e-07      0.427037
     5.46e-07      0.427196
     5.47e-07      0.427354
     5.48e-07      0.427513
     5.49e-07      0.427671
      5.5e-07      0.427829
     5.51e-07      0.427987
     5.52e-07      0.428145
     5.53e-07      0.428302
     5.54e-07       0.42846
     5.55e-07      0.428617
     5.56e-07      0.428774
     5.57e-07       0.42893
     5.58e-07      0.429087
     5.59e-07      0.429243
      5.6e-07        0.4294
     5.61e-07      0.429556
     5.62e-07      0.429712
     5.63e-07      0.429867
     5.64e-07      0.430023
     5.65e-07      0.430178
     5.66e-07      0.430333
     5.67e-07      0.430488
     5.68e-07      0.430643
     5.69e-07      0.430798
      5.7e-07      0.430952
     5.71e-07      0.431106
     5.72e-07      0.431261
     5.73e-07      0.431414
     5.74e-07      0.431568
     5.75e-07      0.431722
     5.76e-07      0.431875
     5.77e-07      0.432028
     5.78e-07      0.432181
     5.79e-07      0.432334
      5.8e-07      0.432487
     5.81e-07      0.432639
     5.82e-07      0.432792
     5.83e-07      0.432944
     5.84e-07      0.433096
     5.85e-07      0.433247
     5.86e-07      0.433399
     5.87e-07       0.43355
     5.88e-07      0.433702
     5.89e-07      0.433853
      5.9e-07      0.434004
     5.91e-07      0.434154
     5.92e-07      0.434305
     5.93e-07      0.434455
     5.94e-07      0.434606
     5.95e-07      0.434756
     5.96e-07      0.434905
     5.97e-07      0.435055
     5.98e-07      0.435205
     5.99e-07      0.435354
        6e-07      0.435503
     6.01e-07      0.435652
     6.02e-07      0.435801
     6.03e-07       0.43595
     6.04e-07      0.436098
     6.05e-07      0.436246
     6.06e-07      0.436394
     6.07e-07      0.436542
     6.08e-07       0.43669
     6.09e-07      0.436838
      6.1e-07      0.436985
     6.11e-07      0.437133
     6.12e-07       0.43728
     6.13e-07      0.437427
     6.14e-07      0.437573
     6.15e-07       0.43772
     6.16e-07      0.437866
     6.17e-07      0.438013
     6.18e-07      0.438159
     6.19e-07      0.438305
      6.2e-07       0.43845
     6.21e-07      0.438596
     6.22e-07      0.438741
     6.23e-07      0.438887
     6.24e-07      0.439032
     6.25e-07      0.439176
     6.26e-07      0.439321
     6.27e-07      0.439466
     6.28e-07       0.43961
     6.29e-07      0.439754
      6.3e-07      0.439898
     6.31e-07      0.440042
     6.32e-07      0.440186
     6.33e-07       0.44033
     6.34e-07      0.440473
     6.35e-07      0.440616
     6.36e-07      0.440759
     6.37e-07      0.440902
     6.38e-07      0.441045
     6.39e-07      0.441188
      6.4e-07       0.44133
     6.41e-07      0.441472
     6.42e-07      0.441614
     6.43e-07      0.441756
     6.44e-07      0.441898
     6.45e-07       0.44204
     6.46e-07      0.442181
     6.47e-07      0.442322
     6.48e-07      0.442463
     6.49e-07      0.442604
      6.5e-07      0.442745
     6.51e-07      0.442886
     6.52e-07      0.443026
     6.53e-07      0.443167
     6.54e-07      0.443307
     6.55e-07      0.443447
     6.56e-07      0.443586
     6.57e-07      0.443726
     6.58e-07      0.443866
     6.59e-07      0.444005
      6.6e-07      0.444144
     6.61e-07      0.444283
     6.62e-07      0.444422
     6.63e-07      0.444561
     6.64e-07      0.444699
     6.65e-07      0.444838
     6.66e-07      0.444976
     6.67e-07      0.445114
     6.68e-07      0.445252
     6.69e-07      0.445389
      6.7e-07      0.445527
     6.71e-07      0.445664
     6.72e-07      0.445802
     6.73e-07      0.445939
     6.74e-07      0.446076
     6.75e-07      0.446213
     6.76e-07      0.446349
     6.77e-07      0.446486
     6.78e-07      0.446622
     6.79e-07      0.446758
      6.8e-07      0.446894
     6.81e-07       0.44703
     6.82e-07      0.447166
     6.83e-07      0.447301
     6.84e-07      0.447437
     6.85e-07      0.447572
     6.86e-07      0.447707
     6.87e-07      0.447842
     6.88e-07      0.447977
     6.89e-07      0.448111
      6.9e-07      0.448246
     6.91e-07       0.44838
     6.92e-07      0.448514
     6.93e-07      0.448648
     6.94e-07      0.448782
     6.95e-07      0.448916
     6.96e-07      0.449049
     6.97e-07      0.449183
     6.98e-07      0.449316
     6.99e-07      0.449449
        7e-07      0.449582
     7.01e-07      0.449715
     7.02e-07      0.449848
     7.03e-07       0.44998
     7.04e-07      0.450112
     7.05e-07      0.450245
     7.06e-07      0.450377
     7.07e-07      0.450508
     7.08e-07       0.45064
     7.09e-07      0.450772
      7.1e-07      0.450903
     7.11e-07      0.451035
     7.12e-07      0.451166
     7.13e-07      0.451297
     7.14e-07      0.451428
     7.15e-07      0.451558
     7.16e-07      0.451689
     7.17e-07      0.451819
     7.18e-07      0.451949
     7.19e-07       0.45208
      7.2e-07       0.45221
     7.21e-07      0.452339
     7.22e-07      0.452469
     7.23e-07      0.452599
     7.24e-07      0.452728
     7.25e-07      0.452857
     7.26e-07      0.452986
     7.27e-07      0.453115
     7.28e-07      0.453244
     7.29e-07      0.453373
      7.3e-07      0.453501
     7.31e-07       0.45363
     7.32e-07      0.453758
     7.33e-07      0.453886
     7.34e-07      0.454014
     7.35e-07      0.454141
     7.36e-07      0.454269
     7.37e-07      0.454397
     7.38e-07      0.454524
     7.39e-07      0.454651
      7.4e-07      0.454778
     7.41e-07      0.454905
     7.42e-07      0.455032
     7.43e-07      0.455159
     7.44e-07      0.455285
     7.45e-07      0.455411
     7.46e-07      0.455538
     7.47e-07      0.455664
     7.48e-07       0.45579
     7.49e-07      0.455915
      7.5e-07      0.456041
     7.51e-07      0.456167
     7.52e-07      0.456292
     7.53e-07      0.456417
     7.54e-07      0.456542
     7.55e-07      0.456667
     7.56e-07      0.456792
     7.57e-07      0.456917
     7.58e-07      0.457041
     7.59e-07      0.457166
      7.6e-07       0.45729
     7.61e-07      0.457414
     7.62e-07      0.457538
     7.63e-07      0.457662
     7.64e-07      0.457786
     7.65e-07      0.457909
     7.66e-07      0.458033
     7.67e-07      0.458156
     7.68e-07      0.458279
     7.69e-07      0.458402
      7.7e-07      0.458525
     7.71e-07      0.458648
     7.72e-07       0.45877
     7.73e-07      0.458893
     7.74e-07      0.459015
     7.75e-07      0.459137
     7.76e-07      0.459259
     7.77e-07      0.459381
     7.78e-07      0.459503
     7.79e-07      0.459625
      7.8e-07      0.459746
     7.81e-07      0.459868
     7.82e-07      0.459989
     7.83e-07       0.46011
     7.84e-07      0.460231
     7.85e-07      0.460352
     7.86e-07      0.460473
     7.87e-07      0.460593
     7.88e-07      0.460714
     7.89e-07      0.460834
      7.9e-07      0.460954
     7.91e-07      0.461074
     7.92e-07      0.461194
     7.93e-07      0.461314
     7.94e-07      0.461434
     7.95e-07      0.461553
     7.96e-07      0.461673
     7.97e-07      0.461792
     7.98e-07      0.461911
     7.99e-07       0.46203
        8e-07      0.462149
     8.01e-07      0.462268
     8.02e-07      0.462386
     8.03e-07      0.462505
     8.04e-07      0.462623
     8.05e-07      0.462741
     8.06e-07       0.46286
     8.07e-07      0.462978
     8.08e-07      0.463095
     8.09e-07      0.463213
      8.1e-07      0.463331
     8.11e-07      0.463448
     8.12e-07      0.463566
     8.13e-07      0.463683
     8.14e-07        0.4638
     8.15e-07      0.463917
     8.16e-07      0.464034
     8.17e-07       0.46415
     8.18e-07      0.464267
     8.19e-07      0.464383
      8.2e-07        0.4645
     8.21e-07      0.464616
     8.22e-07      0.464732
     8.23e-07      0.464848
     8.24e-07      0.464964
     8.25e-07      0.465079
     8.26e-07      0.465195
     8.27e-07       0.46531
     8.28e-07      0.465426
     8.29e-07      0.465541
      8.3e-07      0.465656
     8.31e-07      0.465771
     8.32e-07      0.465886
     8.33e-07         0.466
     8.34e-07      0.466115
     8.35e-07      0.466229
     8.36e-07      0.466344
     8.37e-07      0.466458
     8.38e-07      0.466572
     8.39e-07      0.466686
      8.4e-07        0.4668
     8.41e-07      0.466913
     8.42e-07      0.467027
     8.43e-07       0.46714
     8.44e-07      0.467254
     8.45e-07      0.467367
     8.46e-07       0.46748
     8.47e-07      0.467593
     8.48e-07      0.467706
     8.49e-07      0.467819
      8.5e-07      0.467931
     8.51e-07      0.468044
     8.52e-07      0.468156
     8.53e-07      0.468268
     8.54e-07       0.46838
     8.55e-07      0.468492
     8.56e-07      0.468604
     8.57e-07      0.468716
     8.58e-07      0.468828
     8.59e-07      0.468939
      8.6e-07      0.469051
     8.61e-07      0.469162
     8.62e-07      0.469273
     8.63e-07      0.469384
     8.64e-07      0.469495
     8.65e-07      0.469606
     8.66e-07      0.469717
     8.67e-07      0.469827
     8.68e-07      0.469938
     8.69e-07      0.470048
      8.7e-07      0.470158
     8.71e-07      0.470268
     8.72e-07      0.470378
     8.73e-07      0.470488
     8.74e-07      0.470598
     8.75e-07      0.470708
     8.76e-07      0.470817
     8.77e-07      0.470927
     8.78e-07      0.471036
     8.79e-07      0.471145
      8.8e-07      0.471254
     8.81e-07      0.471363
     8.82e-07      0.471472
     8.83e-07      0.471581
     8.84e-07      0.471689
     8.85e-07      0.471798
     8.86e-07      0.471906
     8.87e-07      0.472015
     8.88e-07      0.472123
     8.89e-07      0.472231
      8.9e-07      0.472339
     8.91e-07      0.472447
     8.92e-07      0.472554
     8.93e-07      0.472662
     8.94e-07      0.472769
     8.95e-07      0.472877
     8.96e-07      0.472984
     8.97e-07      0.473091
     8.98e-07      0.473198
     8.99e-07      0.473305
        9e-07      0.473412
     9.01e-07      0.473518
     9.02e-07      0.473625
     9.03e-07      0.473732
     9.04e-07      0.473838
     9.05e-07      0.473944
     9.06e-07       0.47405
     9.07e-07      0.474156
     9.08e-07      0.474262
     9.09e-07      0.474368
      9.1e-07      0.474474
     9.11e-07      0.474579
     9.12e-07      0.474685
     9.13e-07       0.47479
     9.14e-07      0.474895
     9.15e-07      0.475001
     9.16e-07      0.475106
     9.17e-07       0.47521
     9.18e-07      0.475315
     9.19e-07       0.47542
      9.2e-07      0.475525
     9.21e-07      0.475629
     9.22e-07      0.475733
     9.23e-07      0.475838
     9.24e-07      0.475942
     9.25e-07      0.476046
     9.26e-07       0.47615
     9.27e-07      0.476254
     9.28e-07      0.476358
     9.29e-07      0.476461
      9.3e-07      0.476565
     9.31e-07      0.476668
     9.32e-07      0.476771
     9.33e-07      0.476875
     9.34e-07      0.476978
     9.35e-07      0.477081
     9.36e-07      0.477184
     9.37e-07      0.477286
     9.38e-07      0.477389
     9.39e-07      0.477492
      9.4e-07      0.477594
     9.41e-07      0.477696
     9.42e-07      0.477799
     9.43e-07      0.477901
     9.44e-07      0.478003
     9.45e-07      0.478105
     9.46e-07      0.478207
     9.47e-07      0.478308
     9.48e-07       0.47841
     9.49e-07      0.478512
      9.5e-07      0.478613
     9.51e-07      0.478714
     9.52e-07      0.478816
     9.53e-07      0.478917
     9.54e-07      0.479018
     9.55e-07      0.479119
     9.56e-07      0.479219
     9.57e-07       0.47932
     9.58e-07      0.479421
     9.59e-07      0.479521
      9.6e-07      0.479622
     9.61e-07      0.479722
     9.62e-07      0.479822
     9.63e-07      0.479922
     9.64e-07      0.480022
     9.65e-07      0.480122
     9.66e-07      0.480222
     9.67e-07      0.480321
     9.68e-07      0.480421
     9.69e-07      0.480521
      9.7e-07       0.48062
     9.71e-07      0.480719
     9.72e-07      0.480818
     9.73e-07      0.480917
     9.74e-07      0.481016
     9.75e-07      0.481115
     9.76e-07      0.481214
     9.77e-07      0.481313
     9.78e-07      0.481411
     9.79e-07       0.48151
      9.8e-07      0.481608
     9.81e-07      0.481707
     9.82e-07      0.481805
     9.83e-07      0.481903
     9.84e-07      0.482001
     9.85e-07      0.482099
     9.86e-07      0.482196
     9.87e-07      0.482294
     9.88e-07      0.482392
     9.89e-07      0.482489
      9.9e-07      0.482587
     9.91e-07      0.482684
     9.92e-07      0.482781
     9.93e-07      0.482878
     9.94e-07      0.482975
     9.95e-07      0.483072
     9.96e-07      0.483169
     9.97e-07      0.483266
     9.98e-07      0.483362
     9.99e-07      0.483459
        1e-06      0.483555
    1.001e-06      0.483652
    1.002e-06      0.483748
    1.003e-06      0.483844
    1.004e-06       0.48394
    1.005e-06      0.484036
    1.006e-06      0.484132
    1.007e-06      0.484228
    1.008e-06      0.484323
    1.009e-06      0.484419
     1.01e-06      0.484515
    1.011e-06       0.48461
    1.012e-06      0.484705
    1.013e-06        0.4848
    1.014e-06      0.484896
    1.015e-06      0.484991
    1.016e-06      0.485085
    1.017e-06       0.48518
    1.018e-06      0.485275
    1.019e-06       0.48537
     1.02e-06      0.485464
    1.021e-06      0.485559
    1.022e-06      0.485653
    1.023e-06      0.485747
    1.024e-06      0.485841
    1.025e-06      0.485936
    1.026e-06       0.48603
    1.027e-06      0.486123
    1.028e-06      0.486217
    1.029e-06      0.486311
     1.03e-06      0.486405
    1.031e-06      0.486498
    1.032e-06      0.486592
    1.033e-06      0.486685
    1.034e-06      0.486778
    1.035e-06      0.486871
    1.036e-06      0.486964
    1.037e-06      0.487057
    1.038e-06       0.48715
    1.039e-06      0.487243
     1.04e-06      0.487336
    1.041e-06      0.487428
    1.042e-06      0.487521
    1.043e-06      0.487613
    1.044e-06      0.487706
    1.045e-06      0.487798
    1.046e-06       0.48789
    1.047e-06      0.487982
    1.048e-06      0.488074
    1.049e-06      0.488166
     1.05e-06      0.488258
    1.051e-06       0.48835
    1.052e-06      0.488441
    1.053e-06      0.488533
    1.054e-06      0.488624
    1.055e-06      0.488716
    1.056e-06      0.488807
    1.057e-06      0.488898
    1.058e-06      0.488989
    1.059e-06       0.48908
     1.06e-06      0.489171
    1.061e-06      0.489262
    1.062e-06      0.489353
    1.063e-06      0.489444
    1.064e-06      0.489534
    1.065e-06      0.489625
    1.066e-06      0.489715
    1.067e-06      0.489805
    1.068e-06      0.489896