# Probe 0 (5e-06 5e-06 5e-06)
#       Probe             0
#        Time
        1e-09      0.666663
        2e-09      0.666657
        3e-09      0.666649
        4e-09      0.666638
        5e-09      0.666626
        6e-09      0.666612
        7e-09      0.666595
        8e-09      0.666576
        9e-09      0.666555
        1e-08      0.666532
      1.1e-08      0.666507
      1.2e-08       0.66648
      1.3e-08       0.66645
      1.4e-08      0.666418
      1.5e-08      0.666385
      1.6e-08      0.666349
      1.7e-08      0.666311
      1.8e-08       0.66627
      1.9e-08      0.666228
        2e-08      0.666183
      2.1e-08      0.666137
      2.2e-08      0.666088
      2.3e-08      0.666037
      2.4e-08      0.665984
      2.5e-08      0.665929
      2.6e-08      0.665872
      2.7e-08      0.665813
      2.8e-08      0.665752
      2.9e-08      0.665689
        3e-08      0.665624
      3.1e-08      0.665557
      3.2e-08      0.665488
      3.3e-08      0.665417
      3.4e-08      0.665344
      3.5e-08      0.665269
      3.6e-08      0.665192
      3.7e-08      0.665114
      3.8e-08      0.665033
      3.9e-08      0.664951
        4e-08      0.664867
      4.1e-08      0.664781
      4.2e-08      0.664693
      4.3e-08      0.664604
      4.4e-08      0.664513
      4.5e-08       0.66442
      4.6e-08      0.664325
      4.7e-08      0.664229
      4.8e-08      0.664131
      4.9e-08      0.664031
        5e-08      0.663929
      5.1e-08      0.663827
      5.2e-08      0.663722
      5.3e-08      0.663616
      5.4e-08      0.663508
      5.5e-08      0.663399
      5.6e-08      0.663288
      5.7e-08      0.663176
      5.8e-08      0.663062
      5.9e-08      0.662947
        6e-08       0.66283
      6.1e-08      0.662711
      6.2e-08      0.662592
      6.3e-08      0.662471
      6.4e-08      0.662348
      6.5e-08      0.662224
      6.6e-08      0.662099
      6.7e-08      0.661973
      6.8e-08      0.661845
      6.9e-08      0.661716
        7e-08      0.661585
      7.1e-08      0.661453
      7.2e-08       0.66132
      7.3e-08      0.661186
      7.4e-08       0.66105
      7.5e-08      0.660914
      7.6e-08      0.660776
      7.7e-08      0.660636
      7.8e-08      0.660496
      7.9e-08      0.660355
        8e-08      0.660212
      8.1e-08      0.660068
      8.2e-08      0.659923
      8.3e-08      0.659777
      8.4e-08       0.65963
      8.5e-08      0.659482
      8.6e-08      0.659333
      8.7e-08      0.659183
      8.8e-08      0.659032
      8.9e-08      0.658879
        9e-08      0.658726
      9.1e-08      0.658572
      9.2e-08      0.658416
      9.3e-08       0.65826
      9.4e-08      0.658103
      9.5e-08      0.657945
      9.6e-08      0.657786
      9.7e-08      0.657626
      9.8e-08      0.657465
      9.9e-08      0.657303
        1e-07      0.657141
     1.01e-07      0.656977
     1.02e-07      0.656813
     1.03e-07      0.656648
     1.04e-07      0.656482
     1.05e-07      0.656315
     1.06e-07      0.656148
     1.07e-07      0.655979
     1.08e-07       0.65581
     1.09e-07       0.65564
      1.1e-07      0.655469
     1.11e-07      0.655298
     1.12e-07      0.655126
     1.13e-07      0.654953
     1.14e-07      0.654779
     1.15e-07      0.654605
     1.16e-07       0.65443
     1.17e-07      0.654254
     1.18e-07      0.654078
     1.19e-07      0.653901
      1.2e-07      0.653723
     1.21e-07      0.653545
     1.22e-07      0.653366
     1.23e-07      0.653186
     1.24e-07      0.653006
     1.25e-07      0.652825
     1.26e-07      0.652644
     1.27e-07      0.652462
     1.28e-07      0.652279
     1.29e-07      0.652096
      1.3e-07      0.651913
     1.31e-07      0.651728
     1.32e-07      0.651544
     1.33e-07      0.651358
     1.34e-07      0.651172
     1.35e-07      0.650986
     1.36e-07      0.650799
     1.37e-07      0.650612
     1.38e-07      0.650424
     1.39e-07      0.650236
      1.4e-07      0.650047
     1.41e-07      0.649858
     1.42e-07      0.649668
     1.43e-07      0.649478
     1.44e-07      0.649287
     1.45e-07      0.649096
     1.46e-07      0.648904
     1.47e-07      0.648712
     1.48e-07       0.64852
     1.49e-07      0.648327
      1.5e-07      0.648134
     1.51e-07      0.647941
     1.52e-07      0.647747
     1.53e-07      0.647553
     1.54e-07      0.647358
     1.55e-07      0.647163
     1.56e-07      0.646968
     1.57e-07      0.646772
     1.58e-07      0.646576
     1.59e-07      0.646379
      1.6e-07      0.646183
     1.61e-07      0.645986
     1.62e-07      0.645788
     1.63e-07       0.64559
     1.64e-07      0.645392
     1.65e-07      0.645194
     1.66e-07      0.644996
     1.67e-07      0.644797
     1.68e-07      0.644598
     1.69e-07      0.644398
      1.7e-07      0.644198
     1.71e-07      0.643998
     1.72e-07      0.643798
     1.73e-07      0.643598
     1.74e-07      0.643397
     1.75e-07      0.643196
     1.76e-07      0.642995
     1.77e-07      0.642793
     1.78e-07      0.642592
     1.79e-07       0.64239
      1.8e-07      0.642188
     1.81e-07      0.641986
     1.82e-07      0.641783
     1.83e-07       0.64158
     1.84e-07      0.641377
     1.85e-07      0.641174
     1.86e-07      0.640971
     1.87e-07      0.640768
     1.88e-07      0.640564
     1.89e-07       0.64036
      1.9e-07      0.640156
     1.91e-07      0.639952
     1.92e-07      0.639748
     1.93e-07      0.639544
     1.94e-07      0.639339
     1.95e-07      0.639134
     1.96e-07      0.638929
     1.97e-07      0.638724
     1.98e-07      0.638519
     1.99e-07      0.638314
        2e-07      0.638109
     2.01e-07      0.637903
     2.02e-07      0.637698
     2.03e-07      0.637492
     2.04e-07      0.637286
     2.05e-07       0.63708
     2.06e-07      0.636874
     2.07e-07      0.636668
     2.08e-07      0.636462
     2.09e-07      0.636256
      2.1e-07      0.636049
     2.11e-07      0.635843
     2.12e-07      0.635636
     2.13e-07       0.63543
     2.14e-07      0.635223
     2.15e-07      0.635016
     2.16e-07      0.634809
     2.17e-07      0.634603
     2.18e-07      0.634396
     2.19e-07      0.634189
      2.2e-07      0.633982
     2.21e-07      0.633775
     2.22e-07      0.633568
     2.23e-07      0.633361
     2.24e-07      0.633153
     2.25e-07      0.632946
     2.26e-07      0.632739
     2.27e-07      0.632532
     2.28e-07      0.632324
     2.29e-07      0.632117
      2.3e-07       0.63191
     2.31e-07      0.631703
     2.32e-07      0.631495
     2.33e-07      0.631288
     2.34e-07      0.631081
     2.35e-07      0.630873
     2.36e-07      0.630666
     2.37e-07      0.630459
     2.38e-07      0.630251
     2.39e-07      0.630044
      2.4e-07      0.629837
     2.41e-07      0.629629
     2.42e-07      0.629422
     2.43e-07      0.629215
     2.44e-07      0.629007
     2.45e-07        0.6288
     2.46e-07      0.628593
     2.47e-07      0.628386
     2.48e-07      0.628179
     2.49e-07      0.627972
      2.5e-07      0.627765
     2.51e-07      0.627558
     2.52e-07      0.627351
     2.53e-07      0.627144
     2.54e-07      0.626937
     2.55e-07       0.62673
     2.56e-07      0.626523
     2.57e-07      0.626316
     2.58e-07       0.62611
     2.59e-07      0.625903
      2.6e-07      0.625696
     2.61e-07       0.62549
     2.62e-07      0.625283
     2.63e-07      0.625077
     2.64e-07      0.624871
     2.65e-07      0.624664
     2.66e-07      0.624458
     2.67e-07      0.624252
     2.68e-07      0.624046
     2.69e-07       0.62384
      2.7e-07      0.623634
     2.71e-07      0.623428
     2.72e-07      0.623223
     2.73e-07      0.623017
     2.74e-07      0.622811
     2.75e-07      0.622606
     2.76e-07        0.6224
     2.77e-07      0.622195
     2.78e-07       0.62199
     2.79e-07      0.621785
      2.8e-07       0.62158
     2.81e-07      0.621375
     2.82e-07       0.62117
     2.83e-07      0.620965
     2.84e-07       0.62076
     2.85e-07      0.620556
     2.86e-07      0.620351
     2.87e-07      0.620147
     2.88e-07      0.619943
     2.89e-07      0.619739
      2.9e-07      0.619535
     2.91e-07      0.619331
     2.92e-07      0.619127
     2.93e-07      0.618923
     2.94e-07       0.61872
     2.95e-07      0.618516
     2.96e-07      0.618313
     2.97e-07       0.61811
     2.98e-07      0.617907
     2.99e-07      0.617704
        3e-07      0.617501
     3.01e-07      0.617298
     3.02e-07      0.617096
     3.03e-07      0.616893
     3.04e-07      0.616691
     3.05e-07      0.616488
     3.06e-07      0.616286
     3.07e-07      0.616084
     3.08e-07      0.615883
     3.09e-07      0.615681
      3.1e-07      0.615479
     3.11e-07      0.615278
     3.12e-07      0.615077
     3.13e-07      0.614875
     3.14e-07      0.614674
     3.15e-07      0.614474
     3.16e-07      0.614273
     3.17e-07      0.614072
     3.18e-07      0.613872
     3.19e-07      0.613671
      3.2e-07      0.613471
     3.21e-07      0.613271
     3.22e-07      0.613071
     3.23e-07      0.612872
     3.24e-07      0.612672
     3.25e-07      0.612473
     3.26e-07      0.612273
     3.27e-07      0.612074
     3.28e-07      0.611875
     3.29e-07      0.611676
      3.3e-07      0.611478
     3.31e-07      0.611279
     3.32e-07      0.611081
     3.33e-07      0.610883
     3.34e-07      0.610685
     3.35e-07      0.610487
     3.36e-07      0.610289
     3.37e-07      0.610091
     3.38e-07      0.609894
     3.39e-07      0.609697
      3.4e-07        0.6095
     3.41e-07      0.609303
     3.42e-07      0.609106
     3.43e-07      0.608909
     3.44e-07      0.608713
     3.45e-07      0.608516
     3.46e-07       0.60832
     3.47e-07      0.608124
     3.48e-07      0.607929
     3.49e-07      0.607733
      3.5e-07      0.607537
     3.51e-07      0.607342
     3.52e-07      0.607147
     3.53e-07      0.606952
     3.54e-07      0.606757
     3.55e-07      0.606563
     3.56e-07      0.606368
     3.57e-07      0.606174
     3.58e-07       0.60598
     3.59e-07      0.605786
      3.6e-07      0.605592
     3.61e-07      0.605398
     3.62e-07      0.605205
     3.63e-07      0.605012
     3.64e-07      0.604819
     3.65e-07      0.604626
     3.66e-07      0.604433
     3.67e-07      0.604241
     3.68e-07      0.604048
     3.69e-07      0.603856
      3.7e-07      0.603664
     3.71e-07      0.603472
     3.72e-07      0.603281
     3.73e-07      0.603089
     3.74e-07      0.602898
     3.75e-07      0.602707
     3.76e-07      0.602516
     3.77e-07      0.602325
     3.78e-07      0.602134
     3.79e-07      0.601944
      3.8e-07      0.601754
     3.81e-07      0.601564
     3.82e-07      0.601374
     3.83e-07      0.601184
     3.84e-07      0.600995
     3.85e-07      0.600805
     3.86e-07      0.600616
     3.87e-07      0.600427
     3.88e-07      0.600239
     3.89e-07       0.60005
      3.9e-07      0.599862
     3.91e-07      0.599673
     3.92e-07      0.599485
     3.93e-07      0.599298
     3.94e-07       0.59911
     3.95e-07      0.598923
     3.96e-07      0.598735
     3.97e-07      0.598548
     3.98e-07      0.598361
     3.99e-07      0.598175
        4e-07      0.597988
     4.01e-07      0.597802
     4.02e-07      0.597616
     4.03e-07       0.59743
     4.04e-07      0.597244
     4.05e-07      0.597058
     4.06e-07      0.596873
     4.07e-07      0.596688
     4.08e-07      0.596503
     4.09e-07      0.596318
      4.1e-07      0.596133
     4.11e-07      0.595949
     4.12e-07      0.595764
     4.13e-07       0.59558
     4.14e-07      0.595397
     4.15e-07      0.595213
     4.16e-07      0.595029
     4.17e-07      0.594846
     4.18e-07      0.594663
     4.19e-07       0.59448
      4.2e-07      0.594297
     4.21e-07      0.594115
     4.22e-07      0.593932
     4.23e-07       0.59375
     4.24e-07      0.593568
     4.25e-07      0.593386
     4.26e-07      0.593205
     4.27e-07      0.593023
     4.28e-07      0.592842
     4.29e-07      0.592661
      4.3e-07       0.59248
     4.31e-07        0.5923
     4.32e-07      0.592119
     4.33e-07      0.591939
     4.34e-07      0.591759
     4.35e-07      0.591579
     4.36e-07      0.591399
     4.37e-07       0.59122
     4.38e-07      0.591041
     4.39e-07      0.590862
      4.4e-07      0.590683
     4.41e-07      0.590504
     4.42e-07      0.590325
     4.43e-07      0.590147
     4.44e-07      0.589969
     4.45e-07      0.589791
     4.46e-07      0.589613
     4.47e-07      0.589436
     4.48e-07      0.589258
     4.49e-07      0.589081
      4.5e-07      0.588904
     4.51e-07      0.588727
     4.52e-07      0.588551
     4.53e-07      0.588374
     4.54e-07      0.588198
     4.55e-07      0.588022
     4.56e-07      0.587846
     4.57e-07      0.587671
     4.58e-07      0.587495
     4.59e-07       0.58732
      4.6e-07      0.587145
     4.61e-07       0.58697
     4.62e-07      0.586796
     4.63e-07      0.586621
     4.64e-07      0.586447
     4.65e-07      0.586273
     4.66e-07      0.586099
     4.67e-07      0.585925
     4.68e-07      0.585752
     4.69e-07      0.585578
      4.7e-07      0.585405
     4.71e-07      0.585232
     4.72e-07      0.585059
     4.73e-07      0.584887
     4.74e-07      0.584715
     4.75e-07      0.584542
     4.76e-07       0.58437
     4.77e-07      0.584199
     4.78e-07      0.584027
     4.79e-07      0.583856
      4.8e-07      0.583684
     4.81e-07      0.583513
     4.82e-07      0.583343
     4.83e-07      0.583172
     4.84e-07      0.583002
     4.85e-07      0.582831
     4.86e-07      0.582661
     4.87e-07      0.582491
     4.88e-07      0.582322
     4.89e-07      0.582152
      4.9e-07      0.581983
     4.91e-07      0.581814
     4.92e-07      0.581645
     4.93e-07      0.581476
     4.94e-07      0.581308
     4.95e-07      0.581139
     4.96e-07      0.580971
     4.97e-07      0.580803
     4.98e-07      0.580636
     4.99e-07      0.580468
        5e-07      0.580301
     5.01e-07      0.580133
     5.02e-07      0.579966
     5.03e-07        0.5798
     5.04e-07      0.579633
     5.05e-07      0.579467
     5.06e-07        0.5793
     5.07e-07      0.579134
     5.08e-07      0.578968
     5.09e-07      0.578803
      5.1e-07      0.578637
     5.11e-07      0.578472
     5.12e-07      0.578307
     5.13e-07      0.578142
     5.14e-07      0.577977
     5.15e-07      0.577813
     5.16e-07      0.577648
     5.17e-07      0.577484
     5.18e-07       0.57732
     5.19e-07      0.577156
      5.2e-07      0.576993
     5.21e-07      0.576829
     5.22e-07      0.576666
     5.23e-07      0.576503
     5.24e-07       0.57634
     5.25e-07      0.576177
     5.26e-07      0.576015
     5.27e-07      0.575853
     5.28e-07       0.57569
     5.29e-07      0.575529
      5.3e-07      0.575367
     5.31e-07      0.575205
     5.32e-07      0.575044
     5.33e-07      0.574883
     5.34e-07      0.574722
     5.35e-07      0.574561
     5.36e-07        0.5744
     5.37e-07       0.57424
     5.38e-07       0.57408
     5.39e-07      0.573919
      5.4e-07       0.57376
     5.41e-07        0.5736
     5.42e-07       0.57344
     5.43e-07      0.573281
     5.44e-07      0.573122
     5.45e-07      0.572963
     5.46e-07      0.572804
     5.47e-07      0.572646
     5.48e-07      0.572487
     5.49e-07      0.572329
      5.5e-07      0.572171
     5.51e-07      0.572013
     5.52e-07      0.571855
     5.53e-07      0.571698
     5.54e-07       0.57154
     5.55e-07      0.571383
     5.56e-07      0.571226
     5.57e-07       0.57107
     5.58e-07      0.570913
     5.59e-07      0.570757
      5.6e-07        0.5706
     5.61e-07      0.570444
     5.62e-07      0.570288
     5.63e-07      0.570133
     5.64e-07      0.569977
     5.65e-07      0.569822
     5.66e-07      0.569667
     5.67e-07      0.569512
     5.68e-07      0.569357
     5.69e-07      0.569202
      5.7e-07      0.569048
     5.71e-07      0.568894
     5.72e-07      0.568739
     5.73e-07      0.568586
     5.74e-07      0.568432
     5.75e-07      0.568278
     5.76e-07      0.568125
     5.77e-07      0.567972
     5.78e-07      0.567819
     5.79e-07      0.567666
      5.8e-07      0.567513
     5.81e-07      0.567361
     5.82e-07      0.567208
     5.83e-07      0.567056
     5.84e-07      0.566904
     5.85e-07      0.566753
     5.86e-07      0.566601
     5.87e-07       0.56645
     5.88e-07      0.566298
     5.89e-07      0.566147
      5.9e-07      0.565996
     5.91e-07      0.565846
     5.92e-07      0.565695
     5.93e-07      0.565545
     5.94e-07      0.565394
     5.95e-07      0.565244
     5.96e-07      0.565095
     5.97e-07      0.564945
     5.98e-07      0.564795
     5.99e-07      0.564646
        6e-07      0.564497
     6.01e-07      0.564348
     6.02e-07      0.564199
     6.03e-07       0.56405
     6.04e-07      0.563902
     6.05e-07      0.563754
     6.06e-07      0.563606
     6.07e-07      0.563458
     6.08e-07       0.56331
     6.09e-07      0.563162
      6.1e-07      0.563015
     6.11e-07      0.562867
     6.12e-07       0.56272
     6.13e-07      0.562573
     6.14e-07      0.562427
     6.15e-07       0.56228
     6.16e-07      0.562134
     6.17e-07      0.561987
     6.18e-07      0.561841
     6.19e-07      0.561695
      6.2e-07       0.56155
     6.21e-07      0.561404
     6.22e-07      0.561259
     6.23e-07      0.561113
     6.24e-07      0.560968
     6.25e-07      0.560824
     6.26e-07      0.560679
     6.27e-07      0.560534
     6.28e-07       0.56039
     6.29e-07      0.560246
      6.3e-07      0.560102
     6.31e-07      0.559958
     6.32e-07      0.559814
     6.33e-07       0.55967
     6.34e-07      0.559527
     6.35e-07      0.559384
     6.36e-07      0.559241
     6.37e-07      0.559098
     6.38e-07      0.558955
     6.39e-07      0.558812
      6.4e-07       0.55867
     6.41e-07      0.558528
     6.42e-07      0.558386
     6.43e-07      0.558244
     6.44e-07      0.558102
     6.45e-07       0.55796
     6.46e-07      0.557819
     6.47e-07      0.557678
     6.48e-07      0.557537
     6.49e-07      0.557396
      6.5e-07      0.557255
     6.51e-07      0.557114
     6.52e-07      0.556974
     6.53e-07      0.556833
     6.54e-07      0.556693
     6.55e-07      0.556553
     6.56e-07      0.556414
     6.57e-07      0.556274
     6.58e-07      0.556134
     6.59e-07      0.555995
      6.6e-07      0.555856
     6.61e-07      0.555717
     6.62e-07      0.555578
     6.63e-07      0.555439
     6.64e-07      0.555301
     6.65e-07      0.555162
     6.66e-07      0.555024
     6.67e-07      0.554886
     6.68e-07      0.554748
     6.69e-07      0.554611
      6.7e-07      0.554473
     6.71e-07      0.554336
     6.72e-07      0.554198
     6.73e-07      0.554061
     6.74e-07      0.553924
     6.75e-07      0.553787
     6.76e-07      0.553651
     6.77e-07      0.553514
     6.78e-07      0.553378
     6.79e-07      0.553242
      6.8e-07      0.553106
     6.81e-07       0.55297
     6.82e-07      0.552834
     6.83e-07      0.552699
     6.84e-07      0.552563
     6.85e-07      0.552428
     6.86e-07      0.552293
     6.87e-07      0.552158
     6.88e-07      0.552023
     6.89e-07      0.551889
      6.9e-07      0.551754
     6.91e-07       0.55162
     6.92e-07      0.551486
     6.93e-07      0.551352
     6.94e-07      0.551218
     6.95e-07      0.551084
     6.96e-07      0.550951
     6.97e-07      0.550817
     6.98e-07      0.550684
     6.99e-07      0.550551
        7e-07      0.550418
     7.01e-07      0.550285
     7.02e-07      0.550152
     7.03e-07       0.55002
     7.04e-07      0.549888
     7.05e-07      0.549755
     7.06e-07      0.549623
     7.07e-07      0.549492
     7.08e-07       0.54936
     7.09e-07      0.549228
      7.1e-07      0.549097
     7.11e-07      0.548965
     7.12e-07      0.548834
     7.13e-07      0.548703
     7.14e-07      0.548572
     7.15e-07      0.548442
     7.16e-07      0.548311
     7.17e-07      0.548181
     7.18e-07      0.548051
     7.19e-07       0.54792
      7.2e-07       0.54779
     7.21e-07      0.547661
     7.22e-07      0.547531
     7.23e-07      0.547401
     7.24e-07      0.547272
     7.25e-07      0.547143
     7.26e-07      0.547014
     7.27e-07      0.546885
     7.28e-07      0.546756
     7.29e-07      0.546627
      7.3e-07      0.546499
     7.31e-07       0.54637
     7.32e-07      0.546242
     7.33e-07      0.546114
     7.34e-07      0.545986
     7.35e-07      0.545859
     7.36e-07      0.545731
     7.37e-07      0.545603
     7.38e-07      0.545476
     7.39e-07      0.545349
      7.4e-07      0.545222
     7.41e-07      0.545095
     7.42e-07      0.544968
     7.43e-07      0.544841
     7.44e-07      0.544715
     7.45e-07      0.544589
     7.46e-07      0.544462
     7.47e-07      0.544336
     7.48e-07       0.54421
     7.49e-07      0.544085
      7.5e-07      0.543959
     7.51e-07      0.543833
     7.52e-07      0.543708
     7.53e-07      0.543583
     7.54e-07      0.543458
     7.55e-07      0.543333
     7.56e-07      0.543208
     7.57e-07      0.543083
     7.58e-07      0.542959
     7.59e-07      0.542834
      7.6e-07       0.54271
     7.61e-07      0.542586
     7.62e-07      0.542462
     7.63e-07      0.542338
     7.64e-07      0.542214
     7.65e-07      0.542091
     7.66e-07      0.541967
     7.67e-07      0.541844
     7.68e-07      0.541721
     7.69e-07      0.541598
      7.7e-07      0.541475
     7.71e-07      0.541352
     7.72e-07       0.54123
     7.73e-07      0.541107
     7.74e-07      0.540985
     7.75e-07      0.540863
     7.76e-07      0.540741
     7.77e-07      0.540619
     7.78e-07      0.540497
     7.79e-07      0.540375
      7.8e-07      0.540254
     7.81e-07      0.540132
     7.82e-07      0.540011
     7.83e-07       0.53989
     7.84e-07      0.539769
     7.85e-07      0.539648
     7.86e-07      0.539527
     7.87e-07      0.539407
     7.88e-07      0.539286
     7.89e-07      0.539166
      7.9e-07      0.539046
     7.91e-07      0.538926
     7.92e-07      0.538806
     7.93e-07      0.538686
     7.94e-07      0.538566
     7.95e-07      0.538447
     7.96e-07      0.538327
     7.97e-07      0.538208
     7.98e-07      0.538089
     7.99e-07       0.53797
        8e-07      0.537851
     8.01e-07      0.537732
     8.02e-07      0.537614
     8.03e-07      0.537495
     8.04e-07      0.537377
     8.05e-07      0.537259
     8.06e-07       0.53714
     8.07e-07      0.537022
     8.08e-07      0.536905
     8.09e-07      0.536787
      8.1e-07      0.536669
     8.11e-07      0.536552
     8.12e-07      0.536434
     8.13e-07      0.536317
     8.14e-07        0.5362
     8.15e-07      0.536083
     8.16e-07      0.535966
     8.17e-07       0.53585
     8.18e-07      0.535733
     8.19e-07      0.535617
      8.2e-07        0.5355
     8.21e-07      0.535384
     8.22e-07      0.535268
     8.23e-07      0.535152
     8.24e-07      0.535036
     8.25e-07      0.534921
     8.26e-07      0.534805
     8.27e-07       0.53469
     8.28e-07      0.534574
     8.29e-07      0.534459
      8.3e-07      0.534344
     8.31e-07      0.534229
     8.32e-07      0.534114
     8.33e-07         0.534
     8.34e-07      0.533885
     8.35e-07      0.533771
     8.36e-07      0.533656
     8.37e-07      0.533542
     8.38e-07      0.533428
     8.39e-07      0.533314
      8.4e-07        0.5332
     8.41e-07      0.533087
     8.42e-07      0.532973
     8.43e-07       0.53286
     8.44e-07      0.532746
     8.45e-07      0.532633
     8.46e-07       0.53252
     8.47e-07      0.532407
     8.48e-07      0.532294
     8.49e-07      0.532181
      8.5e-07      0.532069
     8.51e-07      0.531956
     8.52e-07      0.531844
     8.53e-07      0.531732
     8.54e-07       0.53162
     8.55e-07      0.531508
     8.56e-07      0.531396
     8.57e-07      0.531284
     8.58e-07      0.531172
     8.59e-07      0.531061
      8.6e-07      0.530949
     8.61e-07      0.530838
     8.62e-07      0.530727
     8.63e-07      0.530616
     8.64e-07      0.530505
     8.65e-07      0.530394
     8.66e-07      0.530283
     8.67e-07      0.530173
     8.68e-07      0.530062
     8.69e-07      0.529952
      8.7e-07      0.529842
     8.71e-07      0.529732
     8.72e-07      0.529622
     8.73e-07      0.529512
     8.74e-07      0.529402
     8.75e-07      0.529292
     8.76e-07      0.529183
     8.77e-07      0.529073
     8.78e-07      0.528964
     8.79e-07      0.528855
      8.8e-07      0.528746
     8.81e-07      0.528637
     8.82e-07      0.528528
     8.83e-07      0.528419
     8.84e-07      0.528311
     8.85e-07      0.528202
     8.86e-07      0.528094
     8.87e-07      0.527985
     8.88e-07      0.527877
     8.89e-07      0.527769
      8.9e-07      0.527661
     8.91e-07      0.527553
     8.92e-07      0.527446
     8.93e-07      0.527338
     8.94e-07      0.527231
     8.95e-07      0.527123
     8.96e-07      0.527016
     8.97e-07      0.526909
     8.98e-07      0.526802
     8.99e-07      0.526695
        9e-07      0.526588
     9.01e-07      0.526482
     9.02e-07      0.526375
     9.03e-07      0.526268
     9.04e-07      0.526162
     9.05e-07      0.526056
     9.06e-07       0.52595
     9.07e-07      0.525844
     9.08e-07      0.525738
     9.09e-07      0.525632
      9.1e-07      0.525526
     9.11e-07      0.525421
     9.12e-07      0.525315
     9.13e-07       0.52521
     9.14e-07      0.525105
     9.15e-07      0.524999
     9.16e-07      0.524894
     9.17e-07       0.52479
     9.18e-07      0.524685
     9.19e-07       0.52458
      9.2e-07      0.524475
     9.21e-07      0.524371
     9.22e-07      0.524267
     9.23e-07      0.524162
     9.24e-07      0.524058
     9.25e-07      0.523954
     9.26e-07       0.52385
     9.27e-07      0.523746
     9.28e-07      0.523642
     9.29e-07      0.523539
      9.3e-07      0.523435
     9.31e-07      0.523332
     9.32e-07      0.523229
     9.33e-07      0.523125
     9.34e-07      0.523022
     9.35e-07      0.522919
     9.36e-07      0.522816
     9.37e-07      0.522714
     9.38e-07      0.522611
     9.39e-07      0.522508
      9.4e-07      0.522406
     9.41e-07      0.522304
     9.42e-07      0.522201
     9.43e-07      0.522099
     9.44e-07      0.521997
     9.45e-07      0.521895
     9.46e-07      0.521793
     9.47e-07      0.521692
     9.48e-07       0.52159
     9.49e-07      0.521488
      9.5e-07      0.521387
     9.51e-07      0.521286
     9.52e-07      0.521184
     9.53e-07      0.521083
     9.54e-07      0.520982
     9.55e-07      0.520881
     9.56e-07      0.520781
     9.57e-07       0.52068
     9.58e-07      0.520579
     9.59e-07      0.520479
      9.6e-07      0.520378
     9.61e-07      0.520278
     9.62e-07      0.520178
     9.63e-07      0.520078
     9.64e-07      0.519978
     9.65e-07      0.519878
     9.66e-07      0.519778
     9.67e-07      0.519679
     9.68e-07      0.519579
     9.69e-07      0.519479
      9.7e-07       0.51938
     9.71e-07      0.519281
     9.72e-07      0.519182
     9.73e-07      0.519083
     9.74e-07      0.518984
     9.75e-07      0.518885
     9.76e-07      0.518786
     9.77e-07      0.518687
     9.78e-07      0.518589
     9.79e-07       0.51849
      9.8e-07      0.518392
     9.81e-07      0.518293
     9.82e-07      0.518195
     9.83e-07      0.518097
     9.84e-07      0.517999
     9.85e-07      0.517901
     9.86e-07      0.517804
     9.87e-07      0.517706
     9.88e-07      0.517608
     9.89e-07      0.517511
      9.9e-07      0.517413
     9.91e-07      0.517316
     9.92e-07      0.517219
     9.93e-07      0.517122
     9.94e-07      0.517025
     9.95e-07      0.516928
     9.96e-07      0.516831
     9.97e-07      0.516734
     9.98e-07      0.516638
     9.99e-07      0.516541
        1e-06      0.516445
    1.001e-06      0.516348
    1.002e-06      0.516252
    1.003e-06      0.516156
    1.004e-06       0.51606
    1.005e-06      0.515964
    1.006e-06      0.515868
    1.007e-06      0.515772
    1.008e-06      0.515677
    1.009e-06      0.515581
     1.01e-06      0.515485
    1.011e-06       0.51539
    1.012e-06      0.515295
    1.013e-06        0.5152
    1.014e-06      0.515104
    1.015e-06      0.515009
    1.016e-06      0.514915
    1.017e-06       0.51482
    1.018e-06      0.514725
    1.019e-06       0.51463
     1.02e-06      0.514536
    1.021e-06      0.514441
    1.022e-06      0.514347
    1.023e-06      0.514253
    1.024e-06      0.514159
    1.025e-06      0.514064
    1.026e-06       0.51397
    1.027e-06      0.513877
    1.028e-06      0.513783
    1.029e-06      0.513689
     1.03e-06      0.513595
    1.031e-06      0.513502
    1.032e-06      0.513408
    1.033e-06      0.513315
    1.034e-06      0.513222
    1.035e-06      0.513129
    1.036e-06      0.513036
    1.037e-06      0.512943
    1.038e-06       0.51285
    1.039e-06      0.512757
     1.04e-06      0.512664
    1.041e-06      0.512572
    1.042e-06      0.512479
    1.043e-06      0.512387
    1.044e-06      0.512294
    1.045e-06      0.512202
    1.046e-06       0.51211
    1.047e-06      0.512018
    1.048e-06      0.511926
    1.049e-06      0.511834
     1.05e-06      0.511742
    1.051e-06       0.51165
    1.052e-06      0.511559
    1.053e-06      0.511467
    1.054e-06      0.511376
    1.055e-06      0.511284
    1.056e-06      0.511193
    1.057e-06      0.511102
    1.058e-06      0.511011
    1.059e-06       0.51092
     1.06e-06      0.510829
    1.061e-06      0.510738
    1.062e-06      0.510647
    1.063e-06      0.510556
    1.064e-06      0.510466
    1.065e-06      0.510375
    1.066e-06      0.510285
    1.067e-06      0.510195
    1.068e-06      0.510104