# Probe 0 (5e-06 5e-06 5e-06)
#       Probe             0
#        Time
        1e-09      0.492299
        2e-09       0.48495
        3e-09      0.477928
        4e-09       0.47121
        5e-09      0.464776
        6e-09      0.458606
        7e-09      0.452683
        8e-09      0.446993
        9e-09      0.441519
        1e-08       0.43625
      1.1e-08      0.431172
      1.2e-08      0.426275
      1.3e-08      0.421548
      1.4e-08      0.416982
      1.5e-08      0.412568
      1.6e-08      0.408297
      1.7e-08      0.404163
      1.8e-08      0.400158
      1.9e-08      0.396275
        2e-08      0.392509
      2.1e-08      0.388854
      2.2e-08      0.385304
      2.3e-08      0.381855
      2.4e-08      0.378501
      2.5e-08      0.375239
      2.6e-08      0.372064
      2.7e-08      0.368973
      2.8e-08      0.365962
      2.9e-08      0.363028
        3e-08      0.360167
      3.1e-08      0.357376
      3.2e-08      0.354653
      3.3e-08      0.351995
      3.4e-08      0.349399
      3.5e-08      0.346863
      3.6e-08      0.344385
      3.7e-08      0.341962
      3.8e-08      0.339593
      3.9e-08      0.337275
        4e-08      0.335007
      4.1e-08      0.332787
      4.2e-08      0.330613
      4.3e-08      0.328484
      4.4e-08      0.326398
      4.5e-08      0.324354
      4.6e-08      0.322351
      4.7e-08      0.320386
      4.8e-08      0.318459
      4.9e-08      0.316569
        5e-08      0.314715
      5.1e-08      0.312895
      5.2e-08      0.311108
      5.3e-08      0.309353
      5.4e-08       0.30763
      5.5e-08      0.305938
      5.6e-08      0.304274
      5.7e-08       0.30264
      5.8e-08      0.301034
      5.9e-08      0.299455
        6e-08      0.297902
      6.1e-08      0.296375
      6.2e-08      0.294873
      6.3e-08      0.293395
      6.4e-08       0.29194
      6.5e-08      0.290509
      6.6e-08      0.289101
      6.7e-08      0.287714
      6.8e-08      0.286348
      6.9e-08      0.285003
        7e-08      0.283679
      7.1e-08      0.282374
      7.2e-08      0.281088
      7.3e-08      0.279822
      7.4e-08      0.278573
      7.5e-08      0.277343
      7.6e-08       0.27613
      7.7e-08      0.274934
      7.8e-08      0.273755
      7.9e-08      0.272592
        8e-08      0.271445
      8.1e-08      0.270313
      8.2e-08      0.269197
      8.3e-08      0.268096
      8.4e-08      0.267009
      8.5e-08      0.265936
      8.6e-08      0.264878
      8.7e-08      0.263833
      8.8e-08      0.262801
      8.9e-08      0.261782
        9e-08      0.260777
      9.1e-08      0.259783
      9.2e-08      0.258802
      9.3e-08      0.257834
      9.4e-08      0.256876
      9.5e-08      0.255931
      9.6e-08      0.254996
      9.7e-08      0.254073
      9.8e-08      0.253161
      9.9e-08      0.252259
        1e-07      0.251368
     1.01e-07      0.250487
     1.02e-07      0.249616
     1.03e-07      0.248755
     1.04e-07      0.247904
     1.05e-07      0.247062
     1.06e-07      0.246229
     1.07e-07      0.245406
     1.08e-07      0.244591
     1.09e-07      0.243786
      1.1e-07      0.242989
     1.11e-07        0.2422
     1.12e-07       0.24142
     1.13e-07      0.240648
     1.14e-07      0.239885
     1.15e-07      0.239129
     1.16e-07      0.238381
     1.17e-07       0.23764
     1.18e-07      0.236908
     1.19e-07      0.236182
      1.2e-07      0.235464
     1.21e-07      0.234753
     1.22e-07      0.234049
     1.23e-07      0.233352
     1.24e-07      0.232662
     1.25e-07      0.231978
     1.26e-07      0.231301
     1.27e-07      0.230631
     1.28e-07      0.229966
     1.29e-07      0.229309
      1.3e-07      0.228657
     1.31e-07      0.228011
     1.32e-07      0.227372
     1.33e-07      0.226738
     1.34e-07       0.22611
     1.35e-07      0.225488
     1.36e-07      0.224871
     1.37e-07       0.22426
     1.38e-07      0.223655
     1.39e-07      0.223055
      1.4e-07       0.22246
     1.41e-07       0.22187
     1.42e-07      0.221286
     1.43e-07      0.220706
     1.44e-07      0.220132
     1.45e-07      0.219562
     1.46e-07      0.218997
     1.47e-07      0.218437
     1.48e-07      0.217882
     1.49e-07      0.217332
      1.5e-07      0.216786
     1.51e-07      0.216244
     1.52e-07      0.215707
     1.53e-07      0.215175
     1.54e-07      0.214646
     1.55e-07      0.214122
     1.56e-07      0.213602
     1.57e-07      0.213087
     1.58e-07      0.212575
     1.59e-07      0.212068
      1.6e-07      0.211564
     1.61e-07      0.211065
     1.62e-07      0.210569
     1.63e-07      0.210077
     1.64e-07      0.209589
     1.65e-07      0.209105
     1.66e-07      0.208624
     1.67e-07      0.208147
     1.68e-07      0.207674
     1.69e-07      0.207204
      1.7e-07      0.206738
     1.71e-07      0.206275
     1.72e-07      0.205815
     1.73e-07      0.205359
     1.74e-07      0.204906
     1.75e-07      0.204457
     1.76e-07      0.204011
     1.77e-07      0.203567
     1.78e-07      0.203128
     1.79e-07      0.202691
      1.8e-07      0.202257
     1.81e-07      0.201827
     1.82e-07      0.201399
     1.83e-07      0.200975
     1.84e-07      0.200553
     1.85e-07      0.200134
     1.86e-07      0.199718
     1.87e-07      0.199305
     1.88e-07      0.198895
     1.89e-07      0.198488
      1.9e-07      0.198083
     1.91e-07      0.197681
     1.92e-07      0.197282
     1.93e-07      0.196886
     1.94e-07      0.196492
     1.95e-07        0.1961
     1.96e-07      0.195711
     1.97e-07      0.195325
     1.98e-07      0.194941
     1.99e-07       0.19456
        2e-07      0.194181
     2.01e-07      0.193805
     2.02e-07      0.193431
     2.03e-07      0.193059
     2.04e-07       0.19269
     2.05e-07      0.192323
     2.06e-07      0.191959
     2.07e-07      0.191596
     2.08e-07      0.191236
     2.09e-07      0.190878
      2.1e-07      0.190523
     2.11e-07      0.190169
     2.12e-07      0.189818
     2.13e-07      0.189469
     2.14e-07      0.189122
     2.15e-07      0.188777
     2.16e-07      0.188434
     2.17e-07      0.188093
     2.18e-07      0.187754
     2.19e-07      0.187417
      2.2e-07      0.187082
     2.21e-07      0.186749
     2.22e-07      0.186418
     2.23e-07      0.186089
     2.24e-07      0.185762
     2.25e-07      0.185437
     2.26e-07      0.185114
     2.27e-07      0.184792
     2.28e-07      0.184472
     2.29e-07      0.184155
      2.3e-07      0.183839
     2.31e-07      0.183524
     2.32e-07      0.183212
     2.33e-07      0.182901
     2.34e-07      0.182592
     2.35e-07      0.182285
     2.36e-07      0.181979
     2.37e-07      0.181675
     2.38e-07      0.181373
     2.39e-07      0.181072
      2.4e-07      0.180773
     2.41e-07      0.180476
     2.42e-07       0.18018
     2.43e-07      0.179886
     2.44e-07      0.179593
     2.45e-07      0.179302
     2.46e-07      0.179013
     2.47e-07      0.178725
     2.48e-07      0.178438
     2.49e-07      0.178153
      2.5e-07       0.17787
     2.51e-07      0.177588
     2.52e-07      0.177307
     2.53e-07      0.177028
     2.54e-07      0.176751
     2.55e-07      0.176474
     2.56e-07        0.1762
     2.57e-07      0.175926
     2.58e-07      0.175654
     2.59e-07      0.175383
      2.6e-07      0.175114
     2.61e-07      0.174846
     2.62e-07       0.17458
     2.63e-07      0.174314
     2.64e-07       0.17405
     2.65e-07      0.173788
     2.66e-07      0.173526
     2.67e-07      0.173266
     2.68e-07      0.173008
     2.69e-07       0.17275
      2.7e-07      0.172494
     2.71e-07      0.172239
     2.72e-07      0.171985
     2.73e-07      0.171732
     2.74e-07      0.171481
     2.75e-07      0.171231
     2.76e-07      0.170982
     2.77e-07      0.170734
     2.78e-07      0.170487
     2.79e-07      0.170242
      2.8e-07      0.169998
     2.81e-07      0.169754
     2.82e-07      0.169512
     2.83e-07      0.169271
     2.84e-07      0.169032
     2.85e-07      0.168793
     2.86e-07      0.168555
     2.87e-07      0.168319
     2.88e-07      0.168083
     2.89e-07      0.167849
      2.9e-07      0.167616
     2.91e-07      0.167383
     2.92e-07      0.167152
     2.93e-07      0.166922
     2.94e-07      0.166693
     2.95e-07      0.166465
     2.96e-07      0.166238
     2.97e-07      0.166012
     2.98e-07      0.165787
     2.99e-07      0.165563
        3e-07      0.165339
     3.01e-07      0.165117
     3.02e-07      0.164896
     3.03e-07      0.164676
     3.04e-07      0.164457
     3.05e-07      0.164238
     3.06e-07      0.164021
     3.07e-07      0.163804
     3.08e-07      0.163589
     3.09e-07      0.163374
      3.1e-07      0.163161
     3.11e-07      0.162948
     3.12e-07      0.162736
     3.13e-07      0.162525
     3.14e-07      0.162315
     3.15e-07      0.162106
     3.16e-07      0.161897
     3.17e-07       0.16169
     3.18e-07      0.161483
     3.19e-07      0.161278
      3.2e-07      0.161073
     3.21e-07      0.160869
     3.22e-07      0.160665
     3.23e-07      0.160463
     3.24e-07      0.160261
     3.25e-07      0.160061
     3.26e-07      0.159861
     3.27e-07      0.159661
     3.28e-07      0.159463
     3.29e-07      0.159266
      3.3e-07      0.159069
     3.31e-07      0.158873
     3.32e-07      0.158678
     3.33e-07      0.158483
     3.34e-07       0.15829
     3.35e-07      0.158097
     3.36e-07      0.157905
     3.37e-07      0.157713
     3.38e-07      0.157523
     3.39e-07      0.157333
      3.4e-07      0.157144
     3.41e-07      0.156955
     3.42e-07      0.156767
     3.43e-07       0.15658
     3.44e-07      0.156394
     3.45e-07      0.156209
     3.46e-07      0.156024
     3.47e-07       0.15584
     3.48e-07      0.155656
     3.49e-07      0.155474
      3.5e-07      0.155292
     3.51e-07       0.15511
     3.52e-07      0.154929
     3.53e-07       0.15475
     3.54e-07       0.15457
     3.55e-07      0.154392
     3.56e-07      0.154214
     3.57e-07      0.154036
     3.58e-07       0.15386
     3.59e-07      0.153683
      3.6e-07      0.153508
     3.61e-07      0.153333
     3.62e-07      0.153159
     3.63e-07      0.152986
     3.64e-07      0.152813
     3.65e-07      0.152641
     3.66e-07      0.152469
     3.67e-07      0.152298
     3.68e-07      0.152128
     3.69e-07      0.151958
      3.7e-07      0.151789
     3.71e-07       0.15162
     3.72e-07      0.151452
     3.73e-07      0.151285
     3.74e-07      0.151118
     3.75e-07      0.150952
     3.76e-07      0.150787
     3.77e-07      0.150622
     3.78e-07      0.150457
     3.79e-07      0.150293
      3.8e-07       0.15013
     3.81e-07      0.149967
     3.82e-07      0.149805
     3.83e-07      0.149644
     3.84e-07      0.149483
     3.85e-07      0.149322
     3.86e-07      0.149162
     3.87e-07      0.149003
     3.88e-07      0.148844
     3.89e-07      0.148686
      3.9e-07      0.148528
     3.91e-07      0.148371
     3.92e-07      0.148214
     3.93e-07      0.148058
     3.94e-07      0.147902
     3.95e-07      0.147747
     3.96e-07      0.147593
     3.97e-07      0.147438
     3.98e-07      0.147285
     3.99e-07      0.147132
        4e-07      0.146979
     4.01e-07      0.146827
     4.02e-07      0.146676
     4.03e-07      0.146525
     4.04e-07      0.146374
     4.05e-07      0.146224
     4.06e-07      0.146074
     4.07e-07      0.145925
     4.08e-07      0.145777
     4.09e-07      0.145629
      4.1e-07      0.145481
     4.11e-07      0.145334
     4.12e-07      0.145187
     4.13e-07      0.145041
     4.14e-07      0.144895
     4.15e-07       0.14475
     4.16e-07      0.144605
     4.17e-07      0.144461
     4.18e-07      0.144317
     4.19e-07      0.144173
      4.2e-07       0.14403
     4.21e-07      0.143888
     4.22e-07      0.143746
     4.23e-07      0.143604
     4.24e-07      0.143463
     4.25e-07      0.143322
     4.26e-07      0.143182
     4.27e-07      0.143042
     4.28e-07      0.142902
     4.29e-07      0.142763
      4.3e-07      0.142624
     4.31e-07      0.142486
     4.32e-07      0.142349
     4.33e-07      0.142211
     4.34e-07      0.142074
     4.35e-07      0.141938
     4.36e-07      0.141802
     4.37e-07      0.141666
     4.38e-07      0.141531
     4.39e-07      0.141396
      4.4e-07      0.141261
     4.41e-07      0.141127
     4.42e-07      0.140994
     4.43e-07       0.14086
     4.44e-07      0.140728
     4.45e-07      0.140595
     4.46e-07      0.140463
     4.47e-07      0.140331
     4.48e-07        0.1402
     4.49e-07      0.140069
      4.5e-07      0.139939
     4.51e-07      0.139808
     4.52e-07      0.139679
     4.53e-07      0.139549
     4.54e-07       0.13942
     4.55e-07      0.139292
     4.56e-07      0.139163
     4.57e-07      0.139036
     4.58e-07      0.138908
     4.59e-07      0.138781
      4.6e-07      0.138654
     4.61e-07      0.138528
     4.62e-07      0.138402
     4.63e-07      0.138276
     4.64e-07      0.138151
     4.65e-07      0.138026
     4.66e-07      0.137901
     4.67e-07      0.137777
     4.68e-07      0.137653
     4.69e-07      0.137529
      4.7e-07      0.137406
     4.71e-07      0.137283
     4.72e-07      0.137161
     4.73e-07      0.137039
     4.74e-07      0.136917
     4.75e-07      0.136795
     4.76e-07      0.136674
     4.77e-07      0.136553
     4.78e-07      0.136433
     4.79e-07      0.136313
      4.8e-07      0.136193
     4.81e-07      0.136073
     4.82e-07      0.135954
     4.83e-07      0.135836
     4.84e-07      0.135717
     4.85e-07      0.135599
     4.86e-07      0.135481
     4.87e-07      0.135363
     4.88e-07      0.135246
     4.89e-07      0.135129
      4.9e-07      0.135013
     4.91e-07      0.134896
     4.92e-07       0.13478
     4.93e-07      0.134665
     4.94e-07      0.134549
     4.95e-07      0.134434
     4.96e-07       0.13432
     4.97e-07      0.134205
     4.98e-07      0.134091
     4.99e-07      0.133977
        5e-07      0.133864
     5.01e-07      0.133751
     5.02e-07      0.133638
     5.03e-07      0.133525
     5.04e-07      0.133413
     5.05e-07      0.133301
     5.06e-07      0.133189
     5.07e-07      0.133078
     5.08e-07      0.132967
     5.09e-07      0.132856
      5.1e-07      0.132745
     5.11e-07      0.132635
     5.12e-07      0.132525
     5.13e-07      0.132415
     5.14e-07      0.132306
     5.15e-07      0.132197
     5.16e-07      0.132088
     5.17e-07      0.131979
     5.18e-07      0.131871
     5.19e-07      0.131763
      5.2e-07      0.131655
     5.21e-07      0.131548
     5.22e-07       0.13144
     5.23e-07      0.131333
     5.24e-07      0.131227
     5.25e-07       0.13112
     5.26e-07      0.131014
     5.27e-07      0.130908
     5.28e-07      0.130803
     5.29e-07      0.130697
      5.3e-07      0.130592
     5.31e-07      0.130487
     5.32e-07      0.130383
     5.33e-07      0.130279
     5.34e-07      0.130175
     5.35e-07      0.130071
     5.36e-07      0.129967
     5.37e-07      0.129864
     5.38e-07      0.129761
     5.39e-07      0.129658
      5.4e-07      0.129556
     5.41e-07      0.129454
     5.42e-07      0.129352
     5.43e-07       0.12925
     5.44e-07      0.129148
     5.45e-07      0.129047
     5.46e-07      0.128946
     5.47e-07      0.128845
     5.48e-07      0.128745
     5.49e-07      0.128644
      5.5e-07      0.128544
     5.51e-07      0.128445
     5.52e-07      0.128345
     5.53e-07      0.128246
     5.54e-07      0.128147
     5.55e-07      0.128048
     5.56e-07      0.127949
     5.57e-07      0.127851
     5.58e-07      0.127753
     5.59e-07      0.127655
      5.6e-07      0.127557
     5.61e-07       0.12746
     5.62e-07      0.127362
     5.63e-07      0.127265
     5.64e-07      0.127169
     5.65e-07      0.127072
     5.66e-07      0.126976
     5.67e-07       0.12688
     5.68e-07      0.126784
     5.69e-07      0.126688
      5.7e-07      0.126593
     5.71e-07      0.126498
     5.72e-07      0.126403
     5.73e-07      0.126308
     5.74e-07      0.126213
     5.75e-07      0.126119
     5.76e-07      0.126025
     5.77e-07      0.125931
     5.78e-07      0.125837
     5.79e-07      0.125744
      5.8e-07      0.125651
     5.81e-07      0.125558
     5.82e-07      0.125465
     5.83e-07      0.125372
     5.84e-07       0.12528
     5.85e-07      0.125188
     5.86e-07      0.125096
     5.87e-07      0.125004
     5.88e-07      0.124912
     5.89e-07      0.124821
      5.9e-07       0.12473
     5.91e-07      0.124639
     5.92e-07      0.124548
     5.93e-07      0.124458
     5.94e-07      0.124367
     5.95e-07      0.124277
     5.96e-07      0.124187
     5.97e-07      0.124097
     5.98e-07      0.124008
     5.99e-07      0.123918
        6e-07      0.123829
     6.01e-07       0.12374
     6.02e-07      0.123652
     6.03e-07      0.123563
     6.04e-07      0.123475
     6.05e-07      0.123387
     6.06e-07      0.123299
     6.07e-07      0.123211
     6.08e-07      0.123123
     6.09e-07      0.123036
      6.1e-07      0.122949
     6.11e-07      0.122861
     6.12e-07      0.122775
     6.13e-07      0.122688
     6.14e-07      0.122602
     6.15e-07      0.122515
     6.16e-07      0.122429
     6.17e-07      0.122343
     6.18e-07      0.122258
     6.19e-07      0.122172
      6.2e-07      0.122087
     6.21e-07      0.122001
     6.22e-07      0.121916
     6.23e-07      0.121832
     6.24e-07      0.121747
     6.25e-07      0.121663
     6.26e-07      0.121578
     6.27e-07      0.121494
     6.28e-07       0.12141
     6.29e-07      0.121326
      6.3e-07      0.121243
     6.31e-07       0.12116
     6.32e-07      0.121076
     6.33e-07      0.120993
     6.34e-07       0.12091
     6.35e-07      0.120828
     6.36e-07      0.120745
     6.37e-07      0.120663
     6.38e-07      0.120581
     6.39e-07      0.120499
      6.4e-07      0.120417
     6.41e-07      0.120335
     6.42e-07      0.120254
     6.43e-07      0.120172
     6.44e-07      0.120091
     6.45e-07       0.12001
     6.46e-07      0.119929
     6.47e-07      0.119849
     6.48e-07      0.119768
     6.49e-07      0.119688
      6.5e-07      0.119607
     6.51e-07      0.119527
     6.52e-07      0.119448
     6.53e-07      0.119368
     6.54e-07      0.119288
     6.55e-07      0.119209
     6.56e-07       0.11913
     6.57e-07      0.119051
     6.58e-07      0.118972
     6.59e-07      0.118893
      6.6e-07      0.118814
     6.61e-07      0.118736
     6.62e-07      0.118658
     6.63e-07       0.11858
     6.64e-07      0.118502
     6.65e-07      0.118424
     6.66e-07      0.118346
     6.67e-07      0.118269
     6.68e-07      0.118191
     6.69e-07      0.118114
      6.7e-07      0.118037
     6.71e-07       0.11796
     6.72e-07      0.117884
     6.73e-07      0.117807
     6.74e-07      0.117731
     6.75e-07      0.117654
     6.76e-07      0.117578
     6.77e-07      0.117502
     6.78e-07      0.117426
     6.79e-07      0.117351
      6.8e-07      0.117275
     6.81e-07        0.1172
     6.82e-07      0.117125
     6.83e-07      0.117049
     6.84e-07      0.116975
     6.85e-07        0.1169
     6.86e-07      0.116825
     6.87e-07      0.116751
     6.88e-07      0.116676
     6.89e-07      0.116602
      6.9e-07      0.116528
     6.91e-07      0.116454
     6.92e-07       0.11638
     6.93e-07      0.116306
     6.94e-07      0.116233
     6.95e-07       0.11616
     6.96e-07      0.116086
     6.97e-07      0.116013
     6.98e-07       0.11594
     6.99e-07      0.115867
        7e-07      0.115795
     7.01e-07      0.115722
     7.02e-07       0.11565
     7.03e-07      0.115577
     7.04e-07      0.115505
     7.05e-07      0.115433
     7.06e-07      0.115361
     7.07e-07       0.11529
     7.08e-07      0.115218
     7.09e-07      0.115147
      7.1e-07      0.115075
     7.11e-07      0.115004
     7.12e-07      0.114933
     7.13e-07      0.114862
     7.14e-07      0.114791
     7.15e-07      0.114721
     7.16e-07       0.11465
     7.17e-07       0.11458
     7.18e-07      0.114509
     7.19e-07      0.114439
      7.2e-07      0.114369
     7.21e-07      0.114299
     7.22e-07      0.114229
     7.23e-07       0.11416
     7.24e-07       0.11409
     7.25e-07      0.114021
     7.26e-07      0.113952
     7.27e-07      0.113882
     7.28e-07      0.113813
     7.29e-07      0.113744
      7.3e-07      0.113676
     7.31e-07      0.113607
     7.32e-07      0.113539
     7.33e-07       0.11347
     7.34e-07      0.113402
     7.35e-07      0.113334
     7.36e-07      0.113266
     7.37e-07      0.113198
     7.38e-07       0.11313
     7.39e-07      0.113062
      7.4e-07      0.112995
     7.41e-07      0.112927
     7.42e-07       0.11286
     7.43e-07      0.112793
     7.44e-07      0.112726
     7.45e-07      0.112659
     7.46e-07      0.112592
     7.47e-07      0.112525
     7.48e-07      0.112459
     7.49e-07      0.112392
      7.5e-07      0.112326
     7.51e-07       0.11226
     7.52e-07      0.112194
     7.53e-07      0.112128
     7.54e-07      0.112062
     7.55e-07      0.111996
     7.56e-07       0.11193
     7.57e-07      0.111865
     7.58e-07      0.111799
     7.59e-07      0.111734
      7.6e-07      0.111669
     7.61e-07      0.111604
     7.62e-07      0.111539
     7.63e-07      0.111474
     7.64e-07      0.111409
     7.65e-07      0.111345
     7.66e-07       0.11128
     7.67e-07      0.111216
     7.68e-07      0.111151
     7.69e-07      0.111087
      7.7e-07      0.111023
     7.71e-07      0.110959
     7.72e-07      0.110895
     7.73e-07      0.110831
     7.74e-07      0.110768
     7.75e-07      0.110704
     7.76e-07      0.110641
     7.77e-07      0.110577
     7.78e-07      0.110514
     7.79e-07      0.110451
      7.8e-07      0.110388
     7.81e-07      0.110325
     7.82e-07      0.110262
     7.83e-07        0.1102
     7.84e-07      0.110137
     7.85e-07      0.110075
     7.86e-07      0.110012
     7.87e-07       0.10995
     7.88e-07      0.109888
     7.89e-07      0.109826
      7.9e-07      0.109764
     7.91e-07      0.109702
     7.92e-07       0.10964
     7.93e-07      0.109579
     7.94e-07      0.109517
     7.95e-07      0.109456
     7.96e-07      0.109394
     7.97e-07      0.109333
     7.98e-07      0.109272
     7.99e-07      0.109211
        8e-07       0.10915
     8.01e-07      0.109089
     8.02e-07      0.109029
     8.03e-07      0.108968
     8.04e-07      0.108907
     8.05e-07      0.108847
     8.06e-07      0.108787
     8.07e-07      0.108726
     8.08e-07      0.108666
     8.09e-07      0.108606
      8.1e-07      0.108546
     8.11e-07      0.108487
     8.12e-07      0.108427
     8.13e-07      0.108367
     8.14e-07      0.108308
     8.15e-07      0.108248
     8.16e-07      0.108189
     8.17e-07       0.10813
     8.18e-07       0.10807
     8.19e-07      0.108011
      8.2e-07      0.107952
     8.21e-07      0.107893
     8.22e-07      0.107835
     8.23e-07      0.107776
     8.24e-07      0.107717
     8.25e-07      0.107659
     8.26e-07      0.107601
     8.27e-07      0.107542
     8.28e-07      0.107484
     8.29e-07      0.107426
      8.3e-07      0.107368
     8.31e-07       0.10731
     8.32e-07      0.107252
     8.33e-07      0.107194
     8.34e-07      0.107137
     8.35e-07      0.107079
     8.36e-07      0.107022
     8.37e-07      0.106964
     8.38e-07      0.106907
     8.39e-07       0.10685
      8.4e-07      0.106793
     8.41e-07      0.106736
     8.42e-07      0.106679
     8.43e-07      0.106622
     8.44e-07      0.106565
     8.45e-07      0.106508
     8.46e-07      0.106452
     8.47e-07      0.106395
     8.48e-07      0.106339
     8.49e-07      0.106282
      8.5e-07      0.106226
     8.51e-07       0.10617
     8.52e-07      0.106114
     8.53e-07      0.106058
     8.54e-07      0.106002
     8.55e-07      0.105946
     8.56e-07      0.105891
     8.57e-07      0.105835
     8.58e-07      0.105779
     8.59e-07      0.105724
      8.6e-07      0.105669
     8.61e-07      0.105613
     8.62e-07      0.105558
     8.63e-07      0.105503
     8.64e-07      0.105448
     8.65e-07      0.105393
     8.66e-07      0.105338
     8.67e-07      0.105283
     8.68e-07      0.105229
     8.69e-07      0.105174
      8.7e-07       0.10512
     8.71e-07      0.105065
     8.72e-07      0.105011
     8.73e-07      0.104956
     8.74e-07      0.104902
     8.75e-07      0.104848
     8.76e-07      0.104794
     8.77e-07       0.10474
     8.78e-07      0.104686
     8.79e-07      0.104632
      8.8e-07      0.104579
     8.81e-07      0.104525
     8.82e-07      0.104472
     8.83e-07      0.104418
     8.84e-07      0.104365
     8.85e-07      0.104311
     8.86e-07      0.104258
     8.87e-07      0.104205
     8.88e-07      0.104152
     8.89e-07      0.104099
      8.9e-07      0.104046
     8.91e-07      0.103993
     8.92e-07       0.10394
     8.93e-07      0.103888
     8.94e-07      0.103835
     8.95e-07      0.103783
     8.96e-07       0.10373
     8.97e-07      0.103678
     8.98e-07      0.103625
     8.99e-07      0.103573
        9e-07      0.103521
     9.01e-07      0.103469
     9.02e-07      0.103417
     9.03e-07      0.103365
     9.04e-07      0.103313
     9.05e-07      0.103261
     9.06e-07       0.10321
     9.07e-07      0.103158
     9.08e-07      0.103107
     9.09e-07      0.103055
      9.1e-07      0.103004
     9.11e-07      0.102952
     9.12e-07      0.102901
     9.13e-07       0.10285
     9.14e-07      0.102799
     9.15e-07      0.102748
     9.16e-07      0.102697
     9.17e-07      0.102646
     9.18e-07      0.102595
     9.19e-07      0.102545
      9.2e-07      0.102494
     9.21e-07      0.102443
     9.22e-07      0.102393
     9.23e-07      0.102342
     9.24e-07      0.102292
     9.25e-07      0.102242
     9.26e-07      0.102192
     9.27e-07      0.102141
     9.28e-07      0.102091
     9.29e-07      0.102041
      9.3e-07      0.101991
     9.31e-07      0.101942
     9.32e-07      0.101892
     9.33e-07      0.101842
     9.34e-07      0.101792
     9.35e-07      0.101743
     9.36e-07      0.101693
     9.37e-07      0.101644
     9.38e-07      0.101594
     9.39e-07      0.101545
      9.4e-07      0.101496
     9.41e-07      0.101447
     9.42e-07      0.101398
     9.43e-07      0.101349
     9.44e-07        0.1013
     9.45e-07      0.101251
     9.46e-07      0.101202
     9.47e-07      0.101153
     9.48e-07      0.101104
     9.49e-07      0.101056
      9.5e-07      0.101007
     9.51e-07      0.100959
     9.52e-07       0.10091
     9.53e-07      0.100862
     9.54e-07      0.100814
     9.55e-07      0.100766
     9.56e-07      0.100717
     9.57e-07      0.100669
     9.58e-07      0.100621
     9.59e-07      0.100573
      9.6e-07      0.100525
     9.61e-07      0.100478
     9.62e-07       0.10043
     9.63e-07      0.100382
     9.64e-07      0.100335
     9.65e-07      0.100287
     9.66e-07       0.10024
     9.67e-07      0.100192
     9.68e-07      0.100145
     9.69e-07      0.100097
      9.7e-07       0.10005
     9.71e-07      0.100003
     9.72e-07     0.0999559
     9.73e-07     0.0999089
     9.74e-07     0.0998619
     9.75e-07      0.099815
     9.76e-07     0.0997681
     9.77e-07     0.0997213
     9.78e-07     0.0996746
     9.79e-07     0.0996279
      9.8e-07     0.0995813
     9.81e-07     0.0995348
     9.82e-07     0.0994883
     9.83e-07     0.0994419
     9.84e-07     0.0993956
     9.85e-07     0.0993493
     9.86e-07     0.0993031
     9.87e-07     0.0992569
     9.88e-07     0.0992108
     9.89e-07     0.0991647
      9.9e-07     0.0991188
     9.91e-07     0.0990728
     9.92e-07      0.099027
     9.93e-07     0.0989812
     9.94e-07     0.0989355
     9.95e-07     0.0988898
     9.96e-07     0.0988442
     9.97e-07     0.0987986
     9.98e-07     0.0987531
     9.99e-07     0.0987077
        1e-06     0.0986623
    1.001e-06      0.098617
    1.002e-06     0.0985717
    1.003e-06     0.0985265
    1.004e-06     0.0984814
    1.005e-06     0.0984363
    1.006e-06     0.0983913
    1.007e-06     0.0983464
    1.008e-06     0.0983015
    1.009e-06     0.0982566
     1.01e-06     0.0982118
    1.011e-06     0.0981671
    1.012e-06     0.0981224
    1.013e-06     0.0980778
    1.014e-06     0.0980333
    1.015e-06     0.0979888
    1.016e-06     0.0979444
    1.017e-06        0.0979
    1.018e-06     0.0978557
    1.019e-06     0.0978114
     1.02e-06     0.0977672
    1.021e-06     0.0977231
    1.022e-06      0.097679
    1.023e-06     0.0976349
    1.024e-06      0.097591
    1.025e-06      0.097547
    1.026e-06     0.0975032
    1.027e-06     0.0974594
    1.028e-06     0.0974156
    1.029e-06     0.0973719
     1.03e-06     0.0973283
    1.031e-06     0.0972847
    1.032e-06     0.0972412
    1.033e-06     0.0971977
    1.034e-06     0.0971543
    1.035e-06     0.0971109
    1.036e-06     0.0970676
    1.037e-06     0.0970244
    1.038e-06     0.0969812
    1.039e-06      0.096938
     1.04e-06      0.096895
    1.041e-06     0.0968519
    1.042e-06     0.0968089
    1.043e-06      0.096766
    1.044e-06     0.0967232
    1.045e-06     0.0966803
    1.046e-06     0.0966376
    1.047e-06     0.0965949
    1.048e-06     0.0965522
    1.049e-06     0.0965096
     1.05e-06     0.0964671
    1.051e-06     0.0964246
    1.052e-06     0.0963821
    1.053e-06     0.0963398
    1.054e-06     0.0962974
    1.055e-06     0.0962551
    1.056e-06     0.0962129
    1.057e-06     0.0961707
    1.058e-06     0.0961286
    1.059e-06     0.0960866
     1.06e-06     0.0960445
    1.061e-06     0.0960026
    1.062e-06     0.0959607
    1.063e-06     0.0959188
    1.064e-06      0.095877
    1.065e-06     0.0958352
    1.066e-06     0.0957935
    1.067e-06     0.0957519
    1.068e-06     0.0957103