# Probe 0 (5e-06 5e-06 5e-06)
#       Probe             0
#        Time
        1e-09      0.666663
        2e-09      0.666657
        3e-09       0.66665
        4e-09      0.666641
        5e-09      0.666631
        6e-09      0.666619
        7e-09      0.666606
        8e-09      0.666591
        9e-09      0.666574
        1e-08      0.666555
      1.1e-08      0.666535
      1.2e-08      0.666514
      1.3e-08      0.666491
      1.4e-08      0.666466
      1.5e-08      0.666439
      1.6e-08      0.666411
      1.7e-08      0.666381
      1.8e-08       0.66635
      1.9e-08      0.666317
        2e-08      0.666282
      2.1e-08      0.666246
      2.2e-08      0.666208
      2.3e-08      0.666169
      2.4e-08      0.666127
      2.5e-08      0.666085
      2.6e-08       0.66604
      2.7e-08      0.665995
      2.8e-08      0.665947
      2.9e-08      0.665898
        3e-08      0.665847
      3.1e-08      0.665795
      3.2e-08      0.665742
      3.3e-08      0.665686
      3.4e-08      0.665629
      3.5e-08      0.665571
      3.6e-08      0.665511
      3.7e-08       0.66545
      3.8e-08      0.665387
      3.9e-08      0.665323
        4e-08      0.665257
      4.1e-08       0.66519
      4.2e-08      0.665121
      4.3e-08      0.665051
      4.4e-08      0.664979
      4.5e-08      0.664906
      4.6e-08      0.664831
      4.7e-08      0.664756
      4.8e-08      0.664678
      4.9e-08        0.6646
        5e-08       0.66452
      5.1e-08      0.664438
      5.2e-08      0.664355
      5.3e-08      0.664271
      5.4e-08      0.664186
      5.5e-08      0.664099
      5.6e-08      0.664011
      5.7e-08      0.663922
      5.8e-08      0.663831
      5.9e-08      0.663739
        6e-08      0.663646
      6.1e-08      0.663551
      6.2e-08      0.663456
      6.3e-08      0.663359
      6.4e-08      0.663261
      6.5e-08      0.663161
      6.6e-08      0.663061
      6.7e-08      0.662959
      6.8e-08      0.662856
      6.9e-08      0.662752
        7e-08      0.662647
      7.1e-08      0.662541
      7.2e-08      0.662433
      7.3e-08      0.662324
      7.4e-08      0.662215
      7.5e-08      0.662104
      7.6e-08      0.661992
      7.7e-08      0.661879
      7.8e-08      0.661765
      7.9e-08       0.66165
        8e-08      0.661534
      8.1e-08      0.661416
      8.2e-08      0.661298
      8.3e-08      0.661179
      8.4e-08      0.661059
      8.5e-08      0.660937
      8.6e-08      0.660815
      8.7e-08      0.660692
      8.8e-08      0.660568
      8.9e-08      0.660442
        9e-08      0.660316
      9.1e-08      0.660189
      9.2e-08      0.660061
      9.3e-08      0.659932
      9.4e-08      0.659802
      9.5e-08      0.659672
      9.6e-08       0.65954
      9.7e-08      0.659408
      9.8e-08      0.659274
      9.9e-08       0.65914
        1e-07      0.659005
     1.01e-07      0.658869
     1.02e-07      0.658732
     1.03e-07      0.658595
     1.04e-07      0.658456
     1.05e-07      0.658317
     1.06e-07      0.658177
     1.07e-07      0.658036
     1.08e-07      0.657894
     1.09e-07      0.657752
      1.1e-07      0.657609
     1.11e-07      0.657465
     1.12e-07       0.65732
     1.13e-07      0.657175
     1.14e-07      0.657029
     1.15e-07      0.656882
     1.16e-07      0.656734
     1.17e-07      0.656586
     1.18e-07      0.656437
     1.19e-07      0.656288
      1.2e-07      0.656137
     1.21e-07      0.655986
     1.22e-07      0.655834
     1.23e-07      0.655682
     1.24e-07      0.655529
     1.25e-07      0.655375
     1.26e-07      0.655221
     1.27e-07      0.655066
     1.28e-07      0.654911
     1.29e-07      0.654755
      1.3e-07      0.654598
     1.31e-07       0.65444
     1.32e-07      0.654282
     1.33e-07      0.654124
     1.34e-07      0.653965
     1.35e-07      0.653805
     1.36e-07      0.653645
     1.37e-07      0.653484
     1.38e-07      0.653323
     1.39e-07      0.653161
      1.4e-07      0.652998
     1.41e-07      0.652835
     1.42e-07      0.652672
     1.43e-07      0.652508
     1.44e-07      0.652343
     1.45e-07      0.652178
     1.46e-07      0.652012
     1.47e-07      0.651846
     1.48e-07       0.65168
     1.49e-07      0.651513
      1.5e-07      0.651345
     1.51e-07      0.651177
     1.52e-07      0.651009
     1.53e-07       0.65084
     1.54e-07      0.650671
     1.55e-07      0.650501
     1.56e-07      0.650331
     1.57e-07       0.65016
     1.58e-07      0.649989
     1.59e-07      0.649817
      1.6e-07      0.649646
     1.61e-07      0.649473
     1.62e-07        0.6493
     1.63e-07      0.649127
     1.64e-07      0.648954
     1.65e-07       0.64878
     1.66e-07      0.648606
     1.67e-07      0.648431
     1.68e-07      0.648256
     1.69e-07      0.648081
      1.7e-07      0.647905
     1.71e-07      0.647729
     1.72e-07      0.647552
     1.73e-07      0.647375
     1.74e-07      0.647198
     1.75e-07      0.647021
     1.76e-07      0.646843
     1.77e-07      0.646665
     1.78e-07      0.646486
     1.79e-07      0.646308
      1.8e-07      0.646128
     1.81e-07      0.645949
     1.82e-07      0.645769
     1.83e-07      0.645589
     1.84e-07      0.645409
     1.85e-07      0.645228
     1.86e-07      0.645048
     1.87e-07      0.644866
     1.88e-07      0.644685
     1.89e-07      0.644503
      1.9e-07      0.644321
     1.91e-07      0.644139
     1.92e-07      0.643957
     1.93e-07      0.643774
     1.94e-07      0.643591
     1.95e-07      0.643408
     1.96e-07      0.643224
     1.97e-07      0.643041
     1.98e-07      0.642857
     1.99e-07      0.642673
        2e-07      0.642488
     2.01e-07      0.642304
     2.02e-07      0.642119
     2.03e-07      0.641934
     2.04e-07      0.641749
     2.05e-07      0.641563
     2.06e-07      0.641378
     2.07e-07      0.641192
     2.08e-07      0.641006
     2.09e-07       0.64082
      2.1e-07      0.640633
     2.11e-07      0.640447
     2.12e-07       0.64026
     2.13e-07      0.640073
     2.14e-07      0.639886
     2.15e-07      0.639699
     2.16e-07      0.639511
     2.17e-07      0.639324
     2.18e-07      0.639136
     2.19e-07      0.638948
      2.2e-07       0.63876
     2.21e-07      0.638572
     2.22e-07      0.638383
     2.23e-07      0.638195
     2.24e-07      0.638006
     2.25e-07      0.637817
     2.26e-07      0.637628
     2.27e-07      0.637439
     2.28e-07       0.63725
     2.29e-07      0.637061
      2.3e-07      0.636872
     2.31e-07      0.636682
     2.32e-07      0.636493
     2.33e-07      0.636303
     2.34e-07      0.636113
     2.35e-07      0.635923
     2.36e-07      0.635733
     2.37e-07      0.635543
     2.38e-07      0.635353
     2.39e-07      0.635162
      2.4e-07      0.634972
     2.41e-07      0.634781
     2.42e-07      0.634591
     2.43e-07        0.6344
     2.44e-07      0.634209
     2.45e-07      0.634019
     2.46e-07      0.633828
     2.47e-07      0.633637
     2.48e-07      0.633446
     2.49e-07      0.633255
      2.5e-07      0.633064
     2.51e-07      0.632872
     2.52e-07      0.632681
     2.53e-07       0.63249
     2.54e-07      0.632298
     2.55e-07      0.632107
     2.56e-07      0.631915
     2.57e-07      0.631724
     2.58e-07      0.631532
     2.59e-07      0.631341
      2.6e-07      0.631149
     2.61e-07      0.630957
     2.62e-07      0.630766
     2.63e-07      0.630574
     2.64e-07      0.630382
     2.65e-07       0.63019
     2.66e-07      0.629998
     2.67e-07      0.629806
     2.68e-07      0.629615
     2.69e-07      0.629423
      2.7e-07      0.629231
     2.71e-07      0.629039
     2.72e-07      0.628847
     2.73e-07      0.628655
     2.74e-07      0.628463
     2.75e-07      0.628271
     2.76e-07      0.628079
     2.77e-07      0.627887
     2.78e-07      0.627695
     2.79e-07      0.627503
      2.8e-07      0.627311
     2.81e-07      0.627119
     2.82e-07      0.626927
     2.83e-07      0.626735
     2.84e-07      0.626543
     2.85e-07      0.626351
     2.86e-07      0.626159
     2.87e-07      0.625967
     2.88e-07      0.625775
     2.89e-07      0.625583
      2.9e-07      0.625392
     2.91e-07        0.6252
     2.92e-07      0.625008
     2.93e-07      0.624816
     2.94e-07      0.624624
     2.95e-07      0.624433
     2.96e-07      0.624241
     2.97e-07      0.624049
     2.98e-07      0.623858
     2.99e-07      0.623666
        3e-07      0.623474
     3.01e-07      0.623283
     3.02e-07      0.623091
     3.03e-07        0.6229
     3.04e-07      0.622709
     3.05e-07      0.622517
     3.06e-07      0.622326
     3.07e-07      0.622135
     3.08e-07      0.621943
     3.09e-07      0.621752
      3.1e-07      0.621561
     3.11e-07       0.62137
     3.12e-07      0.621179
     3.13e-07      0.620988
     3.14e-07      0.620797
     3.15e-07      0.620606
     3.16e-07      0.620416
     3.17e-07      0.620225
     3.18e-07      0.620034
     3.19e-07      0.619844
      3.2e-07      0.619653
     3.21e-07      0.619463
     3.22e-07      0.619272
     3.23e-07      0.619082
     3.24e-07      0.618892
     3.25e-07      0.618702
     3.26e-07      0.618512
     3.27e-07      0.618322
     3.28e-07      0.618132
     3.29e-07      0.617942
      3.3e-07      0.617752
     3.31e-07      0.617562
     3.32e-07      0.617373
     3.33e-07      0.617183
     3.34e-07      0.616994
     3.35e-07      0.616804
     3.36e-07      0.616615
     3.37e-07      0.616426
     3.38e-07      0.616236
     3.39e-07      0.616047
      3.4e-07      0.615858
     3.41e-07       0.61567
     3.42e-07      0.615481
     3.43e-07      0.615292
     3.44e-07      0.615104
     3.45e-07      0.614915
     3.46e-07      0.614727
     3.47e-07      0.614538
     3.48e-07       0.61435
     3.49e-07      0.614162
      3.5e-07      0.613974
     3.51e-07      0.613786
     3.52e-07      0.613598
     3.53e-07       0.61341
     3.54e-07      0.613223
     3.55e-07      0.613035
     3.56e-07      0.612848
     3.57e-07      0.612661
     3.58e-07      0.612473
     3.59e-07      0.612286
      3.6e-07      0.612099
     3.61e-07      0.611912
     3.62e-07      0.611726
     3.63e-07      0.611539
     3.64e-07      0.611352
     3.65e-07      0.611166
     3.66e-07       0.61098
     3.67e-07      0.610793
     3.68e-07      0.610607
     3.69e-07      0.610421
      3.7e-07      0.610235
     3.71e-07       0.61005
     3.72e-07      0.609864
     3.73e-07      0.609678
     3.74e-07      0.609493
     3.75e-07      0.609308
     3.76e-07      0.609122
     3.77e-07      0.608937
     3.78e-07      0.608752
     3.79e-07      0.608568
      3.8e-07      0.608383
     3.81e-07      0.608198
     3.82e-07      0.608014
     3.83e-07       0.60783
     3.84e-07      0.607645
     3.85e-07      0.607461
     3.86e-07      0.607277
     3.87e-07      0.607094
     3.88e-07       0.60691
     3.89e-07      0.606726
      3.9e-07      0.606543
     3.91e-07      0.606359
     3.92e-07      0.606176
     3.93e-07      0.605993
     3.94e-07       0.60581
     3.95e-07      0.605627
     3.96e-07      0.605445
     3.97e-07      0.605262
     3.98e-07       0.60508
     3.99e-07      0.604898
        4e-07      0.604715
     4.01e-07      0.604533
     4.02e-07      0.604352
     4.03e-07       0.60417
     4.04e-07      0.603988
     4.05e-07      0.603807
     4.06e-07      0.603625
     4.07e-07      0.603444
     4.08e-07      0.603263
     4.09e-07      0.603082
      4.1e-07      0.602901
     4.11e-07      0.602721
     4.12e-07       0.60254
     4.13e-07       0.60236
     4.14e-07       0.60218
     4.15e-07         0.602
     4.16e-07       0.60182
     4.17e-07       0.60164
     4.18e-07       0.60146
     4.19e-07      0.601281
      4.2e-07      0.601101
     4.21e-07      0.600922
     4.22e-07      0.600743
     4.23e-07      0.600564
     4.24e-07      0.600385
     4.25e-07      0.600207
     4.26e-07      0.600028
     4.27e-07       0.59985
     4.28e-07      0.599671
     4.29e-07      0.599493
      4.3e-07      0.599315
     4.31e-07      0.599138
     4.32e-07       0.59896
     4.33e-07      0.598782
     4.34e-07      0.598605
     4.35e-07      0.598428
     4.36e-07      0.598251
     4.37e-07      0.598074
     4.38e-07      0.597897
     4.39e-07      0.597721
      4.4e-07      0.597544
     4.41e-07      0.597368
     4.42e-07      0.597192
     4.43e-07      0.597016
     4.44e-07       0.59684
     4.45e-07      0.596664
     4.46e-07      0.596488
     4.47e-07      0.596313
     4.48e-07      0.596138
     4.49e-07      0.595963
      4.5e-07      0.595788
     4.51e-07      0.595613
     4.52e-07      0.595438
     4.53e-07      0.595264
     4.54e-07      0.595089
     4.55e-07      0.594915
     4.56e-07      0.594741
     4.57e-07      0.594567
     4.58e-07      0.594393
     4.59e-07       0.59422
      4.6e-07      0.594046
     4.61e-07      0.593873
     4.62e-07        0.5937
     4.63e-07      0.593527
     4.64e-07      0.593354
     4.65e-07      0.593182
     4.66e-07      0.593009
     4.67e-07      0.592837
     4.68e-07      0.592665
     4.69e-07      0.592493
      4.7e-07      0.592321
     4.71e-07      0.592149
     4.72e-07      0.591977
     4.73e-07      0.591806
     4.74e-07      0.591635
     4.75e-07      0.591464
     4.76e-07      0.591293
     4.77e-07      0.591122
     4.78e-07      0.590951
     4.79e-07      0.590781
      4.8e-07       0.59061
     4.81e-07       0.59044
     4.82e-07       0.59027
     4.83e-07        0.5901
     4.84e-07      0.589931
     4.85e-07      0.589761
     4.86e-07      0.589592
     4.87e-07      0.589423
     4.88e-07      0.589254
     4.89e-07      0.589085
      4.9e-07      0.588916
     4.91e-07      0.588747
     4.92e-07      0.588579
     4.93e-07      0.588411
     4.94e-07      0.588243
     4.95e-07      0.588075
     4.96e-07      0.587907
     4.97e-07      0.587739
     4.98e-07      0.587572
     4.99e-07      0.587404
        5e-07      0.587237
     5.01e-07       0.58707
     5.02e-07      0.586903
     5.03e-07      0.586737
     5.04e-07       0.58657
     5.05e-07      0.586404
     5.06e-07      0.586238
     5.07e-07      0.586072
     5.08e-07      0.585906
     5.09e-07       0.58574
      5.1e-07      0.585574
     5.11e-07      0.585409
     5.12e-07      0.585244
     5.13e-07      0.585079
     5.14e-07      0.584914
     5.15e-07      0.584749
     5.16e-07      0.584585
     5.17e-07       0.58442
     5.18e-07      0.584256
     5.19e-07      0.584092
      5.2e-07      0.583928
     5.21e-07      0.583764
     5.22e-07        0.5836
     5.23e-07      0.583437
     5.24e-07      0.583274
     5.25e-07       0.58311
     5.26e-07      0.582947
     5.27e-07      0.582785
     5.28e-07      0.582622
     5.29e-07      0.582459
      5.3e-07      0.582297
     5.31e-07      0.582135
     5.32e-07      0.581973
     5.33e-07      0.581811
     5.34e-07      0.581649
     5.35e-07      0.581488
     5.36e-07      0.581326
     5.37e-07      0.581165
     5.38e-07      0.581004
     5.39e-07      0.580843
      5.4e-07      0.580682
     5.41e-07      0.580522
     5.42e-07      0.580361
     5.43e-07      0.580201
     5.44e-07      0.580041
     5.45e-07      0.579881
     5.46e-07      0.579721
     5.47e-07      0.579562
     5.48e-07      0.579402
     5.49e-07      0.579243
      5.5e-07      0.579084
     5.51e-07      0.578925
     5.52e-07      0.578766
     5.53e-07      0.578607
     5.54e-07      0.578449
     5.55e-07       0.57829
     5.56e-07      0.578132
     5.57e-07      0.577974
     5.58e-07      0.577816
     5.59e-07      0.577659
      5.6e-07      0.577501
     5.61e-07      0.577344
     5.62e-07      0.577186
     5.63e-07      0.577029
     5.64e-07      0.576872
     5.65e-07      0.576716
     5.66e-07      0.576559
     5.67e-07      0.576403
     5.68e-07      0.576246
     5.69e-07       0.57609
      5.7e-07      0.575934
     5.71e-07      0.575779
     5.72e-07      0.575623
     5.73e-07      0.575467
     5.74e-07      0.575312
     5.75e-07      0.575157
     5.76e-07      0.575002
     5.77e-07      0.574847
     5.78e-07      0.574692
     5.79e-07      0.574538
      5.8e-07      0.574384
     5.81e-07      0.574229
     5.82e-07      0.574075
     5.83e-07      0.573921
     5.84e-07      0.573768
     5.85e-07      0.573614
     5.86e-07      0.573461
     5.87e-07      0.573307
     5.88e-07      0.573154
     5.89e-07      0.573001
      5.9e-07      0.572849
     5.91e-07      0.572696
     5.92e-07      0.572544
     5.93e-07      0.572391
     5.94e-07      0.572239
     5.95e-07      0.572087
     5.96e-07      0.571935
     5.97e-07      0.571784
     5.98e-07      0.571632
     5.99e-07      0.571481
        6e-07      0.571329
     6.01e-07      0.571178
     6.02e-07      0.571027
     6.03e-07      0.570877
     6.04e-07      0.570726
     6.05e-07      0.570576
     6.06e-07      0.570425
     6.07e-07      0.570275
     6.08e-07      0.570125
     6.09e-07      0.569976
      6.1e-07      0.569826
     6.11e-07      0.569676
     6.12e-07      0.569527
     6.13e-07      0.569378
     6.14e-07      0.569229
     6.15e-07       0.56908
     6.16e-07      0.568931
     6.17e-07      0.568783
     6.18e-07      0.568634
     6.19e-07      0.568486
      6.2e-07      0.568338
     6.21e-07       0.56819
     6.22e-07      0.568042
     6.23e-07      0.567895
     6.24e-07      0.567747
     6.25e-07        0.5676
     6.26e-07      0.567453
     6.27e-07      0.567306
     6.28e-07      0.567159
     6.29e-07      0.567012
      6.3e-07      0.566865
     6.31e-07      0.566719
     6.32e-07      0.566573
     6.33e-07      0.566427
     6.34e-07      0.566281
     6.35e-07      0.566135
     6.36e-07      0.565989
     6.37e-07      0.565844
     6.38e-07      0.565698
     6.39e-07      0.565553
      6.4e-07      0.565408
     6.41e-07      0.565263
     6.42e-07      0.565119
     6.43e-07      0.564974
     6.44e-07       0.56483
     6.45e-07      0.564685
     6.46e-07      0.564541
     6.47e-07      0.564397
     6.48e-07      0.564253
     6.49e-07       0.56411
      6.5e-07      0.563966
     6.51e-07      0.563823
     6.52e-07       0.56368
     6.53e-07      0.563537
     6.54e-07      0.563394
     6.55e-07      0.563251
     6.56e-07      0.563108
     6.57e-07      0.562966
     6.58e-07      0.562824
     6.59e-07      0.562681
      6.6e-07      0.562539
     6.61e-07      0.562398
     6.62e-07      0.562256
     6.63e-07      0.562114
     6.64e-07      0.561973
     6.65e-07      0.561832
     6.66e-07       0.56169
     6.67e-07      0.561549
     6.68e-07      0.561409
     6.69e-07      0.561268
      6.7e-07      0.561127
     6.71e-07      0.560987
     6.72e-07      0.560847
     6.73e-07      0.560707
     6.74e-07      0.560567
     6.75e-07      0.560427
     6.76e-07      0.560287
     6.77e-07      0.560148
     6.78e-07      0.560009
     6.79e-07      0.559869
      6.8e-07       0.55973
     6.81e-07      0.559591
     6.82e-07      0.559453
     6.83e-07      0.559314
     6.84e-07      0.559176
     6.85e-07      0.559037
     6.86e-07      0.558899
     6.87e-07      0.558761
     6.88e-07      0.558623
     6.89e-07      0.558485
      6.9e-07      0.558348
     6.91e-07       0.55821
     6.92e-07      0.558073
     6.93e-07      0.557936
     6.94e-07      0.557799
     6.95e-07      0.557662
     6.96e-07      0.557525
     6.97e-07      0.557389
     6.98e-07      0.557252
     6.99e-07      0.557116
        7e-07       0.55698
     7.01e-07      0.556844
     7.02e-07      0.556708
     7.03e-07      0.556572
     7.04e-07      0.556437
     7.05e-07      0.556301
     7.06e-07      0.556166
     7.07e-07      0.556031
     7.08e-07      0.555896
     7.09e-07      0.555761
      7.1e-07      0.555626
     7.11e-07      0.555491
     7.12e-07      0.555357
     7.13e-07      0.555223
     7.14e-07      0.555089
     7.15e-07      0.554955
     7.16e-07      0.554821
     7.17e-07      0.554687
     7.18e-07      0.554553
     7.19e-07       0.55442
      7.2e-07      0.554287
     7.21e-07      0.554153
     7.22e-07       0.55402
     7.23e-07      0.553888
     7.24e-07      0.553755
     7.25e-07      0.553622
     7.26e-07       0.55349
     7.27e-07      0.553357
     7.28e-07      0.553225
     7.29e-07      0.553093
      7.3e-07      0.552961
     7.31e-07      0.552829
     7.32e-07      0.552698
     7.33e-07      0.552566
     7.34e-07      0.552435
     7.35e-07      0.552304
     7.36e-07      0.552173
     7.37e-07      0.552042
     7.38e-07      0.551911
     7.39e-07       0.55178
      7.4e-07       0.55165
     7.41e-07      0.551519
     7.42e-07      0.551389
     7.43e-07      0.551259
     7.44e-07      0.551129
     7.45e-07      0.550999
     7.46e-07      0.550869
     7.47e-07       0.55074
     7.48e-07       0.55061
     7.49e-07      0.550481
      7.5e-07      0.550352
     7.51e-07      0.550223
     7.52e-07      0.550094
     7.53e-07      0.549965
     7.54e-07      0.549836
     7.55e-07      0.549708
     7.56e-07       0.54958
     7.57e-07      0.549451
     7.58e-07      0.549323
     7.59e-07      0.549195
      7.6e-07      0.549067
     7.61e-07       0.54894
     7.62e-07      0.548812
     7.63e-07      0.548685
     7.64e-07      0.548558
     7.65e-07       0.54843
     7.66e-07      0.548303
     7.67e-07      0.548176
     7.68e-07       0.54805
     7.69e-07      0.547923
      7.7e-07      0.547797
     7.71e-07       0.54767
     7.72e-07      0.547544
     7.73e-07      0.547418
     7.74e-07      0.547292
     7.75e-07      0.547166
     7.76e-07       0.54704
     7.77e-07      0.546915
     7.78e-07      0.546789
     7.79e-07      0.546664
      7.8e-07      0.546539
     7.81e-07      0.546414
     7.82e-07      0.546289
     7.83e-07      0.546164
     7.84e-07       0.54604
     7.85e-07      0.545915
     7.86e-07      0.545791
     7.87e-07      0.545666
     7.88e-07      0.545542
     7.89e-07      0.545418
      7.9e-07      0.545294
     7.91e-07      0.545171
     7.92e-07      0.545047
     7.93e-07      0.544923
     7.94e-07        0.5448
     7.95e-07      0.544677
     7.96e-07      0.544554
     7.97e-07      0.544431
     7.98e-07      0.544308
     7.99e-07      0.544185
        8e-07      0.544063
     8.01e-07       0.54394
     8.02e-07      0.543818
     8.03e-07      0.543696
     8.04e-07      0.543574
     8.05e-07      0.543452
     8.06e-07       0.54333
     8.07e-07      0.543208
     8.08e-07      0.543086
     8.09e-07      0.542965
      8.1e-07      0.542844
     8.11e-07      0.542722
     8.12e-07      0.542601
     8.13e-07       0.54248
     8.14e-07       0.54236
     8.15e-07      0.542239
     8.16e-07      0.542118
     8.17e-07      0.541998
     8.18e-07      0.541878
     8.19e-07      0.541757
      8.2e-07      0.541637
     8.21e-07      0.541517
     8.22e-07      0.541398
     8.23e-07      0.541278
     8.24e-07      0.541158
     8.25e-07      0.541039
     8.26e-07      0.540919
     8.27e-07        0.5408
     8.28e-07      0.540681
     8.29e-07      0.540562
      8.3e-07      0.540443
     8.31e-07      0.540325
     8.32e-07      0.540206
     8.33e-07      0.540088
     8.34e-07      0.539969
     8.35e-07      0.539851
     8.36e-07      0.539733
     8.37e-07      0.539615
     8.38e-07      0.539497
     8.39e-07      0.539379
      8.4e-07      0.539262
     8.41e-07      0.539144
     8.42e-07      0.539027
     8.43e-07       0.53891
     8.44e-07      0.538792
     8.45e-07      0.538675
     8.46e-07      0.538558
     8.47e-07      0.538442
     8.48e-07      0.538325
     8.49e-07      0.538208
      8.5e-07      0.538092
     8.51e-07      0.537976
     8.52e-07       0.53786
     8.53e-07      0.537744
     8.54e-07      0.537628
     8.55e-07      0.537512
     8.56e-07      0.537396
     8.57e-07       0.53728
     8.58e-07      0.537165
     8.59e-07       0.53705
      8.6e-07      0.536934
     8.61e-07      0.536819
     8.62e-07      0.536704
     8.63e-07      0.536589
     8.64e-07      0.536475
     8.65e-07       0.53636
     8.66e-07      0.536245
     8.67e-07      0.536131
     8.68e-07      0.536017
     8.69e-07      0.535903
      8.7e-07      0.535789
     8.71e-07      0.535675
     8.72e-07      0.535561
     8.73e-07      0.535447
     8.74e-07      0.535333
     8.75e-07       0.53522
     8.76e-07      0.535107
     8.77e-07      0.534993
     8.78e-07       0.53488
     8.79e-07      0.534767
      8.8e-07      0.534654
     8.81e-07      0.534541
     8.82e-07      0.534429
     8.83e-07      0.534316
     8.84e-07      0.534204
     8.85e-07      0.534091
     8.86e-07      0.533979
     8.87e-07      0.533867
     8.88e-07      0.533755
     8.89e-07      0.533643
      8.9e-07      0.533532
     8.91e-07       0.53342
     8.92e-07      0.533308
     8.93e-07      0.533197
     8.94e-07      0.533086
     8.95e-07      0.532974
     8.96e-07      0.532863
     8.97e-07      0.532752
     8.98e-07      0.532641
     8.99e-07      0.532531
        9e-07       0.53242
     9.01e-07       0.53231
     9.02e-07      0.532199
     9.03e-07      0.532089
     9.04e-07      0.531979
     9.05e-07      0.531869
     9.06e-07      0.531759
     9.07e-07      0.531649
     9.08e-07      0.531539
     9.09e-07      0.531429
      9.1e-07       0.53132
     9.11e-07       0.53121
     9.12e-07      0.531101
     9.13e-07      0.530992
     9.14e-07      0.530883
     9.15e-07      0.530774
     9.16e-07      0.530665
     9.17e-07      0.530556
     9.18e-07      0.530447
     9.19e-07      0.530339
      9.2e-07      0.530231
     9.21e-07      0.530122
     9.22e-07      0.530014
     9.23e-07      0.529906
     9.24e-07      0.529798
     9.25e-07       0.52969
     9.26e-07      0.529582
     9.27e-07      0.529474
     9.28e-07      0.529367
     9.29e-07      0.529259
      9.3e-07      0.529152
     9.31e-07      0.529045
     9.32e-07      0.528938
     9.33e-07      0.528831
     9.34e-07      0.528724
     9.35e-07      0.528617
     9.36e-07       0.52851
     9.37e-07      0.528404
     9.38e-07      0.528297
     9.39e-07      0.528191
      9.4e-07      0.528084
     9.41e-07      0.527978
     9.42e-07      0.527872
     9.43e-07      0.527766
     9.44e-07       0.52766
     9.45e-07      0.527555
     9.46e-07      0.527449
     9.47e-07      0.527343
     9.48e-07      0.527238
     9.49e-07      0.527133
      9.5e-07      0.527027
     9.51e-07      0.526922
     9.52e-07      0.526817
     9.53e-07      0.526712
     9.54e-07      0.526607
     9.55e-07      0.526503
     9.56e-07      0.526398
     9.57e-07      0.526294
     9.58e-07      0.526189
     9.59e-07      0.526085
      9.6e-07      0.525981
     9.61e-07      0.525876
     9.62e-07      0.525772
     9.63e-07      0.525669
     9.64e-07      0.525565
     9.65e-07      0.525461
     9.66e-07      0.525358
     9.67e-07      0.525254
     9.68e-07      0.525151
     9.69e-07      0.525047
      9.7e-07      0.524944
     9.71e-07      0.524841
     9.72e-07      0.524738
     9.73e-07      0.524635
     9.74e-07      0.524532
     9.75e-07       0.52443
     9.76e-07      0.524327
     9.77e-07      0.524225
     9.78e-07      0.524122
     9.79e-07       0.52402
      9.8e-07      0.523918
     9.81e-07      0.523816
     9.82e-07      0.523714
     9.83e-07      0.523612
     9.84e-07       0.52351
     9.85e-07      0.523409
     9.86e-07      0.523307
     9.87e-07      0.523206
     9.88e-07      0.523104
     9.89e-07      0.523003
      9.9e-07      0.522902
     9.91e-07      0.522801
     9.92e-07        0.5227
     9.93e-07      0.522599
     9.94e-07      0.522498
     9.95e-07      0.522397
     9.96e-07      0.522297
     9.97e-07      0.522196
     9.98e-07      0.522096
     9.99e-07      0.521995
        1e-06      0.521895
    1.001e-06      0.521795
    1.002e-06      0.521695
    1.003e-06      0.521595
    1.004e-06      0.521495
    1.005e-06      0.521396
    1.006e-06      0.521296
    1.007e-06      0.521197
    1.008e-06      0.521097
    1.009e-06      0.520998
     1.01e-06      0.520899
    1.011e-06      0.520799
    1.012e-06        0.5207
    1.013e-06      0.520602
    1.014e-06      0.520503
    1.015e-06      0.520404
    1.016e-06      0.520305
    1.017e-06      0.520207
    1.018e-06      0.520108
    1.019e-06       0.52001
     1.02e-06      0.519912
    1.021e-06      0.519813
    1.022e-06      0.519715
    1.023e-06      0.519617
    1.024e-06      0.519519
    1.025e-06      0.519422
    1.026e-06      0.519324
    1.027e-06      0.519226
    1.028e-06      0.519129
    1.029e-06      0.519031
     1.03e-06      0.518934
    1.031e-06      0.518837
    1.032e-06       0.51874
    1.033e-06      0.518643
    1.034e-06      0.518546
    1.035e-06      0.518449
    1.036e-06      0.518352
    1.037e-06      0.518255
    1.038e-06      0.518159
    1.039e-06      0.518062
     1.04e-06      0.517966
    1.041e-06      0.517869
    1.042e-06      0.517773
    1.043e-06      0.517677
    1.044e-06      0.517581
    1.045e-06      0.517485
    1.046e-06      0.517389
    1.047e-06      0.517293
    1.048e-06      0.517198
    1.049e-06      0.517102
     1.05e-06      0.517007
    1.051e-06      0.516911
    1.052e-06      0.516816
    1.053e-06      0.516721
    1.054e-06      0.516626
    1.055e-06      0.516531
    1.056e-06      0.516436
    1.057e-06      0.516341
    1.058e-06      0.516246
    1.059e-06      0.516151
     1.06e-06      0.516057
    1.061e-06      0.515962
    1.062e-06      0.515868
    1.063e-06      0.515773
    1.064e-06      0.515679
    1.065e-06      0.515585
    1.066e-06      0.515491
    1.067e-06      0.515397
    1.068e-06      0.515303