# Probe 0 (5e-06 5e-06 5e-06)
#       Probe             0
#        Time
        1e-09   4.99996e+22
        2e-09   4.99991e+22
        3e-09   4.99985e+22
        4e-09   4.99978e+22
        5e-09   4.99968e+22
        6e-09   4.99957e+22
        7e-09   4.99945e+22
        8e-09   4.99931e+22
        9e-09   4.99915e+22
        1e-08   4.99898e+22
      1.1e-08   4.99879e+22
      1.2e-08   4.99859e+22
      1.3e-08   4.99836e+22
      1.4e-08   4.99813e+22
      1.5e-08   4.99787e+22
      1.6e-08    4.9976e+22
      1.7e-08   4.99732e+22
      1.8e-08   4.99701e+22
      1.9e-08    4.9967e+22
        2e-08   4.99636e+22
      2.1e-08   4.99601e+22
      2.2e-08   4.99565e+22
      2.3e-08   4.99527e+22
      2.4e-08   4.99487e+22
      2.5e-08   4.99446e+22
      2.6e-08   4.99403e+22
      2.7e-08   4.99359e+22
      2.8e-08   4.99313e+22
      2.9e-08   4.99265e+22
        3e-08   4.99217e+22
      3.1e-08   4.99166e+22
      3.2e-08   4.99115e+22
      3.3e-08   4.99061e+22
      3.4e-08   4.99007e+22
      3.5e-08   4.98951e+22
      3.6e-08   4.98893e+22
      3.7e-08   4.98834e+22
      3.8e-08   4.98774e+22
      3.9e-08   4.98712e+22
        4e-08   4.98649e+22
      4.1e-08   4.98584e+22
      4.2e-08   4.98519e+22
      4.3e-08   4.98452e+22
      4.4e-08   4.98383e+22
      4.5e-08   4.98313e+22
      4.6e-08   4.98242e+22
      4.7e-08    4.9817e+22
      4.8e-08   4.98097e+22
      4.9e-08   4.98022e+22
        5e-08   4.97946e+22
      5.1e-08   4.97869e+22
      5.2e-08    4.9779e+22
      5.3e-08   4.97711e+22
      5.4e-08    4.9763e+22
      5.5e-08   4.97548e+22
      5.6e-08   4.97465e+22
      5.7e-08   4.97381e+22
      5.8e-08   4.97295e+22
      5.9e-08   4.97209e+22
        6e-08   4.97121e+22
      6.1e-08   4.97032e+22
      6.2e-08   4.96943e+22
      6.3e-08   4.96852e+22
      6.4e-08    4.9676e+22
      6.5e-08   4.96667e+22
      6.6e-08   4.96573e+22
      6.7e-08   4.96478e+22
      6.8e-08   4.96382e+22
      6.9e-08   4.96285e+22
        7e-08   4.96188e+22
      7.1e-08   4.96089e+22
      7.2e-08   4.95989e+22
      7.3e-08   4.95888e+22
      7.4e-08   4.95787e+22
      7.5e-08   4.95684e+22
      7.6e-08   4.95581e+22
      7.7e-08   4.95476e+22
      7.8e-08   4.95371e+22
      7.9e-08   4.95265e+22
        8e-08   4.95158e+22
      8.1e-08    4.9505e+22
      8.2e-08   4.94941e+22
      8.3e-08   4.94832e+22
      8.4e-08   4.94722e+22
      8.5e-08    4.9461e+22
      8.6e-08   4.94499e+22
      8.7e-08   4.94386e+22
      8.8e-08   4.94272e+22
      8.9e-08   4.94158e+22
        9e-08   4.94043e+22
      9.1e-08   4.93928e+22
      9.2e-08   4.93811e+22
      9.3e-08   4.93694e+22
      9.4e-08   4.93576e+22
      9.5e-08   4.93458e+22
      9.6e-08   4.93338e+22
      9.7e-08   4.93218e+22
      9.8e-08   4.93098e+22
      9.9e-08   4.92976e+22
        1e-07   4.92854e+22
     1.01e-07   4.92732e+22
     1.02e-07   4.92609e+22
     1.03e-07   4.92485e+22
     1.04e-07    4.9236e+22
     1.05e-07   4.92235e+22
     1.06e-07    4.9211e+22
     1.07e-07   4.91983e+22
     1.08e-07   4.91856e+22
     1.09e-07   4.91729e+22
      1.1e-07   4.91601e+22
     1.11e-07   4.91472e+22
     1.12e-07   4.91343e+22
     1.13e-07   4.91214e+22
     1.14e-07   4.91083e+22
     1.15e-07   4.90953e+22
     1.16e-07   4.90821e+22
     1.17e-07    4.9069e+22
     1.18e-07   4.90557e+22
     1.19e-07   4.90425e+22
      1.2e-07   4.90291e+22
     1.21e-07   4.90157e+22
     1.22e-07   4.90023e+22
     1.23e-07   4.89889e+22
     1.24e-07   4.89753e+22
     1.25e-07   4.89618e+22
     1.26e-07   4.89482e+22
     1.27e-07   4.89345e+22
     1.28e-07   4.89208e+22
     1.29e-07   4.89071e+22
      1.3e-07   4.88933e+22
     1.31e-07   4.88795e+22
     1.32e-07   4.88656e+22
     1.33e-07   4.88517e+22
     1.34e-07   4.88378e+22
     1.35e-07   4.88238e+22
     1.36e-07   4.88098e+22
     1.37e-07   4.87958e+22
     1.38e-07   4.87817e+22
     1.39e-07   4.87676e+22
      1.4e-07   4.87534e+22
     1.41e-07   4.87392e+22
     1.42e-07    4.8725e+22
     1.43e-07   4.87107e+22
     1.44e-07   4.86964e+22
     1.45e-07   4.86821e+22
     1.46e-07   4.86677e+22
     1.47e-07   4.86533e+22
     1.48e-07   4.86389e+22
     1.49e-07   4.86244e+22
      1.5e-07     4.861e+22
     1.51e-07   4.85954e+22
     1.52e-07   4.85809e+22
     1.53e-07   4.85663e+22
     1.54e-07   4.85517e+22
     1.55e-07   4.85371e+22
     1.56e-07   4.85224e+22
     1.57e-07   4.85078e+22
     1.58e-07   4.84931e+22
     1.59e-07   4.84783e+22
      1.6e-07   4.84636e+22
     1.61e-07   4.84488e+22
     1.62e-07    4.8434e+22
     1.63e-07   4.84192e+22
     1.64e-07   4.84043e+22
     1.65e-07   4.83894e+22
     1.66e-07   4.83746e+22
     1.67e-07   4.83596e+22
     1.68e-07   4.83447e+22
     1.69e-07   4.83297e+22
      1.7e-07   4.83148e+22
     1.71e-07   4.82998e+22
     1.72e-07   4.82848e+22
     1.73e-07   4.82697e+22
     1.74e-07   4.82547e+22
     1.75e-07   4.82396e+22
     1.76e-07   4.82245e+22
     1.77e-07   4.82094e+22
     1.78e-07   4.81943e+22
     1.79e-07   4.81791e+22
      1.8e-07    4.8164e+22
     1.81e-07   4.81488e+22
     1.82e-07   4.81336e+22
     1.83e-07   4.81184e+22
     1.84e-07   4.81032e+22
     1.85e-07    4.8088e+22
     1.86e-07   4.80727e+22
     1.87e-07   4.80575e+22
     1.88e-07   4.80422e+22
     1.89e-07   4.80269e+22
      1.9e-07   4.80116e+22
     1.91e-07   4.79963e+22
     1.92e-07    4.7981e+22
     1.93e-07   4.79656e+22
     1.94e-07   4.79503e+22
     1.95e-07    4.7935e+22
     1.96e-07   4.79196e+22
     1.97e-07   4.79042e+22
     1.98e-07   4.78888e+22
     1.99e-07   4.78734e+22
        2e-07    4.7858e+22
     2.01e-07   4.78426e+22
     2.02e-07   4.78272e+22
     2.03e-07   4.78118e+22
     2.04e-07   4.77963e+22
     2.05e-07   4.77809e+22
     2.06e-07   4.77654e+22
     2.07e-07     4.775e+22
     2.08e-07   4.77345e+22
     2.09e-07   4.77191e+22
      2.1e-07   4.77036e+22
     2.11e-07   4.76881e+22
     2.12e-07   4.76726e+22
     2.13e-07   4.76571e+22
     2.14e-07   4.76416e+22
     2.15e-07   4.76261e+22
     2.16e-07   4.76106e+22
     2.17e-07   4.75951e+22
     2.18e-07   4.75796e+22
     2.19e-07    4.7564e+22
      2.2e-07   4.75485e+22
     2.21e-07    4.7533e+22
     2.22e-07   4.75175e+22
     2.23e-07   4.75019e+22
     2.24e-07   4.74864e+22
     2.25e-07   4.74708e+22
     2.26e-07   4.74553e+22
     2.27e-07   4.74398e+22
     2.28e-07   4.74242e+22
     2.29e-07   4.74087e+22
      2.3e-07   4.73931e+22
     2.31e-07   4.73776e+22
     2.32e-07    4.7362e+22
     2.33e-07   4.73465e+22
     2.34e-07   4.73309e+22
     2.35e-07   4.73154e+22
     2.36e-07   4.72998e+22
     2.37e-07   4.72843e+22
     2.38e-07   4.72687e+22
     2.39e-07   4.72532e+22
      2.4e-07   4.72376e+22
     2.41e-07   4.72221e+22
     2.42e-07   4.72065e+22
     2.43e-07    4.7191e+22
     2.44e-07   4.71754e+22
     2.45e-07   4.71599e+22
     2.46e-07   4.71444e+22
     2.47e-07   4.71288e+22
     2.48e-07   4.71133e+22
     2.49e-07   4.70978e+22
      2.5e-07   4.70822e+22
     2.51e-07   4.70667e+22
     2.52e-07   4.70512e+22
     2.53e-07   4.70357e+22
     2.54e-07   4.70201e+22
     2.55e-07   4.70046e+22
     2.56e-07   4.69891e+22
     2.57e-07   4.69736e+22
     2.58e-07   4.69581e+22
     2.59e-07   4.69426e+22
      2.6e-07   4.69271e+22
     2.61e-07   4.69116e+22
     2.62e-07   4.68961e+22
     2.63e-07   4.68807e+22
     2.64e-07   4.68652e+22
     2.65e-07   4.68497e+22
     2.66e-07   4.68343e+22
     2.67e-07   4.68188e+22
     2.68e-07   4.68033e+22
     2.69e-07   4.67879e+22
      2.7e-07   4.67724e+22
     2.71e-07    4.6757e+22
     2.72e-07   4.67416e+22
     2.73e-07   4.67262e+22
     2.74e-07   4.67107e+22
     2.75e-07   4.66953e+22
     2.76e-07   4.66799e+22
     2.77e-07   4.66645e+22
     2.78e-07   4.66491e+22
     2.79e-07   4.66337e+22
      2.8e-07   4.66184e+22
     2.81e-07    4.6603e+22
     2.82e-07   4.65876e+22
     2.83e-07   4.65723e+22
     2.84e-07   4.65569e+22
     2.85e-07   4.65416e+22
     2.86e-07   4.65262e+22
     2.87e-07   4.65109e+22
     2.88e-07   4.64956e+22
     2.89e-07   4.64803e+22
      2.9e-07    4.6465e+22
     2.91e-07   4.64497e+22
     2.92e-07   4.64344e+22
     2.93e-07   4.64191e+22
     2.94e-07   4.64039e+22
     2.95e-07   4.63886e+22
     2.96e-07   4.63734e+22
     2.97e-07   4.63581e+22
     2.98e-07   4.63429e+22
     2.99e-07   4.63277e+22
        3e-07   4.63125e+22
     3.01e-07   4.62972e+22
     3.02e-07   4.62821e+22
     3.03e-07   4.62669e+22
     3.04e-07   4.62517e+22
     3.05e-07   4.62365e+22
     3.06e-07   4.62214e+22
     3.07e-07   4.62062e+22
     3.08e-07   4.61911e+22
     3.09e-07    4.6176e+22
      3.1e-07   4.61608e+22
     3.11e-07   4.61457e+22
     3.12e-07   4.61306e+22
     3.13e-07   4.61155e+22
     3.14e-07   4.61005e+22
     3.15e-07   4.60854e+22
     3.16e-07   4.60704e+22
     3.17e-07   4.60553e+22
     3.18e-07   4.60403e+22
     3.19e-07   4.60252e+22
      3.2e-07   4.60102e+22
     3.21e-07   4.59952e+22
     3.22e-07   4.59802e+22
     3.23e-07   4.59653e+22
     3.24e-07   4.59503e+22
     3.25e-07   4.59353e+22
     3.26e-07   4.59204e+22
     3.27e-07   4.59055e+22
     3.28e-07   4.58905e+22
     3.29e-07   4.58756e+22
      3.3e-07   4.58607e+22
     3.31e-07   4.58458e+22
     3.32e-07    4.5831e+22
     3.33e-07   4.58161e+22
     3.34e-07   4.58012e+22
     3.35e-07   4.57864e+22
     3.36e-07   4.57716e+22
     3.37e-07   4.57567e+22
     3.38e-07   4.57419e+22
     3.39e-07   4.57271e+22
      3.4e-07   4.57124e+22
     3.41e-07   4.56976e+22
     3.42e-07   4.56828e+22
     3.43e-07   4.56681e+22
     3.44e-07   4.56533e+22
     3.45e-07   4.56386e+22
     3.46e-07   4.56239e+22
     3.47e-07   4.56092e+22
     3.48e-07   4.55945e+22
     3.49e-07   4.55799e+22
      3.5e-07   4.55652e+22
     3.51e-07   4.55505e+22
     3.52e-07   4.55359e+22
     3.53e-07   4.55213e+22
     3.54e-07   4.55067e+22
     3.55e-07   4.54921e+22
     3.56e-07   4.54775e+22
     3.57e-07   4.54629e+22
     3.58e-07   4.54484e+22
     3.59e-07   4.54338e+22
      3.6e-07   4.54193e+22
     3.61e-07   4.54048e+22
     3.62e-07   4.53903e+22
     3.63e-07   4.53758e+22
     3.64e-07   4.53613e+22
     3.65e-07   4.53468e+22
     3.66e-07   4.53324e+22
     3.67e-07   4.53179e+22
     3.68e-07   4.53035e+22
     3.69e-07   4.52891e+22
      3.7e-07   4.52747e+22
     3.71e-07   4.52603e+22
     3.72e-07   4.52459e+22
     3.73e-07   4.52316e+22
     3.74e-07   4.52172e+22
     3.75e-07   4.52029e+22
     3.76e-07   4.51886e+22
     3.77e-07   4.51743e+22
     3.78e-07     4.516e+22
     3.79e-07   4.51457e+22
      3.8e-07   4.51314e+22
     3.81e-07   4.51172e+22
     3.82e-07   4.51029e+22
     3.83e-07   4.50887e+22
     3.84e-07   4.50745e+22
     3.85e-07   4.50603e+22
     3.86e-07   4.50461e+22
     3.87e-07   4.50319e+22
     3.88e-07   4.50178e+22
     3.89e-07   4.50036e+22
      3.9e-07   4.49895e+22
     3.91e-07   4.49754e+22
     3.92e-07   4.49613e+22
     3.93e-07   4.49472e+22
     3.94e-07   4.49331e+22
     3.95e-07   4.49191e+22
     3.96e-07    4.4905e+22
     3.97e-07    4.4891e+22
     3.98e-07    4.4877e+22
     3.99e-07    4.4863e+22
        4e-07    4.4849e+22
     4.01e-07    4.4835e+22
     4.02e-07   4.48211e+22
     4.03e-07   4.48071e+22
     4.04e-07   4.47932e+22
     4.05e-07   4.47793e+22
     4.06e-07   4.47654e+22
     4.07e-07   4.47515e+22
     4.08e-07   4.47376e+22
     4.09e-07   4.47237e+22
      4.1e-07   4.47099e+22
     4.11e-07    4.4696e+22
     4.12e-07   4.46822e+22
     4.13e-07   4.46684e+22
     4.14e-07   4.46546e+22
     4.15e-07   4.46409e+22
     4.16e-07   4.46271e+22
     4.17e-07   4.46133e+22
     4.18e-07   4.45996e+22
     4.19e-07   4.45859e+22
      4.2e-07   4.45722e+22
     4.21e-07   4.45585e+22
     4.22e-07   4.45448e+22
     4.23e-07   4.45312e+22
     4.24e-07   4.45175e+22
     4.25e-07   4.45039e+22
     4.26e-07   4.44903e+22
     4.27e-07   4.44766e+22
     4.28e-07   4.44631e+22
     4.29e-07   4.44495e+22
      4.3e-07   4.44359e+22
     4.31e-07   4.44224e+22
     4.32e-07   4.44088e+22
     4.33e-07   4.43953e+22
     4.34e-07   4.43818e+22
     4.35e-07   4.43683e+22
     4.36e-07   4.43549e+22
     4.37e-07   4.43414e+22
     4.38e-07   4.43279e+22
     4.39e-07   4.43145e+22
      4.4e-07   4.43011e+22
     4.41e-07   4.42877e+22
     4.42e-07   4.42743e+22
     4.43e-07   4.42609e+22
     4.44e-07   4.42476e+22
     4.45e-07   4.42342e+22
     4.46e-07   4.42209e+22
     4.47e-07   4.42076e+22
     4.48e-07   4.41943e+22
     4.49e-07    4.4181e+22
      4.5e-07   4.41677e+22
     4.51e-07   4.41545e+22
     4.52e-07   4.41412e+22
     4.53e-07    4.4128e+22
     4.54e-07   4.41148e+22
     4.55e-07   4.41016e+22
     4.56e-07   4.40884e+22
     4.57e-07   4.40752e+22
     4.58e-07    4.4062e+22
     4.59e-07   4.40489e+22
      4.6e-07   4.40358e+22
     4.61e-07   4.40227e+22
     4.62e-07   4.40096e+22
     4.63e-07   4.39965e+22
     4.64e-07   4.39834e+22
     4.65e-07   4.39703e+22
     4.66e-07   4.39573e+22
     4.67e-07   4.39443e+22
     4.68e-07   4.39313e+22
     4.69e-07   4.39183e+22
      4.7e-07   4.39053e+22
     4.71e-07   4.38923e+22
     4.72e-07   4.38794e+22
     4.73e-07   4.38664e+22
     4.74e-07   4.38535e+22
     4.75e-07   4.38406e+22
     4.76e-07   4.38277e+22
     4.77e-07   4.38148e+22
     4.78e-07   4.38019e+22
     4.79e-07   4.37891e+22
      4.8e-07   4.37762e+22
     4.81e-07   4.37634e+22
     4.82e-07   4.37506e+22
     4.83e-07   4.37378e+22
     4.84e-07    4.3725e+22
     4.85e-07   4.37122e+22
     4.86e-07   4.36995e+22
     4.87e-07   4.36868e+22
     4.88e-07    4.3674e+22
     4.89e-07   4.36613e+22
      4.9e-07   4.36486e+22
     4.91e-07   4.36359e+22
     4.92e-07   4.36233e+22
     4.93e-07   4.36106e+22
     4.94e-07    4.3598e+22
     4.95e-07   4.35853e+22
     4.96e-07   4.35727e+22
     4.97e-07   4.35601e+22
     4.98e-07   4.35476e+22
     4.99e-07    4.3535e+22
        5e-07   4.35224e+22
     5.01e-07   4.35099e+22
     5.02e-07   4.34974e+22
     5.03e-07   4.34849e+22
     5.04e-07   4.34724e+22
     5.05e-07   4.34599e+22
     5.06e-07   4.34474e+22
     5.07e-07    4.3435e+22
     5.08e-07   4.34225e+22
     5.09e-07   4.34101e+22
      5.1e-07   4.33977e+22
     5.11e-07   4.33853e+22
     5.12e-07   4.33729e+22
     5.13e-07   4.33605e+22
     5.14e-07   4.33482e+22
     5.15e-07   4.33358e+22
     5.16e-07   4.33235e+22
     5.17e-07   4.33112e+22
     5.18e-07   4.32989e+22
     5.19e-07   4.32866e+22
      5.2e-07   4.32743e+22
     5.21e-07   4.32621e+22
     5.22e-07   4.32498e+22
     5.23e-07   4.32376e+22
     5.24e-07   4.32254e+22
     5.25e-07   4.32132e+22
     5.26e-07    4.3201e+22
     5.27e-07   4.31888e+22
     5.28e-07   4.31767e+22
     5.29e-07   4.31645e+22
      5.3e-07   4.31524e+22
     5.31e-07   4.31403e+22
     5.32e-07   4.31282e+22
     5.33e-07   4.31161e+22
     5.34e-07    4.3104e+22
     5.35e-07    4.3092e+22
     5.36e-07   4.30799e+22
     5.37e-07   4.30679e+22
     5.38e-07   4.30559e+22
     5.39e-07   4.30439e+22
      5.4e-07   4.30319e+22
     5.41e-07   4.30199e+22
     5.42e-07   4.30079e+22
     5.43e-07    4.2996e+22
     5.44e-07    4.2984e+22
     5.45e-07   4.29721e+22
     5.46e-07   4.29602e+22
     5.47e-07   4.29483e+22
     5.48e-07   4.29364e+22
     5.49e-07   4.29246e+22
      5.5e-07   4.29127e+22
     5.51e-07   4.29009e+22
     5.52e-07    4.2889e+22
     5.53e-07   4.28772e+22
     5.54e-07   4.28654e+22
     5.55e-07   4.28536e+22
     5.56e-07   4.28419e+22
     5.57e-07   4.28301e+22
     5.58e-07   4.28184e+22
     5.59e-07   4.28066e+22
      5.6e-07   4.27949e+22
     5.61e-07   4.27832e+22
     5.62e-07   4.27715e+22
     5.63e-07   4.27598e+22
     5.64e-07   4.27482e+22
     5.65e-07   4.27365e+22
     5.66e-07   4.27249e+22
     5.67e-07   4.27133e+22
     5.68e-07   4.27017e+22
     5.69e-07   4.26901e+22
      5.7e-07   4.26785e+22
     5.71e-07   4.26669e+22
     5.72e-07   4.26554e+22
     5.73e-07   4.26438e+22
     5.74e-07   4.26323e+22
     5.75e-07   4.26208e+22
     5.76e-07   4.26093e+22
     5.77e-07   4.25978e+22
     5.78e-07   4.25863e+22
     5.79e-07   4.25748e+22
      5.8e-07   4.25634e+22
     5.81e-07    4.2552e+22
     5.82e-07   4.25405e+22
     5.83e-07   4.25291e+22
     5.84e-07   4.25177e+22
     5.85e-07   4.25063e+22
     5.86e-07    4.2495e+22
     5.87e-07   4.24836e+22
     5.88e-07   4.24723e+22
     5.89e-07   4.24609e+22
      5.9e-07   4.24496e+22
     5.91e-07   4.24383e+22
     5.92e-07    4.2427e+22
     5.93e-07   4.24157e+22
     5.94e-07   4.24045e+22
     5.95e-07   4.23932e+22
     5.96e-07    4.2382e+22
     5.97e-07   4.23708e+22
     5.98e-07   4.23596e+22
     5.99e-07   4.23484e+22
        6e-07   4.23372e+22
     6.01e-07    4.2326e+22
     6.02e-07   4.23148e+22
     6.03e-07   4.23037e+22
     6.04e-07   4.22925e+22
     6.05e-07   4.22814e+22
     6.06e-07   4.22703e+22
     6.07e-07   4.22592e+22
     6.08e-07   4.22481e+22
     6.09e-07   4.22371e+22
      6.1e-07    4.2226e+22
     6.11e-07    4.2215e+22
     6.12e-07   4.22039e+22
     6.13e-07   4.21929e+22
     6.14e-07   4.21819e+22
     6.15e-07   4.21709e+22
     6.16e-07   4.21599e+22
     6.17e-07    4.2149e+22
     6.18e-07    4.2138e+22
     6.19e-07   4.21271e+22
      6.2e-07   4.21161e+22
     6.21e-07   4.21052e+22
     6.22e-07   4.20943e+22
     6.23e-07   4.20834e+22
     6.24e-07   4.20725e+22
     6.25e-07   4.20617e+22
     6.26e-07   4.20508e+22
     6.27e-07     4.204e+22
     6.28e-07   4.20291e+22
     6.29e-07   4.20183e+22
      6.3e-07   4.20075e+22
     6.31e-07   4.19967e+22
     6.32e-07   4.19859e+22
     6.33e-07   4.19752e+22
     6.34e-07   4.19644e+22
     6.35e-07   4.19537e+22
     6.36e-07   4.19429e+22
     6.37e-07   4.19322e+22
     6.38e-07   4.19215e+22
     6.39e-07   4.19108e+22
      6.4e-07   4.19001e+22
     6.41e-07   4.18895e+22
     6.42e-07   4.18788e+22
     6.43e-07   4.18682e+22
     6.44e-07   4.18575e+22
     6.45e-07   4.18469e+22
     6.46e-07   4.18363e+22
     6.47e-07   4.18257e+22
     6.48e-07   4.18151e+22
     6.49e-07   4.18046e+22
      6.5e-07    4.1794e+22
     6.51e-07   4.17835e+22
     6.52e-07   4.17729e+22
     6.53e-07   4.17624e+22
     6.54e-07   4.17519e+22
     6.55e-07   4.17414e+22
     6.56e-07   4.17309e+22
     6.57e-07   4.17204e+22
     6.58e-07     4.171e+22
     6.59e-07   4.16995e+22
      6.6e-07   4.16891e+22
     6.61e-07   4.16787e+22
     6.62e-07   4.16683e+22
     6.63e-07   4.16578e+22
     6.64e-07   4.16475e+22
     6.65e-07   4.16371e+22
     6.66e-07   4.16267e+22
     6.67e-07   4.16164e+22
     6.68e-07    4.1606e+22
     6.69e-07   4.15957e+22
      6.7e-07   4.15854e+22
     6.71e-07   4.15751e+22
     6.72e-07   4.15648e+22
     6.73e-07   4.15545e+22
     6.74e-07   4.15442e+22
     6.75e-07    4.1534e+22
     6.76e-07   4.15237e+22
     6.77e-07   4.15135e+22
     6.78e-07   4.15032e+22
     6.79e-07    4.1493e+22
      6.8e-07   4.14828e+22
     6.81e-07   4.14726e+22
     6.82e-07   4.14625e+22
     6.83e-07   4.14523e+22
     6.84e-07   4.14421e+22
     6.85e-07    4.1432e+22
     6.86e-07   4.14219e+22
     6.87e-07   4.14118e+22
     6.88e-07   4.14016e+22
     6.89e-07   4.13915e+22
      6.9e-07   4.13815e+22
     6.91e-07   4.13714e+22
     6.92e-07   4.13613e+22
     6.93e-07   4.13513e+22
     6.94e-07   4.13412e+22
     6.95e-07   4.13312e+22
     6.96e-07   4.13212e+22
     6.97e-07   4.13112e+22
     6.98e-07   4.13012e+22
     6.99e-07   4.12912e+22
        7e-07   4.12812e+22
     7.01e-07   4.12713e+22
     7.02e-07   4.12613e+22
     7.03e-07   4.12514e+22
     7.04e-07   4.12415e+22
     7.05e-07   4.12316e+22
     7.06e-07   4.12217e+22
     7.07e-07   4.12118e+22
     7.08e-07   4.12019e+22
     7.09e-07    4.1192e+22
      7.1e-07   4.11822e+22
     7.11e-07   4.11723e+22
     7.12e-07   4.11625e+22
     7.13e-07   4.11526e+22
     7.14e-07   4.11428e+22
     7.15e-07    4.1133e+22
     7.16e-07   4.11232e+22
     7.17e-07   4.11135e+22
     7.18e-07   4.11037e+22
     7.19e-07   4.10939e+22
      7.2e-07   4.10842e+22
     7.21e-07   4.10744e+22
     7.22e-07   4.10647e+22
     7.23e-07    4.1055e+22
     7.24e-07   4.10453e+22
     7.25e-07   4.10356e+22
     7.26e-07   4.10259e+22
     7.27e-07   4.10163e+22
     7.28e-07   4.10066e+22
     7.29e-07    4.0997e+22
      7.3e-07   4.09873e+22
     7.31e-07   4.09777e+22
     7.32e-07   4.09681e+22
     7.33e-07   4.09585e+22
     7.34e-07   4.09489e+22
     7.35e-07   4.09393e+22
     7.36e-07   4.09297e+22
     7.37e-07   4.09202e+22
     7.38e-07   4.09106e+22
     7.39e-07   4.09011e+22
      7.4e-07   4.08915e+22
     7.41e-07    4.0882e+22
     7.42e-07   4.08725e+22
     7.43e-07    4.0863e+22
     7.44e-07   4.08535e+22
     7.45e-07    4.0844e+22
     7.46e-07   4.08346e+22
     7.47e-07   4.08251e+22
     7.48e-07   4.08157e+22
     7.49e-07   4.08062e+22
      7.5e-07   4.07968e+22
     7.51e-07   4.07874e+22
     7.52e-07    4.0778e+22
     7.53e-07   4.07686e+22
     7.54e-07   4.07592e+22
     7.55e-07   4.07499e+22
     7.56e-07   4.07405e+22
     7.57e-07   4.07311e+22
     7.58e-07   4.07218e+22
     7.59e-07   4.07125e+22
      7.6e-07   4.07032e+22
     7.61e-07   4.06938e+22
     7.62e-07   4.06845e+22
     7.63e-07   4.06753e+22
     7.64e-07    4.0666e+22
     7.65e-07   4.06567e+22
     7.66e-07   4.06475e+22
     7.67e-07   4.06382e+22
     7.68e-07    4.0629e+22
     7.69e-07   4.06197e+22
      7.7e-07   4.06105e+22
     7.71e-07   4.06013e+22
     7.72e-07   4.05921e+22
     7.73e-07   4.05829e+22
     7.74e-07   4.05738e+22
     7.75e-07   4.05646e+22
     7.76e-07   4.05554e+22
     7.77e-07   4.05463e+22
     7.78e-07   4.05372e+22
     7.79e-07    4.0528e+22
      7.8e-07   4.05189e+22
     7.81e-07   4.05098e+22
     7.82e-07   4.05007e+22
     7.83e-07   4.04916e+22
     7.84e-07   4.04826e+22
     7.85e-07   4.04735e+22
     7.86e-07   4.04644e+22
     7.87e-07   4.04554e+22
     7.88e-07   4.04464e+22
     7.89e-07   4.04373e+22
      7.9e-07   4.04283e+22
     7.91e-07   4.04193e+22
     7.92e-07   4.04103e+22
     7.93e-07   4.04013e+22
     7.94e-07   4.03924e+22
     7.95e-07   4.03834e+22
     7.96e-07   4.03745e+22
     7.97e-07   4.03655e+22
     7.98e-07   4.03566e+22
     7.99e-07   4.03476e+22
        8e-07   4.03387e+22
     8.01e-07   4.03298e+22
     8.02e-07   4.03209e+22
     8.03e-07    4.0312e+22
     8.04e-07   4.03032e+22
     8.05e-07   4.02943e+22
     8.06e-07   4.02854e+22
     8.07e-07   4.02766e+22
     8.08e-07   4.02677e+22
     8.09e-07   4.02589e+22
      8.1e-07   4.02501e+22
     8.11e-07   4.02413e+22
     8.12e-07   4.02325e+22
     8.13e-07   4.02237e+22
     8.14e-07   4.02149e+22
     8.15e-07   4.02061e+22
     8.16e-07   4.01974e+22
     8.17e-07   4.01886e+22
     8.18e-07   4.01799e+22
     8.19e-07   4.01712e+22
      8.2e-07   4.01624e+22
     8.21e-07   4.01537e+22
     8.22e-07    4.0145e+22
     8.23e-07   4.01363e+22
     8.24e-07   4.01276e+22
     8.25e-07    4.0119e+22
     8.26e-07   4.01103e+22
     8.27e-07   4.01016e+22
     8.28e-07    4.0093e+22
     8.29e-07   4.00843e+22
      8.3e-07   4.00757e+22
     8.31e-07   4.00671e+22
     8.32e-07   4.00585e+22
     8.33e-07   4.00499e+22
     8.34e-07   4.00413e+22
     8.35e-07   4.00327e+22
     8.36e-07   4.00241e+22
     8.37e-07   4.00156e+22
     8.38e-07    4.0007e+22
     8.39e-07   3.99985e+22
      8.4e-07   3.99899e+22
     8.41e-07   3.99814e+22
     8.42e-07   3.99729e+22
     8.43e-07   3.99644e+22
     8.44e-07   3.99559e+22
     8.45e-07   3.99474e+22
     8.46e-07   3.99389e+22
     8.47e-07   3.99304e+22
     8.48e-07    3.9922e+22
     8.49e-07   3.99135e+22
      8.5e-07   3.99051e+22
     8.51e-07   3.98966e+22
     8.52e-07   3.98882e+22
     8.53e-07   3.98798e+22
     8.54e-07   3.98714e+22
     8.55e-07    3.9863e+22
     8.56e-07   3.98546e+22
     8.57e-07   3.98462e+22
     8.58e-07   3.98378e+22
     8.59e-07   3.98295e+22
      8.6e-07   3.98211e+22
     8.61e-07   3.98128e+22
     8.62e-07   3.98044e+22
     8.63e-07   3.97961e+22
     8.64e-07   3.97878e+22
     8.65e-07   3.97795e+22
     8.66e-07   3.97711e+22
     8.67e-07   3.97629e+22
     8.68e-07   3.97546e+22
     8.69e-07   3.97463e+22
      8.7e-07    3.9738e+22
     8.71e-07   3.97298e+22
     8.72e-07   3.97215e+22
     8.73e-07   3.97133e+22
     8.74e-07    3.9705e+22
     8.75e-07   3.96968e+22
     8.76e-07   3.96886e+22
     8.77e-07   3.96804e+22
     8.78e-07   3.96722e+22
     8.79e-07    3.9664e+22
      8.8e-07   3.96558e+22
     8.81e-07   3.96477e+22
     8.82e-07   3.96395e+22
     8.83e-07   3.96313e+22
     8.84e-07   3.96232e+22
     8.85e-07   3.96151e+22
     8.86e-07   3.96069e+22
     8.87e-07   3.95988e+22
     8.88e-07   3.95907e+22
     8.89e-07   3.95826e+22
      8.9e-07   3.95745e+22
     8.91e-07   3.95664e+22
     8.92e-07   3.95583e+22
     8.93e-07   3.95503e+22
     8.94e-07   3.95422e+22
     8.95e-07   3.95342e+22
     8.96e-07   3.95261e+22
     8.97e-07   3.95181e+22
     8.98e-07     3.951e+22
     8.99e-07    3.9502e+22
        9e-07    3.9494e+22
     9.01e-07    3.9486e+22
     9.02e-07    3.9478e+22
     9.03e-07     3.947e+22
     9.04e-07   3.94621e+22
     9.05e-07   3.94541e+22
     9.06e-07   3.94461e+22
     9.07e-07   3.94382e+22
     9.08e-07   3.94302e+22
     9.09e-07   3.94223e+22
      9.1e-07   3.94144e+22
     9.11e-07   3.94065e+22
     9.12e-07   3.93985e+22
     9.13e-07   3.93906e+22
     9.14e-07   3.93828e+22
     9.15e-07   3.93749e+22
     9.16e-07    3.9367e+22
     9.17e-07   3.93591e+22
     9.18e-07   3.93513e+22
     9.19e-07   3.93434e+22
      9.2e-07   3.93356e+22
     9.21e-07   3.93277e+22
     9.22e-07   3.93199e+22
     9.23e-07   3.93121e+22
     9.24e-07   3.93043e+22
     9.25e-07   3.92965e+22
     9.26e-07   3.92887e+22
     9.27e-07   3.92809e+22
     9.28e-07   3.92731e+22
     9.29e-07   3.92653e+22
      9.3e-07   3.92576e+22
     9.31e-07   3.92498e+22
     9.32e-07   3.92421e+22
     9.33e-07   3.92343e+22
     9.34e-07   3.92266e+22
     9.35e-07   3.92189e+22
     9.36e-07   3.92111e+22
     9.37e-07   3.92034e+22
     9.38e-07   3.91957e+22
     9.39e-07    3.9188e+22
      9.4e-07   3.91803e+22
     9.41e-07   3.91727e+22
     9.42e-07    3.9165e+22
     9.43e-07   3.91573e+22
     9.44e-07   3.91497e+22
     9.45e-07    3.9142e+22
     9.46e-07   3.91344e+22
     9.47e-07   3.91268e+22
     9.48e-07   3.91192e+22
     9.49e-07   3.91115e+22
      9.5e-07   3.91039e+22
     9.51e-07   3.90963e+22
     9.52e-07   3.90887e+22
     9.53e-07   3.90812e+22
     9.54e-07   3.90736e+22
     9.55e-07    3.9066e+22
     9.56e-07   3.90585e+22
     9.57e-07   3.90509e+22
     9.58e-07   3.90434e+22
     9.59e-07   3.90358e+22
      9.6e-07   3.90283e+22
     9.61e-07   3.90208e+22
     9.62e-07   3.90133e+22
     9.63e-07   3.90057e+22
     9.64e-07   3.89982e+22
     9.65e-07   3.89908e+22
     9.66e-07   3.89833e+22
     9.67e-07   3.89758e+22
     9.68e-07   3.89683e+22
     9.69e-07   3.89609e+22
      9.7e-07   3.89534e+22
     9.71e-07    3.8946e+22
     9.72e-07   3.89385e+22
     9.73e-07   3.89311e+22
     9.74e-07   3.89237e+22
     9.75e-07   3.89163e+22
     9.76e-07   3.89088e+22
     9.77e-07   3.89014e+22
     9.78e-07   3.88941e+22
     9.79e-07   3.88867e+22
      9.8e-07   3.88793e+22
     9.81e-07   3.88719e+22
     9.82e-07   3.88646e+22
     9.83e-07   3.88572e+22
     9.84e-07   3.88498e+22
     9.85e-07   3.88425e+22
     9.86e-07   3.88352e+22
     9.87e-07   3.88278e+22
     9.88e-07   3.88205e+22
     9.89e-07   3.88132e+22
      9.9e-07   3.88059e+22
     9.91e-07   3.87986e+22
     9.92e-07   3.87913e+22
     9.93e-07    3.8784e+22
     9.94e-07   3.87768e+22
     9.95e-07   3.87695e+22
     9.96e-07   3.87622e+22
     9.97e-07    3.8755e+22
     9.98e-07   3.87477e+22
     9.99e-07   3.87405e+22
        1e-06   3.87333e+22
    1.001e-06    3.8726e+22
    1.002e-06   3.87188e+22
    1.003e-06   3.87116e+22
    1.004e-06   3.87044e+22
    1.005e-06   3.86972e+22
    1.006e-06     3.869e+22
    1.007e-06   3.86828e+22
    1.008e-06   3.86756e+22
    1.009e-06   3.86685e+22
     1.01e-06   3.86613e+22
    1.011e-06   3.86542e+22
    1.012e-06    3.8647e+22
    1.013e-06   3.86399e+22
    1.014e-06   3.86327e+22
    1.015e-06   3.86256e+22
    1.016e-06   3.86185e+22
    1.017e-06   3.86114e+22
    1.018e-06   3.86043e+22
    1.019e-06   3.85972e+22
     1.02e-06   3.85901e+22
    1.021e-06    3.8583e+22
    1.022e-06   3.85759e+22
    1.023e-06   3.85689e+22
    1.024e-06   3.85618e+22
    1.025e-06   3.85547e+22
    1.026e-06   3.85477e+22
    1.027e-06   3.85406e+22
    1.028e-06   3.85336e+22
    1.029e-06   3.85266e+22
     1.03e-06   3.85196e+22
    1.031e-06   3.85125e+22
    1.032e-06   3.85055e+22
    1.033e-06   3.84985e+22
    1.034e-06   3.84915e+22
    1.035e-06   3.84846e+22
    1.036e-06   3.84776e+22
    1.037e-06   3.84706e+22
    1.038e-06   3.84636e+22
    1.039e-06   3.84567e+22
     1.04e-06   3.84497e+22
    1.041e-06   3.84428e+22
    1.042e-06   3.84358e+22
    1.043e-06   3.84289e+22
    1.044e-06    3.8422e+22
    1.045e-06   3.84151e+22
    1.046e-06   3.84081e+22
    1.047e-06   3.84012e+22
    1.048e-06   3.83943e+22
    1.049e-06   3.83874e+22
     1.05e-06   3.83806e+22
    1.051e-06   3.83737e+22
    1.052e-06   3.83668e+22
    1.053e-06   3.83599e+22
    1.054e-06   3.83531e+22
    1.055e-06   3.83462e+22
    1.056e-06   3.83394e+22
    1.057e-06   3.83325e+22
    1.058e-06   3.83257e+22
    1.059e-06   3.83189e+22
     1.06e-06   3.83121e+22
    1.061e-06   3.83052e+22
    1.062e-06   3.82984e+22
    1.063e-06   3.82916e+22
    1.064e-06   3.82848e+22
    1.065e-06   3.82781e+22
    1.066e-06   3.82713e+22
    1.067e-06   3.82645e+22
    1.068e-06   3.82577e+22