# Probe 0 (5e-06 5e-06 5e-06)
#       Probe             0
#        Time
        1e-09   5.00005e+22
        2e-09   5.00013e+22
        3e-09   5.00024e+22
        4e-09   5.00037e+22
        5e-09   5.00052e+22
        6e-09    5.0007e+22
        7e-09    5.0009e+22
        8e-09   5.00113e+22
        9e-09   5.00138e+22
        1e-08   5.00166e+22
      1.1e-08   5.00196e+22
      1.2e-08   5.00228e+22
      1.3e-08   5.00263e+22
      1.4e-08     5.003e+22
      1.5e-08    5.0034e+22
      1.6e-08   5.00382e+22
      1.7e-08   5.00427e+22
      1.8e-08   5.00474e+22
      1.9e-08   5.00523e+22
        2e-08   5.00575e+22
      2.1e-08    5.0063e+22
      2.2e-08   5.00687e+22
      2.3e-08   5.00746e+22
      2.4e-08   5.00808e+22
      2.5e-08   5.00872e+22
      2.6e-08   5.00938e+22
      2.7e-08   5.01007e+22
      2.8e-08   5.01078e+22
      2.9e-08   5.01152e+22
        3e-08   5.01228e+22
      3.1e-08   5.01306e+22
      3.2e-08   5.01387e+22
      3.3e-08   5.01469e+22
      3.4e-08   5.01555e+22
      3.5e-08   5.01642e+22
      3.6e-08   5.01732e+22
      3.7e-08   5.01824e+22
      3.8e-08   5.01918e+22
      3.9e-08   5.02015e+22
        4e-08   5.02114e+22
      4.1e-08   5.02214e+22
      4.2e-08   5.02318e+22
      4.3e-08   5.02423e+22
      4.4e-08    5.0253e+22
      4.5e-08    5.0264e+22
      4.6e-08   5.02752e+22
      4.7e-08   5.02866e+22
      4.8e-08   5.02981e+22
      4.9e-08   5.03099e+22
        5e-08    5.0322e+22
      5.1e-08   5.03342e+22
      5.2e-08   5.03466e+22
      5.3e-08   5.03592e+22
      5.4e-08    5.0372e+22
      5.5e-08    5.0385e+22
      5.6e-08   5.03982e+22
      5.7e-08   5.04116e+22
      5.8e-08   5.04252e+22
      5.9e-08    5.0439e+22
        6e-08    5.0453e+22
      6.1e-08   5.04672e+22
      6.2e-08   5.04815e+22
      6.3e-08    5.0496e+22
      6.4e-08   5.05108e+22
      6.5e-08   5.05257e+22
      6.6e-08   5.05407e+22
      6.7e-08    5.0556e+22
      6.8e-08   5.05714e+22
      6.9e-08    5.0587e+22
        7e-08   5.06028e+22
      7.1e-08   5.06188e+22
      7.2e-08   5.06349e+22
      7.3e-08   5.06512e+22
      7.4e-08   5.06677e+22
      7.5e-08   5.06843e+22
      7.6e-08   5.07011e+22
      7.7e-08    5.0718e+22
      7.8e-08   5.07351e+22
      7.9e-08   5.07524e+22
        8e-08   5.07698e+22
      8.1e-08   5.07874e+22
      8.2e-08   5.08052e+22
      8.3e-08   5.08231e+22
      8.4e-08   5.08411e+22
      8.5e-08   5.08593e+22
      8.6e-08   5.08776e+22
      8.7e-08   5.08961e+22
      8.8e-08   5.09147e+22
      8.9e-08   5.09335e+22
        9e-08   5.09524e+22
      9.1e-08   5.09715e+22
      9.2e-08   5.09907e+22
      9.3e-08     5.101e+22
      9.4e-08   5.10295e+22
      9.5e-08   5.10491e+22
      9.6e-08   5.10689e+22
      9.7e-08   5.10887e+22
      9.8e-08   5.11087e+22
      9.9e-08   5.11289e+22
        1e-07   5.11491e+22
     1.01e-07   5.11695e+22
     1.02e-07   5.11901e+22
     1.03e-07   5.12107e+22
     1.04e-07   5.12315e+22
     1.05e-07   5.12523e+22
     1.06e-07   5.12733e+22
     1.07e-07   5.12945e+22
     1.08e-07   5.13157e+22
     1.09e-07   5.13371e+22
      1.1e-07   5.13585e+22
     1.11e-07   5.13801e+22
     1.12e-07   5.14018e+22
     1.13e-07   5.14236e+22
     1.14e-07   5.14455e+22
     1.15e-07   5.14676e+22
     1.16e-07   5.14897e+22
     1.17e-07   5.15119e+22
     1.18e-07   5.15343e+22
     1.19e-07   5.15567e+22
      1.2e-07   5.15793e+22
     1.21e-07   5.16019e+22
     1.22e-07   5.16247e+22
     1.23e-07   5.16476e+22
     1.24e-07   5.16705e+22
     1.25e-07   5.16936e+22
     1.26e-07   5.17167e+22
     1.27e-07   5.17399e+22
     1.28e-07   5.17633e+22
     1.29e-07   5.17867e+22
      1.3e-07   5.18102e+22
     1.31e-07   5.18338e+22
     1.32e-07   5.18575e+22
     1.33e-07   5.18813e+22
     1.34e-07   5.19052e+22
     1.35e-07   5.19291e+22
     1.36e-07   5.19532e+22
     1.37e-07   5.19773e+22
     1.38e-07   5.20015e+22
     1.39e-07   5.20258e+22
      1.4e-07   5.20502e+22
     1.41e-07   5.20746e+22
     1.42e-07   5.20991e+22
     1.43e-07   5.21237e+22
     1.44e-07   5.21484e+22
     1.45e-07   5.21732e+22
     1.46e-07    5.2198e+22
     1.47e-07   5.22229e+22
     1.48e-07   5.22479e+22
     1.49e-07    5.2273e+22
      1.5e-07   5.22981e+22
     1.51e-07   5.23233e+22
     1.52e-07   5.23485e+22
     1.53e-07   5.23739e+22
     1.54e-07   5.23993e+22
     1.55e-07   5.24247e+22
     1.56e-07   5.24503e+22
     1.57e-07   5.24759e+22
     1.58e-07   5.25015e+22
     1.59e-07   5.25273e+22
      1.6e-07    5.2553e+22
     1.61e-07   5.25789e+22
     1.62e-07   5.26048e+22
     1.63e-07   5.26308e+22
     1.64e-07   5.26568e+22
     1.65e-07   5.26829e+22
     1.66e-07    5.2709e+22
     1.67e-07   5.27352e+22
     1.68e-07   5.27615e+22
     1.69e-07   5.27878e+22
      1.7e-07   5.28142e+22
     1.71e-07   5.28406e+22
     1.72e-07    5.2867e+22
     1.73e-07   5.28936e+22
     1.74e-07   5.29201e+22
     1.75e-07   5.29468e+22
     1.76e-07   5.29734e+22
     1.77e-07   5.30002e+22
     1.78e-07   5.30269e+22
     1.79e-07   5.30537e+22
      1.8e-07   5.30806e+22
     1.81e-07   5.31075e+22
     1.82e-07   5.31345e+22
     1.83e-07   5.31615e+22
     1.84e-07   5.31885e+22
     1.85e-07   5.32156e+22
     1.86e-07   5.32427e+22
     1.87e-07   5.32699e+22
     1.88e-07   5.32971e+22
     1.89e-07   5.33244e+22
      1.9e-07   5.33517e+22
     1.91e-07    5.3379e+22
     1.92e-07   5.34064e+22
     1.93e-07   5.34338e+22
     1.94e-07   5.34612e+22
     1.95e-07   5.34887e+22
     1.96e-07   5.35162e+22
     1.97e-07   5.35438e+22
     1.98e-07   5.35713e+22
     1.99e-07    5.3599e+22
        2e-07   5.36266e+22
     2.01e-07   5.36543e+22
     2.02e-07    5.3682e+22
     2.03e-07   5.37098e+22
     2.04e-07   5.37376e+22
     2.05e-07   5.37654e+22
     2.06e-07   5.37932e+22
     2.07e-07   5.38211e+22
     2.08e-07    5.3849e+22
     2.09e-07   5.38769e+22
      2.1e-07   5.39049e+22
     2.11e-07   5.39329e+22
     2.12e-07   5.39609e+22
     2.13e-07   5.39889e+22
     2.14e-07    5.4017e+22
     2.15e-07   5.40451e+22
     2.16e-07   5.40732e+22
     2.17e-07   5.41013e+22
     2.18e-07   5.41295e+22
     2.19e-07   5.41577e+22
      2.2e-07   5.41859e+22
     2.21e-07   5.42141e+22
     2.22e-07   5.42424e+22
     2.23e-07   5.42707e+22
     2.24e-07   5.42989e+22
     2.25e-07   5.43273e+22
     2.26e-07   5.43556e+22
     2.27e-07   5.43839e+22
     2.28e-07   5.44123e+22
     2.29e-07   5.44407e+22
      2.3e-07   5.44691e+22
     2.31e-07   5.44975e+22
     2.32e-07    5.4526e+22
     2.33e-07   5.45544e+22
     2.34e-07   5.45829e+22
     2.35e-07   5.46114e+22
     2.36e-07   5.46399e+22
     2.37e-07   5.46684e+22
     2.38e-07    5.4697e+22
     2.39e-07   5.47255e+22
      2.4e-07   5.47541e+22
     2.41e-07   5.47826e+22
     2.42e-07   5.48112e+22
     2.43e-07   5.48398e+22
     2.44e-07   5.48684e+22
     2.45e-07   5.48971e+22
     2.46e-07   5.49257e+22
     2.47e-07   5.49543e+22
     2.48e-07    5.4983e+22
     2.49e-07   5.50117e+22
      2.5e-07   5.50403e+22
     2.51e-07    5.5069e+22
     2.52e-07   5.50977e+22
     2.53e-07   5.51264e+22
     2.54e-07   5.51551e+22
     2.55e-07   5.51838e+22
     2.56e-07   5.52126e+22
     2.57e-07   5.52413e+22
     2.58e-07     5.527e+22
     2.59e-07   5.52988e+22
      2.6e-07   5.53275e+22
     2.61e-07   5.53563e+22
     2.62e-07    5.5385e+22
     2.63e-07   5.54138e+22
     2.64e-07   5.54426e+22
     2.65e-07   5.54713e+22
     2.66e-07   5.55001e+22
     2.67e-07   5.55289e+22
     2.68e-07   5.55577e+22
     2.69e-07   5.55865e+22
      2.7e-07   5.56153e+22
     2.71e-07    5.5644e+22
     2.72e-07   5.56728e+22
     2.73e-07   5.57016e+22
     2.74e-07   5.57304e+22
     2.75e-07   5.57592e+22
     2.76e-07    5.5788e+22
     2.77e-07   5.58168e+22
     2.78e-07   5.58456e+22
     2.79e-07   5.58744e+22
      2.8e-07   5.59032e+22
     2.81e-07    5.5932e+22
     2.82e-07   5.59608e+22
     2.83e-07   5.59896e+22
     2.84e-07   5.60184e+22
     2.85e-07   5.60472e+22
     2.86e-07    5.6076e+22
     2.87e-07   5.61048e+22
     2.88e-07   5.61336e+22
     2.89e-07   5.61623e+22
      2.9e-07   5.61911e+22
     2.91e-07   5.62199e+22
     2.92e-07   5.62487e+22
     2.93e-07   5.62774e+22
     2.94e-07   5.63062e+22
     2.95e-07    5.6335e+22
     2.96e-07   5.63637e+22
     2.97e-07   5.63925e+22
     2.98e-07   5.64212e+22
     2.99e-07     5.645e+22
        3e-07   5.64787e+22
     3.01e-07   5.65074e+22
     3.02e-07   5.65361e+22
     3.03e-07   5.65649e+22
     3.04e-07   5.65936e+22
     3.05e-07   5.66223e+22
     3.06e-07    5.6651e+22
     3.07e-07   5.66797e+22
     3.08e-07   5.67083e+22
     3.09e-07    5.6737e+22
      3.1e-07   5.67657e+22
     3.11e-07   5.67943e+22
     3.12e-07    5.6823e+22
     3.13e-07   5.68516e+22
     3.14e-07   5.68803e+22
     3.15e-07   5.69089e+22
     3.16e-07   5.69375e+22
     3.17e-07   5.69661e+22
     3.18e-07   5.69947e+22
     3.19e-07   5.70233e+22
      3.2e-07   5.70519e+22
     3.21e-07   5.70804e+22
     3.22e-07    5.7109e+22
     3.23e-07   5.71375e+22
     3.24e-07   5.71661e+22
     3.25e-07   5.71946e+22
     3.26e-07   5.72231e+22
     3.27e-07   5.72516e+22
     3.28e-07   5.72801e+22
     3.29e-07   5.73086e+22
      3.3e-07   5.73371e+22
     3.31e-07   5.73655e+22
     3.32e-07    5.7394e+22
     3.33e-07   5.74224e+22
     3.34e-07   5.74508e+22
     3.35e-07   5.74792e+22
     3.36e-07   5.75076e+22
     3.37e-07    5.7536e+22
     3.38e-07   5.75644e+22
     3.39e-07   5.75927e+22
      3.4e-07   5.76211e+22
     3.41e-07   5.76494e+22
     3.42e-07   5.76777e+22
     3.43e-07    5.7706e+22
     3.44e-07   5.77343e+22
     3.45e-07   5.77626e+22
     3.46e-07   5.77909e+22
     3.47e-07   5.78191e+22
     3.48e-07   5.78473e+22
     3.49e-07   5.78756e+22
      3.5e-07   5.79038e+22
     3.51e-07    5.7932e+22
     3.52e-07   5.79601e+22
     3.53e-07   5.79883e+22
     3.54e-07   5.80164e+22
     3.55e-07   5.80446e+22
     3.56e-07   5.80727e+22
     3.57e-07   5.81008e+22
     3.58e-07   5.81289e+22
     3.59e-07   5.81569e+22
      3.6e-07    5.8185e+22
     3.61e-07    5.8213e+22
     3.62e-07    5.8241e+22
     3.63e-07    5.8269e+22
     3.64e-07    5.8297e+22
     3.65e-07    5.8325e+22
     3.66e-07   5.83529e+22
     3.67e-07   5.83809e+22
     3.68e-07   5.84088e+22
     3.69e-07   5.84367e+22
      3.7e-07   5.84646e+22
     3.71e-07   5.84924e+22
     3.72e-07   5.85203e+22
     3.73e-07   5.85481e+22
     3.74e-07   5.85759e+22
     3.75e-07   5.86037e+22
     3.76e-07   5.86315e+22
     3.77e-07   5.86592e+22
     3.78e-07    5.8687e+22
     3.79e-07   5.87147e+22
      3.8e-07   5.87424e+22
     3.81e-07   5.87701e+22
     3.82e-07   5.87978e+22
     3.83e-07   5.88254e+22
     3.84e-07    5.8853e+22
     3.85e-07   5.88807e+22
     3.86e-07   5.89083e+22
     3.87e-07   5.89358e+22
     3.88e-07   5.89634e+22
     3.89e-07   5.89909e+22
      3.9e-07   5.90184e+22
     3.91e-07   5.90459e+22
     3.92e-07   5.90734e+22
     3.93e-07   5.91009e+22
     3.94e-07   5.91283e+22
     3.95e-07   5.91557e+22
     3.96e-07   5.91831e+22
     3.97e-07   5.92105e+22
     3.98e-07   5.92379e+22
     3.99e-07   5.92652e+22
        4e-07   5.92925e+22
     4.01e-07   5.93198e+22
     4.02e-07   5.93471e+22
     4.03e-07   5.93744e+22
     4.04e-07   5.94016e+22
     4.05e-07   5.94288e+22
     4.06e-07    5.9456e+22
     4.07e-07   5.94832e+22
     4.08e-07   5.95104e+22
     4.09e-07   5.95375e+22
      4.1e-07   5.95646e+22
     4.11e-07   5.95917e+22
     4.12e-07   5.96188e+22
     4.13e-07   5.96459e+22
     4.14e-07   5.96729e+22
     4.15e-07   5.96999e+22
     4.16e-07   5.97269e+22
     4.17e-07   5.97539e+22
     4.18e-07   5.97808e+22
     4.19e-07   5.98078e+22
      4.2e-07   5.98347e+22
     4.21e-07   5.98615e+22
     4.22e-07   5.98884e+22
     4.23e-07   5.99153e+22
     4.24e-07   5.99421e+22
     4.25e-07   5.99689e+22
     4.26e-07   5.99957e+22
     4.27e-07   6.00224e+22
     4.28e-07   6.00491e+22
     4.29e-07   6.00759e+22
      4.3e-07   6.01026e+22
     4.31e-07   6.01292e+22
     4.32e-07   6.01559e+22
     4.33e-07   6.01825e+22
     4.34e-07   6.02091e+22
     4.35e-07   6.02357e+22
     4.36e-07   6.02622e+22
     4.37e-07   6.02888e+22
     4.38e-07   6.03153e+22
     4.39e-07   6.03418e+22
      4.4e-07   6.03682e+22
     4.41e-07   6.03947e+22
     4.42e-07   6.04211e+22
     4.43e-07   6.04475e+22
     4.44e-07   6.04739e+22
     4.45e-07   6.05003e+22
     4.46e-07   6.05266e+22
     4.47e-07   6.05529e+22
     4.48e-07   6.05792e+22
     4.49e-07   6.06055e+22
      4.5e-07   6.06317e+22
     4.51e-07   6.06579e+22
     4.52e-07   6.06841e+22
     4.53e-07   6.07103e+22
     4.54e-07   6.07365e+22
     4.55e-07   6.07626e+22
     4.56e-07   6.07887e+22
     4.57e-07   6.08148e+22
     4.58e-07   6.08408e+22
     4.59e-07   6.08669e+22
      4.6e-07   6.08929e+22
     4.61e-07   6.09189e+22
     4.62e-07   6.09448e+22
     4.63e-07   6.09708e+22
     4.64e-07   6.09967e+22
     4.65e-07   6.10226e+22
     4.66e-07   6.10485e+22
     4.67e-07   6.10743e+22
     4.68e-07   6.11002e+22
     4.69e-07    6.1126e+22
      4.7e-07   6.11518e+22
     4.71e-07   6.11775e+22
     4.72e-07   6.12033e+22
     4.73e-07    6.1229e+22
     4.74e-07   6.12547e+22
     4.75e-07   6.12803e+22
     4.76e-07    6.1306e+22
     4.77e-07   6.13316e+22
     4.78e-07   6.13572e+22
     4.79e-07   6.13827e+22
      4.8e-07   6.14083e+22
     4.81e-07   6.14338e+22
     4.82e-07   6.14593e+22
     4.83e-07   6.14848e+22
     4.84e-07   6.15102e+22
     4.85e-07   6.15357e+22
     4.86e-07   6.15611e+22
     4.87e-07   6.15865e+22
     4.88e-07   6.16118e+22
     4.89e-07   6.16372e+22
      4.9e-07   6.16625e+22
     4.91e-07   6.16878e+22
     4.92e-07    6.1713e+22
     4.93e-07   6.17383e+22
     4.94e-07   6.17635e+22
     4.95e-07   6.17887e+22
     4.96e-07   6.18138e+22
     4.97e-07    6.1839e+22
     4.98e-07   6.18641e+22
     4.99e-07   6.18892e+22
        5e-07   6.19143e+22
     5.01e-07   6.19393e+22
     5.02e-07   6.19643e+22
     5.03e-07   6.19893e+22
     5.04e-07   6.20143e+22
     5.05e-07   6.20393e+22
     5.06e-07   6.20642e+22
     5.07e-07   6.20891e+22
     5.08e-07    6.2114e+22
     5.09e-07   6.21388e+22
      5.1e-07   6.21637e+22
     5.11e-07   6.21885e+22
     5.12e-07   6.22133e+22
     5.13e-07    6.2238e+22
     5.14e-07   6.22628e+22
     5.15e-07   6.22875e+22
     5.16e-07   6.23122e+22
     5.17e-07   6.23368e+22
     5.18e-07   6.23615e+22
     5.19e-07   6.23861e+22
      5.2e-07   6.24107e+22
     5.21e-07   6.24353e+22
     5.22e-07   6.24598e+22
     5.23e-07   6.24843e+22
     5.24e-07   6.25088e+22
     5.25e-07   6.25333e+22
     5.26e-07   6.25577e+22
     5.27e-07   6.25822e+22
     5.28e-07   6.26066e+22
     5.29e-07   6.26309e+22
      5.3e-07   6.26553e+22
     5.31e-07   6.26796e+22
     5.32e-07   6.27039e+22
     5.33e-07   6.27282e+22
     5.34e-07   6.27525e+22
     5.35e-07   6.27767e+22
     5.36e-07   6.28009e+22
     5.37e-07   6.28251e+22
     5.38e-07   6.28493e+22
     5.39e-07   6.28734e+22
      5.4e-07   6.28975e+22
     5.41e-07   6.29216e+22
     5.42e-07   6.29457e+22
     5.43e-07   6.29697e+22
     5.44e-07   6.29937e+22
     5.45e-07   6.30177e+22
     5.46e-07   6.30417e+22
     5.47e-07   6.30656e+22
     5.48e-07   6.30895e+22
     5.49e-07   6.31134e+22
      5.5e-07   6.31373e+22
     5.51e-07   6.31611e+22
     5.52e-07    6.3185e+22
     5.53e-07   6.32088e+22
     5.54e-07   6.32325e+22
     5.55e-07   6.32563e+22
     5.56e-07     6.328e+22
     5.57e-07   6.33037e+22
     5.58e-07   6.33274e+22
     5.59e-07   6.33511e+22
      5.6e-07   6.33747e+22
     5.61e-07   6.33983e+22
     5.62e-07   6.34219e+22
     5.63e-07   6.34454e+22
     5.64e-07    6.3469e+22
     5.65e-07   6.34925e+22
     5.66e-07    6.3516e+22
     5.67e-07   6.35394e+22
     5.68e-07   6.35629e+22
     5.69e-07   6.35863e+22
      5.7e-07   6.36097e+22
     5.71e-07   6.36331e+22
     5.72e-07   6.36564e+22
     5.73e-07   6.36797e+22
     5.74e-07    6.3703e+22
     5.75e-07   6.37263e+22
     5.76e-07   6.37496e+22
     5.77e-07   6.37728e+22
     5.78e-07    6.3796e+22
     5.79e-07   6.38192e+22
      5.8e-07   6.38423e+22
     5.81e-07   6.38654e+22
     5.82e-07   6.38885e+22
     5.83e-07   6.39116e+22
     5.84e-07   6.39347e+22
     5.85e-07   6.39577e+22
     5.86e-07   6.39807e+22
     5.87e-07   6.40037e+22
     5.88e-07   6.40267e+22
     5.89e-07   6.40496e+22
      5.9e-07   6.40726e+22
     5.91e-07   6.40954e+22
     5.92e-07   6.41183e+22
     5.93e-07   6.41412e+22
     5.94e-07    6.4164e+22
     5.95e-07   6.41868e+22
     5.96e-07   6.42096e+22
     5.97e-07   6.42323e+22
     5.98e-07    6.4255e+22
     5.99e-07   6.42777e+22
        6e-07   6.43004e+22
     6.01e-07   6.43231e+22
     6.02e-07   6.43457e+22
     6.03e-07   6.43683e+22
     6.04e-07   6.43909e+22
     6.05e-07   6.44135e+22
     6.06e-07    6.4436e+22
     6.07e-07   6.44585e+22
     6.08e-07    6.4481e+22
     6.09e-07   6.45035e+22
      6.1e-07    6.4526e+22
     6.11e-07   6.45484e+22
     6.12e-07   6.45708e+22
     6.13e-07   6.45932e+22
     6.14e-07   6.46155e+22
     6.15e-07   6.46378e+22
     6.16e-07   6.46602e+22
     6.17e-07   6.46824e+22
     6.18e-07   6.47047e+22
     6.19e-07   6.47269e+22
      6.2e-07   6.47492e+22
     6.21e-07   6.47713e+22
     6.22e-07   6.47935e+22
     6.23e-07   6.48157e+22
     6.24e-07   6.48378e+22
     6.25e-07   6.48599e+22
     6.26e-07    6.4882e+22
     6.27e-07    6.4904e+22
     6.28e-07    6.4926e+22
     6.29e-07    6.4948e+22
      6.3e-07     6.497e+22
     6.31e-07    6.4992e+22
     6.32e-07   6.50139e+22
     6.33e-07   6.50358e+22
     6.34e-07   6.50577e+22
     6.35e-07   6.50796e+22
     6.36e-07   6.51014e+22
     6.37e-07   6.51233e+22
     6.38e-07   6.51451e+22
     6.39e-07   6.51668e+22
      6.4e-07   6.51886e+22
     6.41e-07   6.52103e+22
     6.42e-07    6.5232e+22
     6.43e-07   6.52537e+22
     6.44e-07   6.52754e+22
     6.45e-07    6.5297e+22
     6.46e-07   6.53187e+22
     6.47e-07   6.53402e+22
     6.48e-07   6.53618e+22
     6.49e-07   6.53834e+22
      6.5e-07   6.54049e+22
     6.51e-07   6.54264e+22
     6.52e-07   6.54479e+22
     6.53e-07   6.54693e+22
     6.54e-07   6.54908e+22
     6.55e-07   6.55122e+22
     6.56e-07   6.55336e+22
     6.57e-07    6.5555e+22
     6.58e-07   6.55763e+22
     6.59e-07   6.55976e+22
      6.6e-07   6.56189e+22
     6.61e-07   6.56402e+22
     6.62e-07   6.56615e+22
     6.63e-07   6.56827e+22
     6.64e-07   6.57039e+22
     6.65e-07   6.57251e+22
     6.66e-07   6.57463e+22
     6.67e-07   6.57674e+22
     6.68e-07   6.57885e+22
     6.69e-07   6.58096e+22
      6.7e-07   6.58307e+22
     6.71e-07   6.58518e+22
     6.72e-07   6.58728e+22
     6.73e-07   6.58938e+22
     6.74e-07   6.59148e+22
     6.75e-07   6.59358e+22
     6.76e-07   6.59567e+22
     6.77e-07   6.59777e+22
     6.78e-07   6.59986e+22
     6.79e-07   6.60194e+22
      6.8e-07   6.60403e+22
     6.81e-07   6.60611e+22
     6.82e-07   6.60819e+22
     6.83e-07   6.61027e+22
     6.84e-07   6.61235e+22
     6.85e-07   6.61443e+22
     6.86e-07    6.6165e+22
     6.87e-07   6.61857e+22
     6.88e-07   6.62064e+22
     6.89e-07    6.6227e+22
      6.9e-07   6.62477e+22
     6.91e-07   6.62683e+22
     6.92e-07   6.62889e+22
     6.93e-07   6.63095e+22
     6.94e-07     6.633e+22
     6.95e-07   6.63505e+22
     6.96e-07   6.63711e+22
     6.97e-07   6.63915e+22
     6.98e-07    6.6412e+22
     6.99e-07   6.64325e+22
        7e-07   6.64529e+22
     7.01e-07   6.64733e+22
     7.02e-07   6.64937e+22
     7.03e-07    6.6514e+22
     7.04e-07   6.65344e+22
     7.05e-07   6.65547e+22
     7.06e-07    6.6575e+22
     7.07e-07   6.65952e+22
     7.08e-07   6.66155e+22
     7.09e-07   6.66357e+22
      7.1e-07   6.66559e+22
     7.11e-07   6.66761e+22
     7.12e-07   6.66963e+22
     7.13e-07   6.67164e+22
     7.14e-07   6.67365e+22
     7.15e-07   6.67567e+22
     7.16e-07   6.67767e+22
     7.17e-07   6.67968e+22
     7.18e-07   6.68168e+22
     7.19e-07   6.68369e+22
      7.2e-07   6.68568e+22
     7.21e-07   6.68768e+22
     7.22e-07   6.68968e+22
     7.23e-07   6.69167e+22
     7.24e-07   6.69366e+22
     7.25e-07   6.69565e+22
     7.26e-07   6.69764e+22
     7.27e-07   6.69962e+22
     7.28e-07   6.70161e+22
     7.29e-07   6.70359e+22
      7.3e-07   6.70557e+22
     7.31e-07   6.70754e+22
     7.32e-07   6.70952e+22
     7.33e-07   6.71149e+22
     7.34e-07   6.71346e+22
     7.35e-07   6.71543e+22
     7.36e-07    6.7174e+22
     7.37e-07   6.71936e+22
     7.38e-07   6.72132e+22
     7.39e-07   6.72328e+22
      7.4e-07   6.72524e+22
     7.41e-07    6.7272e+22
     7.42e-07   6.72915e+22
     7.43e-07    6.7311e+22
     7.44e-07   6.73305e+22
     7.45e-07     6.735e+22
     7.46e-07   6.73694e+22
     7.47e-07   6.73889e+22
     7.48e-07   6.74083e+22
     7.49e-07   6.74277e+22
      7.5e-07   6.74471e+22
     7.51e-07   6.74664e+22
     7.52e-07   6.74858e+22
     7.53e-07   6.75051e+22
     7.54e-07   6.75244e+22
     7.55e-07   6.75436e+22
     7.56e-07   6.75629e+22
     7.57e-07   6.75821e+22
     7.58e-07   6.76013e+22
     7.59e-07   6.76205e+22
      7.6e-07   6.76397e+22
     7.61e-07   6.76589e+22
     7.62e-07    6.7678e+22
     7.63e-07   6.76971e+22
     7.64e-07   6.77162e+22
     7.65e-07   6.77353e+22
     7.66e-07   6.77543e+22
     7.67e-07   6.77734e+22
     7.68e-07   6.77924e+22
     7.69e-07   6.78114e+22
      7.7e-07   6.78304e+22
     7.71e-07   6.78493e+22
     7.72e-07   6.78682e+22
     7.73e-07   6.78872e+22
     7.74e-07    6.7906e+22
     7.75e-07   6.79249e+22
     7.76e-07   6.79438e+22
     7.77e-07   6.79626e+22
     7.78e-07   6.79814e+22
     7.79e-07   6.80002e+22
      7.8e-07    6.8019e+22
     7.81e-07   6.80378e+22
     7.82e-07   6.80565e+22
     7.83e-07   6.80752e+22
     7.84e-07   6.80939e+22
     7.85e-07   6.81126e+22
     7.86e-07   6.81312e+22
     7.87e-07   6.81499e+22
     7.88e-07   6.81685e+22
     7.89e-07   6.81871e+22
      7.9e-07   6.82057e+22
     7.91e-07   6.82243e+22
     7.92e-07   6.82428e+22
     7.93e-07   6.82613e+22
     7.94e-07   6.82798e+22
     7.95e-07   6.82983e+22
     7.96e-07   6.83168e+22
     7.97e-07   6.83352e+22
     7.98e-07   6.83536e+22
     7.99e-07   6.83721e+22
        8e-07   6.83904e+22
     8.01e-07   6.84088e+22
     8.02e-07   6.84272e+22
     8.03e-07   6.84455e+22
     8.04e-07   6.84638e+22
     8.05e-07   6.84821e+22
     8.06e-07   6.85004e+22
     8.07e-07   6.85186e+22
     8.08e-07   6.85369e+22
     8.09e-07   6.85551e+22
      8.1e-07   6.85733e+22
     8.11e-07   6.85915e+22
     8.12e-07   6.86096e+22
     8.13e-07   6.86278e+22
     8.14e-07   6.86459e+22
     8.15e-07    6.8664e+22
     8.16e-07   6.86821e+22
     8.17e-07   6.87002e+22
     8.18e-07   6.87182e+22
     8.19e-07   6.87362e+22
      8.2e-07   6.87542e+22
     8.21e-07   6.87722e+22
     8.22e-07   6.87902e+22
     8.23e-07   6.88082e+22
     8.24e-07   6.88261e+22
     8.25e-07    6.8844e+22
     8.26e-07   6.88619e+22
     8.27e-07   6.88798e+22
     8.28e-07   6.88977e+22
     8.29e-07   6.89155e+22
      8.3e-07   6.89333e+22
     8.31e-07   6.89511e+22
     8.32e-07   6.89689e+22
     8.33e-07   6.89867e+22
     8.34e-07   6.90045e+22
     8.35e-07   6.90222e+22
     8.36e-07   6.90399e+22
     8.37e-07   6.90576e+22
     8.38e-07   6.90753e+22
     8.39e-07   6.90929e+22
      8.4e-07   6.91106e+22
     8.41e-07   6.91282e+22
     8.42e-07   6.91458e+22
     8.43e-07   6.91634e+22
     8.44e-07    6.9181e+22
     8.45e-07   6.91985e+22
     8.46e-07   6.92161e+22
     8.47e-07   6.92336e+22
     8.48e-07   6.92511e+22
     8.49e-07   6.92686e+22
      8.5e-07    6.9286e+22
     8.51e-07   6.93035e+22
     8.52e-07   6.93209e+22
     8.53e-07   6.93383e+22
     8.54e-07   6.93557e+22
     8.55e-07   6.93731e+22
     8.56e-07   6.93904e+22
     8.57e-07   6.94078e+22
     8.58e-07   6.94251e+22
     8.59e-07   6.94424e+22
      8.6e-07   6.94597e+22
     8.61e-07   6.94769e+22
     8.62e-07   6.94942e+22
     8.63e-07   6.95114e+22
     8.64e-07   6.95286e+22
     8.65e-07   6.95458e+22
     8.66e-07    6.9563e+22
     8.67e-07   6.95802e+22
     8.68e-07   6.95973e+22
     8.69e-07   6.96144e+22
      8.7e-07   6.96316e+22
     8.71e-07   6.96486e+22
     8.72e-07   6.96657e+22
     8.73e-07   6.96828e+22
     8.74e-07   6.96998e+22
     8.75e-07   6.97168e+22
     8.76e-07   6.97338e+22
     8.77e-07   6.97508e+22
     8.78e-07   6.97678e+22
     8.79e-07   6.97848e+22
      8.8e-07   6.98017e+22
     8.81e-07   6.98186e+22
     8.82e-07   6.98355e+22
     8.83e-07   6.98524e+22
     8.84e-07   6.98693e+22
     8.85e-07   6.98861e+22
     8.86e-07   6.99029e+22
     8.87e-07   6.99198e+22
     8.88e-07   6.99366e+22
     8.89e-07   6.99533e+22
      8.9e-07   6.99701e+22
     8.91e-07   6.99869e+22
     8.92e-07   7.00036e+22
     8.93e-07   7.00203e+22
     8.94e-07    7.0037e+22
     8.95e-07   7.00537e+22
     8.96e-07   7.00703e+22
     8.97e-07    7.0087e+22
     8.98e-07   7.01036e+22
     8.99e-07   7.01202e+22
        9e-07   7.01368e+22
     9.01e-07   7.01534e+22
     9.02e-07     7.017e+22
     9.03e-07   7.01865e+22
     9.04e-07    7.0203e+22
     9.05e-07   7.02196e+22
     9.06e-07    7.0236e+22
     9.07e-07   7.02525e+22
     9.08e-07    7.0269e+22
     9.09e-07   7.02854e+22
      9.1e-07   7.03019e+22
     9.11e-07   7.03183e+22
     9.12e-07   7.03347e+22
     9.13e-07   7.03511e+22
     9.14e-07   7.03674e+22
     9.15e-07   7.03838e+22
     9.16e-07   7.04001e+22
     9.17e-07   7.04164e+22
     9.18e-07   7.04327e+22
     9.19e-07    7.0449e+22
      9.2e-07   7.04653e+22
     9.21e-07   7.04815e+22
     9.22e-07   7.04977e+22
     9.23e-07    7.0514e+22
     9.24e-07   7.05302e+22
     9.25e-07   7.05463e+22
     9.26e-07   7.05625e+22
     9.27e-07   7.05787e+22
     9.28e-07   7.05948e+22
     9.29e-07   7.06109e+22
      9.3e-07    7.0627e+22
     9.31e-07   7.06431e+22
     9.32e-07   7.06592e+22
     9.33e-07   7.06752e+22
     9.34e-07   7.06913e+22
     9.35e-07   7.07073e+22
     9.36e-07   7.07233e+22
     9.37e-07   7.07393e+22
     9.38e-07   7.07553e+22
     9.39e-07   7.07712e+22
      9.4e-07   7.07872e+22
     9.41e-07   7.08031e+22
     9.42e-07    7.0819e+22
     9.43e-07   7.08349e+22
     9.44e-07   7.08508e+22
     9.45e-07   7.08666e+22
     9.46e-07   7.08825e+22
     9.47e-07   7.08983e+22
     9.48e-07   7.09141e+22
     9.49e-07   7.09299e+22
      9.5e-07   7.09457e+22
     9.51e-07   7.09615e+22
     9.52e-07   7.09773e+22
     9.53e-07    7.0993e+22
     9.54e-07   7.10087e+22
     9.55e-07   7.10244e+22
     9.56e-07   7.10401e+22
     9.57e-07   7.10558e+22
     9.58e-07   7.10715e+22
     9.59e-07   7.10871e+22
      9.6e-07   7.11027e+22
     9.61e-07   7.11184e+22
     9.62e-07    7.1134e+22
     9.63e-07   7.11495e+22
     9.64e-07   7.11651e+22
     9.65e-07   7.11807e+22
     9.66e-07   7.11962e+22
     9.67e-07   7.12117e+22
     9.68e-07   7.12272e+22
     9.69e-07   7.12427e+22
      9.7e-07   7.12582e+22
     9.71e-07   7.12737e+22
     9.72e-07   7.12891e+22
     9.73e-07   7.13045e+22
     9.74e-07     7.132e+22
     9.75e-07   7.13354e+22
     9.76e-07   7.13507e+22
     9.77e-07   7.13661e+22
     9.78e-07   7.13815e+22
     9.79e-07   7.13968e+22
      9.8e-07   7.14121e+22
     9.81e-07   7.14274e+22
     9.82e-07   7.14427e+22
     9.83e-07    7.1458e+22
     9.84e-07   7.14733e+22
     9.85e-07   7.14885e+22
     9.86e-07   7.15038e+22
     9.87e-07    7.1519e+22
     9.88e-07   7.15342e+22
     9.89e-07   7.15494e+22
      9.9e-07   7.15646e+22
     9.91e-07   7.15797e+22
     9.92e-07   7.15949e+22
     9.93e-07     7.161e+22
     9.94e-07   7.16251e+22
     9.95e-07   7.16402e+22
     9.96e-07   7.16553e+22
     9.97e-07   7.16704e+22
     9.98e-07   7.16855e+22
     9.99e-07   7.17005e+22
        1e-06   7.17155e+22
    1.001e-06   7.17305e+22
    1.002e-06   7.17455e+22
    1.003e-06   7.17605e+22
    1.004e-06   7.17755e+22
    1.005e-06   7.17905e+22
    1.006e-06   7.18054e+22
    1.007e-06   7.18203e+22
    1.008e-06   7.18352e+22
    1.009e-06   7.18501e+22
     1.01e-06    7.1865e+22
    1.011e-06   7.18799e+22
    1.012e-06   7.18948e+22
    1.013e-06   7.19096e+22
    1.014e-06   7.19244e+22
    1.015e-06   7.19392e+22
    1.016e-06    7.1954e+22
    1.017e-06   7.19688e+22
    1.018e-06   7.19836e+22
    1.019e-06   7.19983e+22
     1.02e-06   7.20131e+22
    1.021e-06   7.20278e+22
    1.022e-06   7.20425e+22
    1.023e-06   7.20572e+22
    1.024e-06   7.20719e+22
    1.025e-06   7.20866e+22
    1.026e-06   7.21012e+22
    1.027e-06   7.21159e+22
    1.028e-06   7.21305e+22
    1.029e-06   7.21451e+22
     1.03e-06   7.21597e+22
    1.031e-06   7.21743e+22
    1.032e-06   7.21889e+22
    1.033e-06   7.22034e+22
    1.034e-06    7.2218e+22
    1.035e-06   7.22325e+22
    1.036e-06    7.2247e+22
    1.037e-06   7.22615e+22
    1.038e-06    7.2276e+22
    1.039e-06   7.22905e+22
     1.04e-06    7.2305e+22
    1.041e-06   7.23194e+22
    1.042e-06   7.23338e+22
    1.043e-06   7.23483e+22
    1.044e-06   7.23627e+22
    1.045e-06   7.23771e+22
    1.046e-06   7.23914e+22
    1.047e-06   7.24058e+22
    1.048e-06   7.24202e+22
    1.049e-06   7.24345e+22
     1.05e-06   7.24488e+22
    1.051e-06   7.24631e+22
    1.052e-06   7.24774e+22
    1.053e-06   7.24917e+22
    1.054e-06    7.2506e+22
    1.055e-06   7.25202e+22
    1.056e-06   7.25345e+22
    1.057e-06   7.25487e+22
    1.058e-06   7.25629e+22
    1.059e-06   7.25771e+22
     1.06e-06   7.25913e+22
    1.061e-06   7.26055e+22
    1.062e-06   7.26197e+22
    1.063e-06   7.26338e+22
    1.064e-06   7.26479e+22
    1.065e-06   7.26621e+22
    1.066e-06   7.26762e+22
    1.067e-06   7.26903e+22
    1.068e-06   7.27043e+22