# Probe 0 (5e-06 5e-06 5e-06)
#       Probe             0
#        Time
        1e-09   4.99996e+22
        2e-09   4.99992e+22
        3e-09   4.99986e+22
        4e-09    4.9998e+22
        5e-09   4.99972e+22
        6e-09   4.99963e+22
        7e-09   4.99953e+22
        8e-09   4.99942e+22
        9e-09   4.99929e+22
        1e-08   4.99915e+22
      1.1e-08     4.999e+22
      1.2e-08   4.99884e+22
      1.3e-08   4.99867e+22
      1.4e-08   4.99848e+22
      1.5e-08   4.99828e+22
      1.6e-08   4.99807e+22
      1.7e-08   4.99785e+22
      1.8e-08   4.99761e+22
      1.9e-08   4.99736e+22
        2e-08    4.9971e+22
      2.1e-08   4.99683e+22
      2.2e-08   4.99655e+22
      2.3e-08   4.99625e+22
      2.4e-08   4.99594e+22
      2.5e-08   4.99562e+22
      2.6e-08   4.99529e+22
      2.7e-08   4.99495e+22
      2.8e-08   4.99459e+22
      2.9e-08   4.99422e+22
        3e-08   4.99384e+22
      3.1e-08   4.99345e+22
      3.2e-08   4.99305e+22
      3.3e-08   4.99263e+22
      3.4e-08   4.99221e+22
      3.5e-08   4.99177e+22
      3.6e-08   4.99132e+22
      3.7e-08   4.99086e+22
      3.8e-08   4.99039e+22
      3.9e-08   4.98991e+22
        4e-08   4.98941e+22
      4.1e-08   4.98891e+22
      4.2e-08   4.98839e+22
      4.3e-08   4.98787e+22
      4.4e-08   4.98733e+22
      4.5e-08   4.98678e+22
      4.6e-08   4.98622e+22
      4.7e-08   4.98565e+22
      4.8e-08   4.98507e+22
      4.9e-08   4.98448e+22
        5e-08   4.98388e+22
      5.1e-08   4.98327e+22
      5.2e-08   4.98265e+22
      5.3e-08   4.98202e+22
      5.4e-08   4.98138e+22
      5.5e-08   4.98073e+22
      5.6e-08   4.98007e+22
      5.7e-08    4.9794e+22
      5.8e-08   4.97872e+22
      5.9e-08   4.97803e+22
        6e-08   4.97733e+22
      6.1e-08   4.97662e+22
      6.2e-08   4.97591e+22
      6.3e-08   4.97518e+22
      6.4e-08   4.97444e+22
      6.5e-08    4.9737e+22
      6.6e-08   4.97294e+22
      6.7e-08   4.97218e+22
      6.8e-08   4.97141e+22
      6.9e-08   4.97063e+22
        7e-08   4.96984e+22
      7.1e-08   4.96904e+22
      7.2e-08   4.96824e+22
      7.3e-08   4.96742e+22
      7.4e-08    4.9666e+22
      7.5e-08   4.96577e+22
      7.6e-08   4.96493e+22
      7.7e-08   4.96408e+22
      7.8e-08   4.96322e+22
      7.9e-08   4.96236e+22
        8e-08   4.96149e+22
      8.1e-08   4.96061e+22
      8.2e-08   4.95972e+22
      8.3e-08   4.95883e+22
      8.4e-08   4.95793e+22
      8.5e-08   4.95702e+22
      8.6e-08    4.9561e+22
      8.7e-08   4.95518e+22
      8.8e-08   4.95424e+22
      8.9e-08   4.95331e+22
        9e-08   4.95236e+22
      9.1e-08   4.95141e+22
      9.2e-08   4.95045e+22
      9.3e-08   4.94948e+22
      9.4e-08   4.94851e+22
      9.5e-08   4.94753e+22
      9.6e-08   4.94654e+22
      9.7e-08   4.94554e+22
      9.8e-08   4.94454e+22
      9.9e-08   4.94354e+22
        1e-07   4.94252e+22
     1.01e-07   4.94151e+22
     1.02e-07   4.94048e+22
     1.03e-07   4.93945e+22
     1.04e-07   4.93841e+22
     1.05e-07   4.93737e+22
     1.06e-07   4.93631e+22
     1.07e-07   4.93526e+22
     1.08e-07    4.9342e+22
     1.09e-07   4.93313e+22
      1.1e-07   4.93206e+22
     1.11e-07   4.93098e+22
     1.12e-07   4.92989e+22
     1.13e-07    4.9288e+22
     1.14e-07    4.9277e+22
     1.15e-07    4.9266e+22
     1.16e-07    4.9255e+22
     1.17e-07   4.92438e+22
     1.18e-07   4.92327e+22
     1.19e-07   4.92214e+22
      1.2e-07   4.92102e+22
     1.21e-07   4.91988e+22
     1.22e-07   4.91875e+22
     1.23e-07    4.9176e+22
     1.24e-07   4.91646e+22
     1.25e-07    4.9153e+22
     1.26e-07   4.91415e+22
     1.27e-07   4.91298e+22
     1.28e-07   4.91182e+22
     1.29e-07   4.91065e+22
      1.3e-07   4.90947e+22
     1.31e-07   4.90829e+22
     1.32e-07   4.90711e+22
     1.33e-07   4.90592e+22
     1.34e-07   4.90472e+22
     1.35e-07   4.90353e+22
     1.36e-07   4.90232e+22
     1.37e-07   4.90112e+22
     1.38e-07   4.89991e+22
     1.39e-07   4.89869e+22
      1.4e-07   4.89747e+22
     1.41e-07   4.89625e+22
     1.42e-07   4.89503e+22
     1.43e-07   4.89379e+22
     1.44e-07   4.89256e+22
     1.45e-07   4.89132e+22
     1.46e-07   4.89008e+22
     1.47e-07   4.88884e+22
     1.48e-07   4.88759e+22
     1.49e-07   4.88633e+22
      1.5e-07   4.88508e+22
     1.51e-07   4.88382e+22
     1.52e-07   4.88255e+22
     1.53e-07   4.88129e+22
     1.54e-07   4.88002e+22
     1.55e-07   4.87874e+22
     1.56e-07   4.87747e+22
     1.57e-07   4.87619e+22
     1.58e-07   4.87491e+22
     1.59e-07   4.87362e+22
      1.6e-07   4.87233e+22
     1.61e-07   4.87104e+22
     1.62e-07   4.86974e+22
     1.63e-07   4.86844e+22
     1.64e-07   4.86714e+22
     1.65e-07   4.86584e+22
     1.66e-07   4.86453e+22
     1.67e-07   4.86322e+22
     1.68e-07   4.86191e+22
     1.69e-07   4.86059e+22
      1.7e-07   4.85927e+22
     1.71e-07   4.85795e+22
     1.72e-07   4.85663e+22
     1.73e-07    4.8553e+22
     1.74e-07   4.85397e+22
     1.75e-07   4.85264e+22
     1.76e-07   4.85131e+22
     1.77e-07   4.84997e+22
     1.78e-07   4.84864e+22
     1.79e-07   4.84729e+22
      1.8e-07   4.84595e+22
     1.81e-07   4.84461e+22
     1.82e-07   4.84326e+22
     1.83e-07   4.84191e+22
     1.84e-07   4.84056e+22
     1.85e-07    4.8392e+22
     1.86e-07   4.83785e+22
     1.87e-07   4.83649e+22
     1.88e-07   4.83513e+22
     1.89e-07   4.83376e+22
      1.9e-07    4.8324e+22
     1.91e-07   4.83103e+22
     1.92e-07   4.82966e+22
     1.93e-07   4.82829e+22
     1.94e-07   4.82692e+22
     1.95e-07   4.82555e+22
     1.96e-07   4.82417e+22
     1.97e-07   4.82279e+22
     1.98e-07   4.82141e+22
     1.99e-07   4.82003e+22
        2e-07   4.81865e+22
     2.01e-07   4.81727e+22
     2.02e-07   4.81588e+22
     2.03e-07   4.81449e+22
     2.04e-07    4.8131e+22
     2.05e-07   4.81171e+22
     2.06e-07   4.81032e+22
     2.07e-07   4.80893e+22
     2.08e-07   4.80753e+22
     2.09e-07   4.80613e+22
      2.1e-07   4.80474e+22
     2.11e-07   4.80334e+22
     2.12e-07   4.80194e+22
     2.13e-07   4.80054e+22
     2.14e-07   4.79913e+22
     2.15e-07   4.79773e+22
     2.16e-07   4.79632e+22
     2.17e-07   4.79491e+22
     2.18e-07   4.79351e+22
     2.19e-07    4.7921e+22
      2.2e-07   4.79069e+22
     2.21e-07   4.78928e+22
     2.22e-07   4.78786e+22
     2.23e-07   4.78645e+22
     2.24e-07   4.78503e+22
     2.25e-07   4.78362e+22
     2.26e-07    4.7822e+22
     2.27e-07   4.78078e+22
     2.28e-07   4.77937e+22
     2.29e-07   4.77795e+22
      2.3e-07   4.77653e+22
     2.31e-07    4.7751e+22
     2.32e-07   4.77368e+22
     2.33e-07   4.77226e+22
     2.34e-07   4.77084e+22
     2.35e-07   4.76941e+22
     2.36e-07   4.76799e+22
     2.37e-07   4.76656e+22
     2.38e-07   4.76513e+22
     2.39e-07   4.76371e+22
      2.4e-07   4.76228e+22
     2.41e-07   4.76085e+22
     2.42e-07   4.75942e+22
     2.43e-07   4.75799e+22
     2.44e-07   4.75656e+22
     2.45e-07   4.75513e+22
     2.46e-07    4.7537e+22
     2.47e-07   4.75226e+22
     2.48e-07   4.75083e+22
     2.49e-07    4.7494e+22
      2.5e-07   4.74796e+22
     2.51e-07   4.74653e+22
     2.52e-07    4.7451e+22
     2.53e-07   4.74366e+22
     2.54e-07   4.74223e+22
     2.55e-07   4.74079e+22
     2.56e-07   4.73935e+22
     2.57e-07   4.73792e+22
     2.58e-07   4.73648e+22
     2.59e-07   4.73504e+22
      2.6e-07   4.73361e+22
     2.61e-07   4.73217e+22
     2.62e-07   4.73073e+22
     2.63e-07   4.72929e+22
     2.64e-07   4.72785e+22
     2.65e-07   4.72641e+22
     2.66e-07   4.72498e+22
     2.67e-07   4.72354e+22
     2.68e-07    4.7221e+22
     2.69e-07   4.72066e+22
      2.7e-07   4.71922e+22
     2.71e-07   4.71778e+22
     2.72e-07   4.71634e+22
     2.73e-07    4.7149e+22
     2.74e-07   4.71346e+22
     2.75e-07   4.71202e+22
     2.76e-07   4.71058e+22
     2.77e-07   4.70914e+22
     2.78e-07    4.7077e+22
     2.79e-07   4.70626e+22
      2.8e-07   4.70482e+22
     2.81e-07   4.70338e+22
     2.82e-07   4.70194e+22
     2.83e-07    4.7005e+22
     2.84e-07   4.69906e+22
     2.85e-07   4.69762e+22
     2.86e-07   4.69618e+22
     2.87e-07   4.69474e+22
     2.88e-07    4.6933e+22
     2.89e-07   4.69186e+22
      2.9e-07   4.69043e+22
     2.91e-07   4.68899e+22
     2.92e-07   4.68755e+22
     2.93e-07   4.68611e+22
     2.94e-07   4.68467e+22
     2.95e-07   4.68323e+22
     2.96e-07    4.6818e+22
     2.97e-07   4.68036e+22
     2.98e-07   4.67892e+22
     2.99e-07   4.67748e+22
        3e-07   4.67605e+22
     3.01e-07   4.67461e+22
     3.02e-07   4.67317e+22
     3.03e-07   4.67174e+22
     3.04e-07    4.6703e+22
     3.05e-07   4.66887e+22
     3.06e-07   4.66743e+22
     3.07e-07     4.666e+22
     3.08e-07   4.66456e+22
     3.09e-07   4.66313e+22
      3.1e-07    4.6617e+22
     3.11e-07   4.66026e+22
     3.12e-07   4.65883e+22
     3.13e-07    4.6574e+22
     3.14e-07   4.65597e+22
     3.15e-07   4.65454e+22
     3.16e-07   4.65311e+22
     3.17e-07   4.65168e+22
     3.18e-07   4.65025e+22
     3.19e-07   4.64882e+22
      3.2e-07   4.64739e+22
     3.21e-07   4.64596e+22
     3.22e-07   4.64453e+22
     3.23e-07    4.6431e+22
     3.24e-07   4.64168e+22
     3.25e-07   4.64025e+22
     3.26e-07   4.63883e+22
     3.27e-07    4.6374e+22
     3.28e-07   4.63598e+22
     3.29e-07   4.63455e+22
      3.3e-07   4.63313e+22
     3.31e-07   4.63171e+22
     3.32e-07   4.63028e+22
     3.33e-07   4.62886e+22
     3.34e-07   4.62744e+22
     3.35e-07   4.62602e+22
     3.36e-07    4.6246e+22
     3.37e-07   4.62318e+22
     3.38e-07   4.62176e+22
     3.39e-07   4.62034e+22
      3.4e-07   4.61893e+22
     3.41e-07   4.61751e+22
     3.42e-07    4.6161e+22
     3.43e-07   4.61468e+22
     3.44e-07   4.61327e+22
     3.45e-07   4.61185e+22
     3.46e-07   4.61044e+22
     3.47e-07   4.60903e+22
     3.48e-07   4.60761e+22
     3.49e-07    4.6062e+22
      3.5e-07   4.60479e+22
     3.51e-07   4.60338e+22
     3.52e-07   4.60198e+22
     3.53e-07   4.60057e+22
     3.54e-07   4.59916e+22
     3.55e-07   4.59775e+22
     3.56e-07   4.59635e+22
     3.57e-07   4.59494e+22
     3.58e-07   4.59354e+22
     3.59e-07   4.59214e+22
      3.6e-07   4.59073e+22
     3.61e-07   4.58933e+22
     3.62e-07   4.58793e+22
     3.63e-07   4.58653e+22
     3.64e-07   4.58513e+22
     3.65e-07   4.58373e+22
     3.66e-07   4.58234e+22
     3.67e-07   4.58094e+22
     3.68e-07   4.57954e+22
     3.69e-07   4.57815e+22
      3.7e-07   4.57675e+22
     3.71e-07   4.57536e+22
     3.72e-07   4.57397e+22
     3.73e-07   4.57258e+22
     3.74e-07   4.57119e+22
     3.75e-07    4.5698e+22
     3.76e-07   4.56841e+22
     3.77e-07   4.56702e+22
     3.78e-07   4.56563e+22
     3.79e-07   4.56425e+22
      3.8e-07   4.56286e+22
     3.81e-07   4.56148e+22
     3.82e-07   4.56009e+22
     3.83e-07   4.55871e+22
     3.84e-07   4.55733e+22
     3.85e-07   4.55595e+22
     3.86e-07   4.55457e+22
     3.87e-07   4.55319e+22
     3.88e-07   4.55181e+22
     3.89e-07   4.55044e+22
      3.9e-07   4.54906e+22
     3.91e-07   4.54769e+22
     3.92e-07   4.54631e+22
     3.93e-07   4.54494e+22
     3.94e-07   4.54357e+22
     3.95e-07    4.5422e+22
     3.96e-07   4.54083e+22
     3.97e-07   4.53946e+22
     3.98e-07   4.53809e+22
     3.99e-07   4.53672e+22
        4e-07   4.53535e+22
     4.01e-07   4.53399e+22
     4.02e-07   4.53263e+22
     4.03e-07   4.53126e+22
     4.04e-07    4.5299e+22
     4.05e-07   4.52854e+22
     4.06e-07   4.52718e+22
     4.07e-07   4.52582e+22
     4.08e-07   4.52446e+22
     4.09e-07   4.52311e+22
      4.1e-07   4.52175e+22
     4.11e-07    4.5204e+22
     4.12e-07   4.51904e+22
     4.13e-07   4.51769e+22
     4.14e-07   4.51634e+22
     4.15e-07   4.51499e+22
     4.16e-07   4.51364e+22
     4.17e-07   4.51229e+22
     4.18e-07   4.51094e+22
     4.19e-07   4.50959e+22
      4.2e-07   4.50825e+22
     4.21e-07    4.5069e+22
     4.22e-07   4.50556e+22
     4.23e-07   4.50422e+22
     4.24e-07   4.50288e+22
     4.25e-07   4.50154e+22
     4.26e-07    4.5002e+22
     4.27e-07   4.49886e+22
     4.28e-07   4.49752e+22
     4.29e-07   4.49619e+22
      4.3e-07   4.49485e+22
     4.31e-07   4.49352e+22
     4.32e-07   4.49219e+22
     4.33e-07   4.49086e+22
     4.34e-07   4.48953e+22
     4.35e-07    4.4882e+22
     4.36e-07   4.48687e+22
     4.37e-07   4.48554e+22
     4.38e-07   4.48422e+22
     4.39e-07   4.48289e+22
      4.4e-07   4.48157e+22
     4.41e-07   4.48025e+22
     4.42e-07   4.47893e+22
     4.43e-07   4.47761e+22
     4.44e-07   4.47629e+22
     4.45e-07   4.47497e+22
     4.46e-07   4.47365e+22
     4.47e-07   4.47234e+22
     4.48e-07   4.47102e+22
     4.49e-07   4.46971e+22
      4.5e-07    4.4684e+22
     4.51e-07   4.46709e+22
     4.52e-07   4.46578e+22
     4.53e-07   4.46447e+22
     4.54e-07   4.46316e+22
     4.55e-07   4.46185e+22
     4.56e-07   4.46055e+22
     4.57e-07   4.45924e+22
     4.58e-07   4.45794e+22
     4.59e-07   4.45664e+22
      4.6e-07   4.45534e+22
     4.61e-07   4.45404e+22
     4.62e-07   4.45274e+22
     4.63e-07   4.45144e+22
     4.64e-07   4.45015e+22
     4.65e-07   4.44885e+22
     4.66e-07   4.44756e+22
     4.67e-07   4.44626e+22
     4.68e-07   4.44497e+22
     4.69e-07   4.44368e+22
      4.7e-07   4.44239e+22
     4.71e-07   4.44111e+22
     4.72e-07   4.43982e+22
     4.73e-07   4.43853e+22
     4.74e-07   4.43725e+22
     4.75e-07   4.43597e+22
     4.76e-07   4.43468e+22
     4.77e-07    4.4334e+22
     4.78e-07   4.43212e+22
     4.79e-07   4.43084e+22
      4.8e-07   4.42957e+22
     4.81e-07   4.42829e+22
     4.82e-07   4.42702e+22
     4.83e-07   4.42574e+22
     4.84e-07   4.42447e+22
     4.85e-07    4.4232e+22
     4.86e-07   4.42193e+22
     4.87e-07   4.42066e+22
     4.88e-07   4.41939e+22
     4.89e-07   4.41812e+22
      4.9e-07   4.41686e+22
     4.91e-07   4.41559e+22
     4.92e-07   4.41433e+22
     4.93e-07   4.41307e+22
     4.94e-07   4.41181e+22
     4.95e-07   4.41055e+22
     4.96e-07   4.40929e+22
     4.97e-07   4.40803e+22
     4.98e-07   4.40678e+22
     4.99e-07   4.40552e+22
        5e-07   4.40427e+22
     5.01e-07   4.40302e+22
     5.02e-07   4.40176e+22
     5.03e-07   4.40051e+22
     5.04e-07   4.39927e+22
     5.05e-07   4.39802e+22
     5.06e-07   4.39677e+22
     5.07e-07   4.39553e+22
     5.08e-07   4.39428e+22
     5.09e-07   4.39304e+22
      5.1e-07    4.3918e+22
     5.11e-07   4.39056e+22
     5.12e-07   4.38932e+22
     5.13e-07   4.38808e+22
     5.14e-07   4.38684e+22
     5.15e-07   4.38561e+22
     5.16e-07   4.38437e+22
     5.17e-07   4.38314e+22
     5.18e-07   4.38191e+22
     5.19e-07   4.38068e+22
      5.2e-07   4.37945e+22
     5.21e-07   4.37822e+22
     5.22e-07   4.37699e+22
     5.23e-07   4.37577e+22
     5.24e-07   4.37454e+22
     5.25e-07   4.37332e+22
     5.26e-07   4.37209e+22
     5.27e-07   4.37087e+22
     5.28e-07   4.36965e+22
     5.29e-07   4.36843e+22
      5.3e-07   4.36722e+22
     5.31e-07     4.366e+22
     5.32e-07   4.36479e+22
     5.33e-07   4.36357e+22
     5.34e-07   4.36236e+22
     5.35e-07   4.36115e+22
     5.36e-07   4.35994e+22
     5.37e-07   4.35873e+22
     5.38e-07   4.35752e+22
     5.39e-07   4.35631e+22
      5.4e-07   4.35511e+22
     5.41e-07    4.3539e+22
     5.42e-07    4.3527e+22
     5.43e-07    4.3515e+22
     5.44e-07    4.3503e+22
     5.45e-07    4.3491e+22
     5.46e-07    4.3479e+22
     5.47e-07    4.3467e+22
     5.48e-07   4.34551e+22
     5.49e-07   4.34431e+22
      5.5e-07   4.34312e+22
     5.51e-07   4.34192e+22
     5.52e-07   4.34073e+22
     5.53e-07   4.33954e+22
     5.54e-07   4.33835e+22
     5.55e-07   4.33717e+22
     5.56e-07   4.33598e+22
     5.57e-07    4.3348e+22
     5.58e-07   4.33361e+22
     5.59e-07   4.33243e+22
      5.6e-07   4.33125e+22
     5.61e-07   4.33007e+22
     5.62e-07   4.32889e+22
     5.63e-07   4.32771e+22
     5.64e-07   4.32653e+22
     5.65e-07   4.32536e+22
     5.66e-07   4.32418e+22
     5.67e-07   4.32301e+22
     5.68e-07   4.32184e+22
     5.69e-07   4.32067e+22
      5.7e-07    4.3195e+22
     5.71e-07   4.31833e+22
     5.72e-07   4.31716e+22
     5.73e-07     4.316e+22
     5.74e-07   4.31483e+22
     5.75e-07   4.31367e+22
     5.76e-07    4.3125e+22
     5.77e-07   4.31134e+22
     5.78e-07   4.31018e+22
     5.79e-07   4.30902e+22
      5.8e-07   4.30787e+22
     5.81e-07   4.30671e+22
     5.82e-07   4.30555e+22
     5.83e-07    4.3044e+22
     5.84e-07   4.30325e+22
     5.85e-07    4.3021e+22
     5.86e-07   4.30094e+22
     5.87e-07    4.2998e+22
     5.88e-07   4.29865e+22
     5.89e-07    4.2975e+22
      5.9e-07   4.29635e+22
     5.91e-07   4.29521e+22
     5.92e-07   4.29407e+22
     5.93e-07   4.29292e+22
     5.94e-07   4.29178e+22
     5.95e-07   4.29064e+22
     5.96e-07    4.2895e+22
     5.97e-07   4.28837e+22
     5.98e-07   4.28723e+22
     5.99e-07   4.28609e+22
        6e-07   4.28496e+22
     6.01e-07   4.28383e+22
     6.02e-07    4.2827e+22
     6.03e-07   4.28157e+22
     6.04e-07   4.28044e+22
     6.05e-07   4.27931e+22
     6.06e-07   4.27818e+22
     6.07e-07   4.27705e+22
     6.08e-07   4.27593e+22
     6.09e-07   4.27481e+22
      6.1e-07   4.27368e+22
     6.11e-07   4.27256e+22
     6.12e-07   4.27144e+22
     6.13e-07   4.27032e+22
     6.14e-07   4.26921e+22
     6.15e-07   4.26809e+22
     6.16e-07   4.26697e+22
     6.17e-07   4.26586e+22
     6.18e-07   4.26475e+22
     6.19e-07   4.26364e+22
      6.2e-07   4.26252e+22
     6.21e-07   4.26141e+22
     6.22e-07   4.26031e+22
     6.23e-07    4.2592e+22
     6.24e-07   4.25809e+22
     6.25e-07   4.25699e+22
     6.26e-07   4.25588e+22
     6.27e-07   4.25478e+22
     6.28e-07   4.25368e+22
     6.29e-07   4.25258e+22
      6.3e-07   4.25148e+22
     6.31e-07   4.25038e+22
     6.32e-07   4.24929e+22
     6.33e-07   4.24819e+22
     6.34e-07    4.2471e+22
     6.35e-07     4.246e+22
     6.36e-07   4.24491e+22
     6.37e-07   4.24382e+22
     6.38e-07   4.24273e+22
     6.39e-07   4.24164e+22
      6.4e-07   4.24055e+22
     6.41e-07   4.23947e+22
     6.42e-07   4.23838e+22
     6.43e-07    4.2373e+22
     6.44e-07   4.23621e+22
     6.45e-07   4.23513e+22
     6.46e-07   4.23405e+22
     6.47e-07   4.23297e+22
     6.48e-07   4.23189e+22
     6.49e-07   4.23081e+22
      6.5e-07   4.22974e+22
     6.51e-07   4.22866e+22
     6.52e-07   4.22759e+22
     6.53e-07   4.22651e+22
     6.54e-07   4.22544e+22
     6.55e-07   4.22437e+22
     6.56e-07    4.2233e+22
     6.57e-07   4.22223e+22
     6.58e-07   4.22117e+22
     6.59e-07    4.2201e+22
      6.6e-07   4.21904e+22
     6.61e-07   4.21797e+22
     6.62e-07   4.21691e+22
     6.63e-07   4.21585e+22
     6.64e-07   4.21479e+22
     6.65e-07   4.21373e+22
     6.66e-07   4.21267e+22
     6.67e-07   4.21161e+22
     6.68e-07   4.21055e+22
     6.69e-07    4.2095e+22
      6.7e-07   4.20845e+22
     6.71e-07   4.20739e+22
     6.72e-07   4.20634e+22
     6.73e-07   4.20529e+22
     6.74e-07   4.20424e+22
     6.75e-07   4.20319e+22
     6.76e-07   4.20215e+22
     6.77e-07    4.2011e+22
     6.78e-07   4.20005e+22
     6.79e-07   4.19901e+22
      6.8e-07   4.19797e+22
     6.81e-07   4.19693e+22
     6.82e-07   4.19588e+22
     6.83e-07   4.19484e+22
     6.84e-07   4.19381e+22
     6.85e-07   4.19277e+22
     6.86e-07   4.19173e+22
     6.87e-07    4.1907e+22
     6.88e-07   4.18966e+22
     6.89e-07   4.18863e+22
      6.9e-07    4.1876e+22
     6.91e-07   4.18657e+22
     6.92e-07   4.18554e+22
     6.93e-07   4.18451e+22
     6.94e-07   4.18348e+22
     6.95e-07   4.18245e+22
     6.96e-07   4.18143e+22
     6.97e-07    4.1804e+22
     6.98e-07   4.17938e+22
     6.99e-07   4.17836e+22
        7e-07   4.17734e+22
     7.01e-07   4.17632e+22
     7.02e-07    4.1753e+22
     7.03e-07   4.17428e+22
     7.04e-07   4.17326e+22
     7.05e-07   4.17225e+22
     7.06e-07   4.17123e+22
     7.07e-07   4.17022e+22
     7.08e-07   4.16921e+22
     7.09e-07    4.1682e+22
      7.1e-07   4.16719e+22
     7.11e-07   4.16618e+22
     7.12e-07   4.16517e+22
     7.13e-07   4.16416e+22
     7.14e-07   4.16315e+22
     7.15e-07   4.16215e+22
     7.16e-07   4.16115e+22
     7.17e-07   4.16014e+22
     7.18e-07   4.15914e+22
     7.19e-07   4.15814e+22
      7.2e-07   4.15714e+22
     7.21e-07   4.15614e+22
     7.22e-07   4.15514e+22
     7.23e-07   4.15415e+22
     7.24e-07   4.15315e+22
     7.25e-07   4.15216e+22
     7.26e-07   4.15116e+22
     7.27e-07   4.15017e+22
     7.28e-07   4.14918e+22
     7.29e-07   4.14819e+22
      7.3e-07    4.1472e+22
     7.31e-07   4.14621e+22
     7.32e-07   4.14522e+22
     7.33e-07   4.14424e+22
     7.34e-07   4.14325e+22
     7.35e-07   4.14227e+22
     7.36e-07   4.14128e+22
     7.37e-07    4.1403e+22
     7.38e-07   4.13932e+22
     7.39e-07   4.13834e+22
      7.4e-07   4.13736e+22
     7.41e-07   4.13638e+22
     7.42e-07   4.13541e+22
     7.43e-07   4.13443e+22
     7.44e-07   4.13346e+22
     7.45e-07   4.13248e+22
     7.46e-07   4.13151e+22
     7.47e-07   4.13054e+22
     7.48e-07   4.12957e+22
     7.49e-07    4.1286e+22
      7.5e-07   4.12763e+22
     7.51e-07   4.12666e+22
     7.52e-07   4.12569e+22
     7.53e-07   4.12473e+22
     7.54e-07   4.12376e+22
     7.55e-07    4.1228e+22
     7.56e-07   4.12184e+22
     7.57e-07   4.12088e+22
     7.58e-07   4.11991e+22
     7.59e-07   4.11895e+22
      7.6e-07     4.118e+22
     7.61e-07   4.11704e+22
     7.62e-07   4.11608e+22
     7.63e-07   4.11513e+22
     7.64e-07   4.11417e+22
     7.65e-07   4.11322e+22
     7.66e-07   4.11227e+22
     7.67e-07   4.11131e+22
     7.68e-07   4.11036e+22
     7.69e-07   4.10941e+22
      7.7e-07   4.10846e+22
     7.71e-07   4.10752e+22
     7.72e-07   4.10657e+22
     7.73e-07   4.10562e+22
     7.74e-07   4.10468e+22
     7.75e-07   4.10374e+22
     7.76e-07   4.10279e+22
     7.77e-07   4.10185e+22
     7.78e-07   4.10091e+22
     7.79e-07   4.09997e+22
      7.8e-07   4.09903e+22
     7.81e-07   4.09809e+22
     7.82e-07   4.09716e+22
     7.83e-07   4.09622e+22
     7.84e-07   4.09529e+22
     7.85e-07   4.09435e+22
     7.86e-07   4.09342e+22
     7.87e-07   4.09249e+22
     7.88e-07   4.09156e+22
     7.89e-07   4.09063e+22
      7.9e-07    4.0897e+22
     7.91e-07   4.08877e+22
     7.92e-07   4.08784e+22
     7.93e-07   4.08692e+22
     7.94e-07   4.08599e+22
     7.95e-07   4.08507e+22
     7.96e-07   4.08414e+22
     7.97e-07   4.08322e+22
     7.98e-07    4.0823e+22
     7.99e-07   4.08138e+22
        8e-07   4.08046e+22
     8.01e-07   4.07954e+22
     8.02e-07   4.07862e+22
     8.03e-07   4.07771e+22
     8.04e-07   4.07679e+22
     8.05e-07   4.07588e+22
     8.06e-07   4.07496e+22
     8.07e-07   4.07405e+22
     8.08e-07   4.07314e+22
     8.09e-07   4.07223e+22
      8.1e-07   4.07132e+22
     8.11e-07   4.07041e+22
     8.12e-07    4.0695e+22
     8.13e-07   4.06859e+22
     8.14e-07   4.06769e+22
     8.15e-07   4.06678e+22
     8.16e-07   4.06588e+22
     8.17e-07   4.06497e+22
     8.18e-07   4.06407e+22
     8.19e-07   4.06317e+22
      8.2e-07   4.06227e+22
     8.21e-07   4.06137e+22
     8.22e-07   4.06047e+22
     8.23e-07   4.05957e+22
     8.24e-07   4.05868e+22
     8.25e-07   4.05778e+22
     8.26e-07   4.05689e+22
     8.27e-07   4.05599e+22
     8.28e-07    4.0551e+22
     8.29e-07   4.05421e+22
      8.3e-07   4.05332e+22
     8.31e-07   4.05242e+22
     8.32e-07   4.05154e+22
     8.33e-07   4.05065e+22
     8.34e-07   4.04976e+22
     8.35e-07   4.04887e+22
     8.36e-07   4.04799e+22
     8.37e-07    4.0471e+22
     8.38e-07   4.04622e+22
     8.39e-07   4.04533e+22
      8.4e-07   4.04445e+22
     8.41e-07   4.04357e+22
     8.42e-07   4.04269e+22
     8.43e-07   4.04181e+22
     8.44e-07   4.04093e+22
     8.45e-07   4.04006e+22
     8.46e-07   4.03918e+22
     8.47e-07    4.0383e+22
     8.48e-07   4.03743e+22
     8.49e-07   4.03655e+22
      8.5e-07   4.03568e+22
     8.51e-07   4.03481e+22
     8.52e-07   4.03394e+22
     8.53e-07   4.03307e+22
     8.54e-07    4.0322e+22
     8.55e-07   4.03133e+22
     8.56e-07   4.03046e+22
     8.57e-07   4.02959e+22
     8.58e-07   4.02873e+22
     8.59e-07   4.02786e+22
      8.6e-07     4.027e+22
     8.61e-07   4.02613e+22
     8.62e-07   4.02527e+22
     8.63e-07   4.02441e+22
     8.64e-07   4.02355e+22
     8.65e-07   4.02269e+22
     8.66e-07   4.02183e+22
     8.67e-07   4.02097e+22
     8.68e-07   4.02012e+22
     8.69e-07   4.01926e+22
      8.7e-07    4.0184e+22
     8.71e-07   4.01755e+22
     8.72e-07    4.0167e+22
     8.73e-07   4.01584e+22
     8.74e-07   4.01499e+22
     8.75e-07   4.01414e+22
     8.76e-07   4.01329e+22
     8.77e-07   4.01244e+22
     8.78e-07   4.01159e+22
     8.79e-07   4.01074e+22
      8.8e-07    4.0099e+22
     8.81e-07   4.00905e+22
     8.82e-07   4.00821e+22
     8.83e-07   4.00736e+22
     8.84e-07   4.00652e+22
     8.85e-07   4.00568e+22
     8.86e-07   4.00483e+22
     8.87e-07   4.00399e+22
     8.88e-07   4.00315e+22
     8.89e-07   4.00231e+22
      8.9e-07   4.00148e+22
     8.91e-07   4.00064e+22
     8.92e-07    3.9998e+22
     8.93e-07   3.99897e+22
     8.94e-07   3.99813e+22
     8.95e-07    3.9973e+22
     8.96e-07   3.99647e+22
     8.97e-07   3.99563e+22
     8.98e-07    3.9948e+22
     8.99e-07   3.99397e+22
        9e-07   3.99314e+22
     9.01e-07   3.99231e+22
     9.02e-07   3.99148e+22
     9.03e-07   3.99066e+22
     9.04e-07   3.98983e+22
     9.05e-07     3.989e+22
     9.06e-07   3.98818e+22
     9.07e-07   3.98736e+22
     9.08e-07   3.98653e+22
     9.09e-07   3.98571e+22
      9.1e-07   3.98489e+22
     9.11e-07   3.98407e+22
     9.12e-07   3.98325e+22
     9.13e-07   3.98243e+22
     9.14e-07   3.98161e+22
     9.15e-07   3.98079e+22
     9.16e-07   3.97998e+22
     9.17e-07   3.97916e+22
     9.18e-07   3.97835e+22
     9.19e-07   3.97753e+22
      9.2e-07   3.97672e+22
     9.21e-07   3.97591e+22
     9.22e-07    3.9751e+22
     9.23e-07   3.97428e+22
     9.24e-07   3.97347e+22
     9.25e-07   3.97267e+22
     9.26e-07   3.97186e+22
     9.27e-07   3.97105e+22
     9.28e-07   3.97024e+22
     9.29e-07   3.96944e+22
      9.3e-07   3.96863e+22
     9.31e-07   3.96783e+22
     9.32e-07   3.96702e+22
     9.33e-07   3.96622e+22
     9.34e-07   3.96542e+22
     9.35e-07   3.96462e+22
     9.36e-07   3.96382e+22
     9.37e-07   3.96302e+22
     9.38e-07   3.96222e+22
     9.39e-07   3.96142e+22
      9.4e-07   3.96062e+22
     9.41e-07   3.95983e+22
     9.42e-07   3.95903e+22
     9.43e-07   3.95824e+22
     9.44e-07   3.95744e+22
     9.45e-07   3.95665e+22
     9.46e-07   3.95586e+22
     9.47e-07   3.95507e+22
     9.48e-07   3.95427e+22
     9.49e-07   3.95348e+22
      9.5e-07    3.9527e+22
     9.51e-07   3.95191e+22
     9.52e-07   3.95112e+22
     9.53e-07   3.95033e+22
     9.54e-07   3.94955e+22
     9.55e-07   3.94876e+22
     9.56e-07   3.94798e+22
     9.57e-07   3.94719e+22
     9.58e-07   3.94641e+22
     9.59e-07   3.94563e+22
      9.6e-07   3.94484e+22
     9.61e-07   3.94406e+22
     9.62e-07   3.94328e+22
     9.63e-07   3.94251e+22
     9.64e-07   3.94173e+22
     9.65e-07   3.94095e+22
     9.66e-07   3.94017e+22
     9.67e-07    3.9394e+22
     9.68e-07   3.93862e+22
     9.69e-07   3.93785e+22
      9.7e-07   3.93707e+22
     9.71e-07    3.9363e+22
     9.72e-07   3.93553e+22
     9.73e-07   3.93475e+22
     9.74e-07   3.93398e+22
     9.75e-07   3.93321e+22
     9.76e-07   3.93244e+22
     9.77e-07   3.93168e+22
     9.78e-07   3.93091e+22
     9.79e-07   3.93014e+22
      9.8e-07   3.92937e+22
     9.81e-07   3.92861e+22
     9.82e-07   3.92784e+22
     9.83e-07   3.92708e+22
     9.84e-07   3.92632e+22
     9.85e-07   3.92555e+22
     9.86e-07   3.92479e+22
     9.87e-07   3.92403e+22
     9.88e-07   3.92327e+22
     9.89e-07   3.92251e+22
      9.9e-07   3.92175e+22
     9.91e-07   3.92099e+22
     9.92e-07   3.92024e+22
     9.93e-07   3.91948e+22
     9.94e-07   3.91873e+22
     9.95e-07   3.91797e+22
     9.96e-07   3.91722e+22
     9.97e-07   3.91646e+22
     9.98e-07   3.91571e+22
     9.99e-07   3.91496e+22
        1e-06   3.91421e+22
    1.001e-06   3.91345e+22
    1.002e-06    3.9127e+22
    1.003e-06   3.91196e+22
    1.004e-06   3.91121e+22
    1.005e-06   3.91046e+22
    1.006e-06   3.90971e+22
    1.007e-06   3.90897e+22
    1.008e-06   3.90822e+22
    1.009e-06   3.90747e+22
     1.01e-06   3.90673e+22
    1.011e-06   3.90599e+22
    1.012e-06   3.90524e+22
    1.013e-06    3.9045e+22
    1.014e-06   3.90376e+22
    1.015e-06   3.90302e+22
    1.016e-06   3.90228e+22
    1.017e-06   3.90154e+22
    1.018e-06    3.9008e+22
    1.019e-06   3.90006e+22
     1.02e-06   3.89933e+22
    1.021e-06   3.89859e+22
    1.022e-06   3.89786e+22
    1.023e-06   3.89712e+22
    1.024e-06   3.89639e+22
    1.025e-06   3.89565e+22
    1.026e-06   3.89492e+22
    1.027e-06   3.89419e+22
    1.028e-06   3.89346e+22
    1.029e-06   3.89273e+22
     1.03e-06     3.892e+22
    1.031e-06   3.89127e+22
    1.032e-06   3.89054e+22
    1.033e-06   3.88981e+22
    1.034e-06   3.88908e+22
    1.035e-06   3.88836e+22
    1.036e-06   3.88763e+22
    1.037e-06    3.8869e+22
    1.038e-06   3.88618e+22
    1.039e-06   3.88546e+22
     1.04e-06   3.88473e+22
    1.041e-06   3.88401e+22
    1.042e-06   3.88329e+22
    1.043e-06   3.88257e+22
    1.044e-06   3.88185e+22
    1.045e-06   3.88113e+22
    1.046e-06   3.88041e+22
    1.047e-06   3.87969e+22
    1.048e-06   3.87897e+22
    1.049e-06   3.87826e+22
     1.05e-06   3.87754e+22
    1.051e-06   3.87683e+22
    1.052e-06   3.87611e+22
    1.053e-06    3.8754e+22
    1.054e-06   3.87468e+22
    1.055e-06   3.87397e+22
    1.056e-06   3.87326e+22
    1.057e-06   3.87255e+22
    1.058e-06   3.87184e+22
    1.059e-06   3.87113e+22
     1.06e-06   3.87042e+22
    1.061e-06   3.86971e+22
    1.062e-06     3.869e+22
    1.063e-06   3.86829e+22
    1.064e-06   3.86759e+22
    1.065e-06   3.86688e+22
    1.066e-06   3.86617e+22
    1.067e-06   3.86547e+22
    1.068e-06   3.86476e+22