# Probe 0 (5e-06 5e-06 5e-06)
#       Probe             0
#        Time
        1e-09   5.00005e+22
        2e-09   5.00014e+22
        3e-09   5.00026e+22
        4e-09   5.00041e+22
        5e-09    5.0006e+22
        6e-09   5.00081e+22
        7e-09   5.00106e+22
        8e-09   5.00134e+22
        9e-09   5.00166e+22
        1e-08     5.002e+22
      1.1e-08   5.00238e+22
      1.2e-08   5.00279e+22
      1.3e-08   5.00324e+22
      1.4e-08   5.00371e+22
      1.5e-08   5.00422e+22
      1.6e-08   5.00476e+22
      1.7e-08   5.00533e+22
      1.8e-08   5.00593e+22
      1.9e-08   5.00657e+22
        2e-08   5.00724e+22
      2.1e-08   5.00794e+22
      2.2e-08   5.00867e+22
      2.3e-08   5.00943e+22
      2.4e-08   5.01023e+22
      2.5e-08   5.01105e+22
      2.6e-08   5.01191e+22
      2.7e-08   5.01279e+22
      2.8e-08   5.01371e+22
      2.9e-08   5.01465e+22
        3e-08   5.01563e+22
      3.1e-08   5.01664e+22
      3.2e-08   5.01767e+22
      3.3e-08   5.01874e+22
      3.4e-08   5.01983e+22
      3.5e-08   5.02095e+22
      3.6e-08    5.0221e+22
      3.7e-08   5.02328e+22
      3.8e-08   5.02449e+22
      3.9e-08   5.02572e+22
        4e-08   5.02699e+22
      4.1e-08   5.02827e+22
      4.2e-08   5.02959e+22
      4.3e-08   5.03093e+22
      4.4e-08    5.0323e+22
      4.5e-08   5.03369e+22
      4.6e-08   5.03511e+22
      4.7e-08   5.03656e+22
      4.8e-08   5.03803e+22
      4.9e-08   5.03953e+22
        5e-08   5.04105e+22
      5.1e-08   5.04259e+22
      5.2e-08   5.04416e+22
      5.3e-08   5.04575e+22
      5.4e-08   5.04737e+22
      5.5e-08   5.04901e+22
      5.6e-08   5.05067e+22
      5.7e-08   5.05235e+22
      5.8e-08   5.05406e+22
      5.9e-08   5.05579e+22
        6e-08   5.05754e+22
      6.1e-08   5.05932e+22
      6.2e-08   5.06111e+22
      6.3e-08   5.06293e+22
      6.4e-08   5.06476e+22
      6.5e-08   5.06662e+22
      6.6e-08    5.0685e+22
      6.7e-08    5.0704e+22
      6.8e-08   5.07232e+22
      6.9e-08   5.07425e+22
        7e-08   5.07621e+22
      7.1e-08   5.07819e+22
      7.2e-08   5.08018e+22
      7.3e-08    5.0822e+22
      7.4e-08   5.08423e+22
      7.5e-08   5.08628e+22
      7.6e-08   5.08835e+22
      7.7e-08   5.09044e+22
      7.8e-08   5.09255e+22
      7.9e-08   5.09467e+22
        8e-08   5.09681e+22
      8.1e-08   5.09896e+22
      8.2e-08   5.10114e+22
      8.3e-08   5.10333e+22
      8.4e-08   5.10553e+22
      8.5e-08   5.10775e+22
      8.6e-08   5.10999e+22
      8.7e-08   5.11225e+22
      8.8e-08   5.11451e+22
      8.9e-08    5.1168e+22
        9e-08    5.1191e+22
      9.1e-08   5.12141e+22
      9.2e-08   5.12374e+22
      9.3e-08   5.12608e+22
      9.4e-08   5.12844e+22
      9.5e-08   5.13081e+22
      9.6e-08    5.1332e+22
      9.7e-08    5.1356e+22
      9.8e-08   5.13801e+22
      9.9e-08   5.14044e+22
        1e-07   5.14287e+22
     1.01e-07   5.14533e+22
     1.02e-07   5.14779e+22
     1.03e-07   5.15027e+22
     1.04e-07   5.15276e+22
     1.05e-07   5.15526e+22
     1.06e-07   5.15777e+22
     1.07e-07    5.1603e+22
     1.08e-07   5.16284e+22
     1.09e-07   5.16539e+22
      1.1e-07   5.16795e+22
     1.11e-07   5.17052e+22
     1.12e-07    5.1731e+22
     1.13e-07   5.17569e+22
     1.14e-07    5.1783e+22
     1.15e-07   5.18091e+22
     1.16e-07   5.18354e+22
     1.17e-07   5.18617e+22
     1.18e-07   5.18882e+22
     1.19e-07   5.19147e+22
      1.2e-07   5.19414e+22
     1.21e-07   5.19681e+22
     1.22e-07    5.1995e+22
     1.23e-07   5.20219e+22
     1.24e-07    5.2049e+22
     1.25e-07   5.20761e+22
     1.26e-07   5.21033e+22
     1.27e-07   5.21306e+22
     1.28e-07    5.2158e+22
     1.29e-07   5.21854e+22
      1.3e-07    5.2213e+22
     1.31e-07   5.22406e+22
     1.32e-07   5.22683e+22
     1.33e-07   5.22961e+22
     1.34e-07    5.2324e+22
     1.35e-07    5.2352e+22
     1.36e-07     5.238e+22
     1.37e-07   5.24081e+22
     1.38e-07   5.24363e+22
     1.39e-07   5.24645e+22
      1.4e-07   5.24929e+22
     1.41e-07   5.25212e+22
     1.42e-07   5.25497e+22
     1.43e-07   5.25782e+22
     1.44e-07   5.26068e+22
     1.45e-07   5.26355e+22
     1.46e-07   5.26642e+22
     1.47e-07    5.2693e+22
     1.48e-07   5.27219e+22
     1.49e-07   5.27508e+22
      1.5e-07   5.27797e+22
     1.51e-07   5.28088e+22
     1.52e-07   5.28378e+22
     1.53e-07    5.2867e+22
     1.54e-07   5.28962e+22
     1.55e-07   5.29254e+22
     1.56e-07   5.29547e+22
     1.57e-07   5.29841e+22
     1.58e-07   5.30135e+22
     1.59e-07    5.3043e+22
      1.6e-07   5.30725e+22
     1.61e-07    5.3102e+22
     1.62e-07   5.31317e+22
     1.63e-07   5.31613e+22
     1.64e-07    5.3191e+22
     1.65e-07   5.32207e+22
     1.66e-07   5.32505e+22
     1.67e-07   5.32804e+22
     1.68e-07   5.33102e+22
     1.69e-07   5.33402e+22
      1.7e-07   5.33701e+22
     1.71e-07   5.34001e+22
     1.72e-07   5.34301e+22
     1.73e-07   5.34602e+22
     1.74e-07   5.34903e+22
     1.75e-07   5.35205e+22
     1.76e-07   5.35506e+22
     1.77e-07   5.35808e+22
     1.78e-07   5.36111e+22
     1.79e-07   5.36414e+22
      1.8e-07   5.36717e+22
     1.81e-07    5.3702e+22
     1.82e-07   5.37324e+22
     1.83e-07   5.37628e+22
     1.84e-07   5.37932e+22
     1.85e-07   5.38237e+22
     1.86e-07   5.38542e+22
     1.87e-07   5.38847e+22
     1.88e-07   5.39153e+22
     1.89e-07   5.39458e+22
      1.9e-07   5.39764e+22
     1.91e-07    5.4007e+22
     1.92e-07   5.40377e+22
     1.93e-07   5.40683e+22
     1.94e-07    5.4099e+22
     1.95e-07   5.41297e+22
     1.96e-07   5.41605e+22
     1.97e-07   5.41912e+22
     1.98e-07    5.4222e+22
     1.99e-07   5.42528e+22
        2e-07   5.42836e+22
     2.01e-07   5.43144e+22
     2.02e-07   5.43452e+22
     2.03e-07   5.43761e+22
     2.04e-07    5.4407e+22
     2.05e-07   5.44378e+22
     2.06e-07   5.44687e+22
     2.07e-07   5.44997e+22
     2.08e-07   5.45306e+22
     2.09e-07   5.45615e+22
      2.1e-07   5.45925e+22
     2.11e-07   5.46235e+22
     2.12e-07   5.46544e+22
     2.13e-07   5.46854e+22
     2.14e-07   5.47164e+22
     2.15e-07   5.47474e+22
     2.16e-07   5.47784e+22
     2.17e-07   5.48095e+22
     2.18e-07   5.48405e+22
     2.19e-07   5.48716e+22
      2.2e-07   5.49026e+22
     2.21e-07   5.49337e+22
     2.22e-07   5.49647e+22
     2.23e-07   5.49958e+22
     2.24e-07   5.50269e+22
     2.25e-07   5.50579e+22
     2.26e-07    5.5089e+22
     2.27e-07   5.51201e+22
     2.28e-07   5.51512e+22
     2.29e-07   5.51823e+22
      2.3e-07   5.52134e+22
     2.31e-07   5.52445e+22
     2.32e-07   5.52756e+22
     2.33e-07   5.53067e+22
     2.34e-07   5.53378e+22
     2.35e-07   5.53689e+22
     2.36e-07      5.54e+22
     2.37e-07   5.54311e+22
     2.38e-07   5.54622e+22
     2.39e-07   5.54933e+22
      2.4e-07   5.55244e+22
     2.41e-07   5.55555e+22
     2.42e-07   5.55866e+22
     2.43e-07   5.56177e+22
     2.44e-07   5.56487e+22
     2.45e-07   5.56798e+22
     2.46e-07   5.57109e+22
     2.47e-07    5.5742e+22
     2.48e-07   5.57731e+22
     2.49e-07   5.58041e+22
      2.5e-07   5.58352e+22
     2.51e-07   5.58662e+22
     2.52e-07   5.58973e+22
     2.53e-07   5.59283e+22
     2.54e-07   5.59594e+22
     2.55e-07   5.59904e+22
     2.56e-07   5.60214e+22
     2.57e-07   5.60524e+22
     2.58e-07   5.60834e+22
     2.59e-07   5.61144e+22
      2.6e-07   5.61454e+22
     2.61e-07   5.61764e+22
     2.62e-07   5.62074e+22
     2.63e-07   5.62383e+22
     2.64e-07   5.62693e+22
     2.65e-07   5.63002e+22
     2.66e-07   5.63311e+22
     2.67e-07   5.63621e+22
     2.68e-07    5.6393e+22
     2.69e-07   5.64239e+22
      2.7e-07   5.64547e+22
     2.71e-07   5.64856e+22
     2.72e-07   5.65165e+22
     2.73e-07   5.65473e+22
     2.74e-07   5.65782e+22
     2.75e-07    5.6609e+22
     2.76e-07   5.66398e+22
     2.77e-07   5.66706e+22
     2.78e-07   5.67014e+22
     2.79e-07   5.67322e+22
      2.8e-07   5.67629e+22
     2.81e-07   5.67937e+22
     2.82e-07   5.68244e+22
     2.83e-07   5.68551e+22
     2.84e-07   5.68858e+22
     2.85e-07   5.69165e+22
     2.86e-07   5.69471e+22
     2.87e-07   5.69778e+22
     2.88e-07   5.70084e+22
     2.89e-07    5.7039e+22
      2.9e-07   5.70696e+22
     2.91e-07   5.71002e+22
     2.92e-07   5.71308e+22
     2.93e-07   5.71614e+22
     2.94e-07   5.71919e+22
     2.95e-07   5.72224e+22
     2.96e-07   5.72529e+22
     2.97e-07   5.72834e+22
     2.98e-07   5.73139e+22
     2.99e-07   5.73443e+22
        3e-07   5.73747e+22
     3.01e-07   5.74051e+22
     3.02e-07   5.74355e+22
     3.03e-07   5.74659e+22
     3.04e-07   5.74963e+22
     3.05e-07   5.75266e+22
     3.06e-07   5.75569e+22
     3.07e-07   5.75872e+22
     3.08e-07   5.76175e+22
     3.09e-07   5.76477e+22
      3.1e-07    5.7678e+22
     3.11e-07   5.77082e+22
     3.12e-07   5.77384e+22
     3.13e-07   5.77685e+22
     3.14e-07   5.77987e+22
     3.15e-07   5.78288e+22
     3.16e-07   5.78589e+22
     3.17e-07    5.7889e+22
     3.18e-07   5.79191e+22
     3.19e-07   5.79491e+22
      3.2e-07   5.79792e+22
     3.21e-07   5.80092e+22
     3.22e-07   5.80392e+22
     3.23e-07   5.80691e+22
     3.24e-07    5.8099e+22
     3.25e-07    5.8129e+22
     3.26e-07   5.81589e+22
     3.27e-07   5.81887e+22
     3.28e-07   5.82186e+22
     3.29e-07   5.82484e+22
      3.3e-07   5.82782e+22
     3.31e-07    5.8308e+22
     3.32e-07   5.83377e+22
     3.33e-07   5.83675e+22
     3.34e-07   5.83972e+22
     3.35e-07   5.84269e+22
     3.36e-07   5.84565e+22
     3.37e-07   5.84862e+22
     3.38e-07   5.85158e+22
     3.39e-07   5.85454e+22
      3.4e-07   5.85749e+22
     3.41e-07   5.86045e+22
     3.42e-07    5.8634e+22
     3.43e-07   5.86635e+22
     3.44e-07    5.8693e+22
     3.45e-07   5.87224e+22
     3.46e-07   5.87518e+22
     3.47e-07   5.87812e+22
     3.48e-07   5.88106e+22
     3.49e-07   5.88399e+22
      3.5e-07   5.88692e+22
     3.51e-07   5.88985e+22
     3.52e-07   5.89278e+22
     3.53e-07   5.89571e+22
     3.54e-07   5.89863e+22
     3.55e-07   5.90155e+22
     3.56e-07   5.90446e+22
     3.57e-07   5.90738e+22
     3.58e-07   5.91029e+22
     3.59e-07    5.9132e+22
      3.6e-07    5.9161e+22
     3.61e-07   5.91901e+22
     3.62e-07   5.92191e+22
     3.63e-07   5.92481e+22
     3.64e-07    5.9277e+22
     3.65e-07    5.9306e+22
     3.66e-07   5.93349e+22
     3.67e-07   5.93638e+22
     3.68e-07   5.93926e+22
     3.69e-07   5.94214e+22
      3.7e-07   5.94503e+22
     3.71e-07    5.9479e+22
     3.72e-07   5.95078e+22
     3.73e-07   5.95365e+22
     3.74e-07   5.95652e+22
     3.75e-07   5.95939e+22
     3.76e-07   5.96225e+22
     3.77e-07   5.96511e+22
     3.78e-07   5.96797e+22
     3.79e-07   5.97083e+22
      3.8e-07   5.97368e+22
     3.81e-07   5.97653e+22
     3.82e-07   5.97938e+22
     3.83e-07   5.98222e+22
     3.84e-07   5.98506e+22
     3.85e-07    5.9879e+22
     3.86e-07   5.99074e+22
     3.87e-07   5.99357e+22
     3.88e-07   5.99641e+22
     3.89e-07   5.99923e+22
      3.9e-07   6.00206e+22
     3.91e-07   6.00488e+22
     3.92e-07    6.0077e+22
     3.93e-07   6.01052e+22
     3.94e-07   6.01334e+22
     3.95e-07   6.01615e+22
     3.96e-07   6.01896e+22
     3.97e-07   6.02176e+22
     3.98e-07   6.02457e+22
     3.99e-07   6.02737e+22
        4e-07   6.03016e+22
     4.01e-07   6.03296e+22
     4.02e-07   6.03575e+22
     4.03e-07   6.03854e+22
     4.04e-07   6.04133e+22
     4.05e-07   6.04411e+22
     4.06e-07   6.04689e+22
     4.07e-07   6.04967e+22
     4.08e-07   6.05245e+22
     4.09e-07   6.05522e+22
      4.1e-07   6.05799e+22
     4.11e-07   6.06075e+22
     4.12e-07   6.06352e+22
     4.13e-07   6.06628e+22
     4.14e-07   6.06904e+22
     4.15e-07   6.07179e+22
     4.16e-07   6.07455e+22
     4.17e-07    6.0773e+22
     4.18e-07   6.08004e+22
     4.19e-07   6.08279e+22
      4.2e-07   6.08553e+22
     4.21e-07   6.08827e+22
     4.22e-07     6.091e+22
     4.23e-07   6.09373e+22
     4.24e-07   6.09646e+22
     4.25e-07   6.09919e+22
     4.26e-07   6.10191e+22
     4.27e-07   6.10463e+22
     4.28e-07   6.10735e+22
     4.29e-07   6.11007e+22
      4.3e-07   6.11278e+22
     4.31e-07   6.11549e+22
     4.32e-07    6.1182e+22
     4.33e-07    6.1209e+22
     4.34e-07    6.1236e+22
     4.35e-07    6.1263e+22
     4.36e-07   6.12899e+22
     4.37e-07   6.13169e+22
     4.38e-07   6.13438e+22
     4.39e-07   6.13706e+22
      4.4e-07   6.13975e+22
     4.41e-07   6.14243e+22
     4.42e-07    6.1451e+22
     4.43e-07   6.14778e+22
     4.44e-07   6.15045e+22
     4.45e-07   6.15312e+22
     4.46e-07   6.15579e+22
     4.47e-07   6.15845e+22
     4.48e-07   6.16111e+22
     4.49e-07   6.16377e+22
      4.5e-07   6.16642e+22
     4.51e-07   6.16907e+22
     4.52e-07   6.17172e+22
     4.53e-07   6.17437e+22
     4.54e-07   6.17701e+22
     4.55e-07   6.17965e+22
     4.56e-07   6.18229e+22
     4.57e-07   6.18492e+22
     4.58e-07   6.18755e+22
     4.59e-07   6.19018e+22
      4.6e-07   6.19281e+22
     4.61e-07   6.19543e+22
     4.62e-07   6.19805e+22
     4.63e-07   6.20067e+22
     4.64e-07   6.20328e+22
     4.65e-07   6.20589e+22
     4.66e-07    6.2085e+22
     4.67e-07   6.21111e+22
     4.68e-07   6.21371e+22
     4.69e-07   6.21631e+22
      4.7e-07   6.21891e+22
     4.71e-07    6.2215e+22
     4.72e-07   6.22409e+22
     4.73e-07   6.22668e+22
     4.74e-07   6.22927e+22
     4.75e-07   6.23185e+22
     4.76e-07   6.23443e+22
     4.77e-07   6.23701e+22
     4.78e-07   6.23958e+22
     4.79e-07   6.24215e+22
      4.8e-07   6.24472e+22
     4.81e-07   6.24728e+22
     4.82e-07   6.24985e+22
     4.83e-07    6.2524e+22
     4.84e-07   6.25496e+22
     4.85e-07   6.25751e+22
     4.86e-07   6.26007e+22
     4.87e-07   6.26261e+22
     4.88e-07   6.26516e+22
     4.89e-07    6.2677e+22
      4.9e-07   6.27024e+22
     4.91e-07   6.27278e+22
     4.92e-07   6.27531e+22
     4.93e-07   6.27784e+22
     4.94e-07   6.28037e+22
     4.95e-07   6.28289e+22
     4.96e-07   6.28542e+22
     4.97e-07   6.28794e+22
     4.98e-07   6.29045e+22
     4.99e-07   6.29297e+22
        5e-07   6.29548e+22
     5.01e-07   6.29798e+22
     5.02e-07   6.30049e+22
     5.03e-07   6.30299e+22
     5.04e-07   6.30549e+22
     5.05e-07   6.30799e+22
     5.06e-07   6.31048e+22
     5.07e-07   6.31297e+22
     5.08e-07   6.31546e+22
     5.09e-07   6.31794e+22
      5.1e-07   6.32043e+22
     5.11e-07   6.32291e+22
     5.12e-07   6.32538e+22
     5.13e-07   6.32786e+22
     5.14e-07   6.33033e+22
     5.15e-07    6.3328e+22
     5.16e-07   6.33526e+22
     5.17e-07   6.33772e+22
     5.18e-07   6.34018e+22
     5.19e-07   6.34264e+22
      5.2e-07    6.3451e+22
     5.21e-07   6.34755e+22
     5.22e-07      6.35e+22
     5.23e-07   6.35244e+22
     5.24e-07   6.35488e+22
     5.25e-07   6.35732e+22
     5.26e-07   6.35976e+22
     5.27e-07    6.3622e+22
     5.28e-07   6.36463e+22
     5.29e-07   6.36706e+22
      5.3e-07   6.36948e+22
     5.31e-07   6.37191e+22
     5.32e-07   6.37433e+22
     5.33e-07   6.37674e+22
     5.34e-07   6.37916e+22
     5.35e-07   6.38157e+22
     5.36e-07   6.38398e+22
     5.37e-07   6.38639e+22
     5.38e-07   6.38879e+22
     5.39e-07   6.39119e+22
      5.4e-07   6.39359e+22
     5.41e-07   6.39599e+22
     5.42e-07   6.39838e+22
     5.43e-07   6.40077e+22
     5.44e-07   6.40316e+22
     5.45e-07   6.40554e+22
     5.46e-07   6.40792e+22
     5.47e-07    6.4103e+22
     5.48e-07   6.41268e+22
     5.49e-07   6.41505e+22
      5.5e-07   6.41742e+22
     5.51e-07   6.41979e+22
     5.52e-07   6.42216e+22
     5.53e-07   6.42452e+22
     5.54e-07   6.42688e+22
     5.55e-07   6.42924e+22
     5.56e-07   6.43159e+22
     5.57e-07   6.43394e+22
     5.58e-07   6.43629e+22
     5.59e-07   6.43864e+22
      5.6e-07   6.44098e+22
     5.61e-07   6.44332e+22
     5.62e-07   6.44566e+22
     5.63e-07   6.44799e+22
     5.64e-07   6.45033e+22
     5.65e-07   6.45266e+22
     5.66e-07   6.45499e+22
     5.67e-07   6.45731e+22
     5.68e-07   6.45963e+22
     5.69e-07   6.46195e+22
      5.7e-07   6.46427e+22
     5.71e-07   6.46658e+22
     5.72e-07   6.46889e+22
     5.73e-07    6.4712e+22
     5.74e-07   6.47351e+22
     5.75e-07   6.47581e+22
     5.76e-07   6.47811e+22
     5.77e-07   6.48041e+22
     5.78e-07    6.4827e+22
     5.79e-07     6.485e+22
      5.8e-07   6.48729e+22
     5.81e-07   6.48957e+22
     5.82e-07   6.49186e+22
     5.83e-07   6.49414e+22
     5.84e-07   6.49642e+22
     5.85e-07    6.4987e+22
     5.86e-07   6.50097e+22
     5.87e-07   6.50324e+22
     5.88e-07   6.50551e+22
     5.89e-07   6.50778e+22
      5.9e-07   6.51004e+22
     5.91e-07    6.5123e+22
     5.92e-07   6.51456e+22
     5.93e-07   6.51681e+22
     5.94e-07   6.51907e+22
     5.95e-07   6.52132e+22
     5.96e-07   6.52357e+22
     5.97e-07   6.52581e+22
     5.98e-07   6.52805e+22
     5.99e-07   6.53029e+22
        6e-07   6.53253e+22
     6.01e-07   6.53477e+22
     6.02e-07     6.537e+22
     6.03e-07   6.53923e+22
     6.04e-07   6.54145e+22
     6.05e-07   6.54368e+22
     6.06e-07    6.5459e+22
     6.07e-07   6.54812e+22
     6.08e-07   6.55034e+22
     6.09e-07   6.55255e+22
      6.1e-07   6.55476e+22
     6.11e-07   6.55697e+22
     6.12e-07   6.55918e+22
     6.13e-07   6.56138e+22
     6.14e-07   6.56358e+22
     6.15e-07   6.56578e+22
     6.16e-07   6.56798e+22
     6.17e-07   6.57017e+22
     6.18e-07   6.57236e+22
     6.19e-07   6.57455e+22
      6.2e-07   6.57674e+22
     6.21e-07   6.57892e+22
     6.22e-07    6.5811e+22
     6.23e-07   6.58328e+22
     6.24e-07   6.58546e+22
     6.25e-07   6.58763e+22
     6.26e-07    6.5898e+22
     6.27e-07   6.59197e+22
     6.28e-07   6.59414e+22
     6.29e-07    6.5963e+22
      6.3e-07   6.59846e+22
     6.31e-07   6.60062e+22
     6.32e-07   6.60278e+22
     6.33e-07   6.60493e+22
     6.34e-07   6.60708e+22
     6.35e-07   6.60923e+22
     6.36e-07   6.61138e+22
     6.37e-07   6.61352e+22
     6.38e-07   6.61566e+22
     6.39e-07    6.6178e+22
      6.4e-07   6.61993e+22
     6.41e-07   6.62207e+22
     6.42e-07    6.6242e+22
     6.43e-07   6.62633e+22
     6.44e-07   6.62846e+22
     6.45e-07   6.63058e+22
     6.46e-07    6.6327e+22
     6.47e-07   6.63482e+22
     6.48e-07   6.63694e+22
     6.49e-07   6.63905e+22
      6.5e-07   6.64116e+22
     6.51e-07   6.64327e+22
     6.52e-07   6.64538e+22
     6.53e-07   6.64748e+22
     6.54e-07   6.64958e+22
     6.55e-07   6.65168e+22
     6.56e-07   6.65378e+22
     6.57e-07   6.65588e+22
     6.58e-07   6.65797e+22
     6.59e-07   6.66006e+22
      6.6e-07   6.66215e+22
     6.61e-07   6.66423e+22
     6.62e-07   6.66631e+22
     6.63e-07   6.66839e+22
     6.64e-07   6.67047e+22
     6.65e-07   6.67255e+22
     6.66e-07   6.67462e+22
     6.67e-07   6.67669e+22
     6.68e-07   6.67876e+22
     6.69e-07   6.68083e+22
      6.7e-07   6.68289e+22
     6.71e-07   6.68495e+22
     6.72e-07   6.68701e+22
     6.73e-07   6.68907e+22
     6.74e-07   6.69112e+22
     6.75e-07   6.69317e+22
     6.76e-07   6.69522e+22
     6.77e-07   6.69727e+22
     6.78e-07   6.69931e+22
     6.79e-07   6.70136e+22
      6.8e-07    6.7034e+22
     6.81e-07   6.70543e+22
     6.82e-07   6.70747e+22
     6.83e-07    6.7095e+22
     6.84e-07   6.71153e+22
     6.85e-07   6.71356e+22
     6.86e-07   6.71559e+22
     6.87e-07   6.71761e+22
     6.88e-07   6.71963e+22
     6.89e-07   6.72165e+22
      6.9e-07   6.72367e+22
     6.91e-07   6.72569e+22
     6.92e-07    6.7277e+22
     6.93e-07   6.72971e+22
     6.94e-07   6.73172e+22
     6.95e-07   6.73372e+22
     6.96e-07   6.73573e+22
     6.97e-07   6.73773e+22
     6.98e-07   6.73972e+22
     6.99e-07   6.74172e+22
        7e-07   6.74372e+22
     7.01e-07   6.74571e+22
     7.02e-07    6.7477e+22
     7.03e-07   6.74968e+22
     7.04e-07   6.75167e+22
     7.05e-07   6.75365e+22
     7.06e-07   6.75563e+22
     7.07e-07   6.75761e+22
     7.08e-07   6.75959e+22
     7.09e-07   6.76156e+22
      7.1e-07   6.76353e+22
     7.11e-07    6.7655e+22
     7.12e-07   6.76747e+22
     7.13e-07   6.76943e+22
     7.14e-07    6.7714e+22
     7.15e-07   6.77336e+22
     7.16e-07   6.77532e+22
     7.17e-07   6.77727e+22
     7.18e-07   6.77923e+22
     7.19e-07   6.78118e+22
      7.2e-07   6.78313e+22
     7.21e-07   6.78507e+22
     7.22e-07   6.78702e+22
     7.23e-07   6.78896e+22
     7.24e-07    6.7909e+22
     7.25e-07   6.79284e+22
     7.26e-07   6.79478e+22
     7.27e-07   6.79671e+22
     7.28e-07   6.79864e+22
     7.29e-07   6.80057e+22
      7.3e-07    6.8025e+22
     7.31e-07   6.80443e+22
     7.32e-07   6.80635e+22
     7.33e-07   6.80827e+22
     7.34e-07   6.81019e+22
     7.35e-07   6.81211e+22
     7.36e-07   6.81402e+22
     7.37e-07   6.81593e+22
     7.38e-07   6.81784e+22
     7.39e-07   6.81975e+22
      7.4e-07   6.82166e+22
     7.41e-07   6.82356e+22
     7.42e-07   6.82546e+22
     7.43e-07   6.82736e+22
     7.44e-07   6.82926e+22
     7.45e-07   6.83116e+22
     7.46e-07   6.83305e+22
     7.47e-07   6.83494e+22
     7.48e-07   6.83683e+22
     7.49e-07   6.83872e+22
      7.5e-07    6.8406e+22
     7.51e-07   6.84248e+22
     7.52e-07   6.84436e+22
     7.53e-07   6.84624e+22
     7.54e-07   6.84812e+22
     7.55e-07   6.84999e+22
     7.56e-07   6.85187e+22
     7.57e-07   6.85374e+22
     7.58e-07    6.8556e+22
     7.59e-07   6.85747e+22
      7.6e-07   6.85933e+22
     7.61e-07   6.86119e+22
     7.62e-07   6.86305e+22
     7.63e-07   6.86491e+22
     7.64e-07   6.86677e+22
     7.65e-07   6.86862e+22
     7.66e-07   6.87047e+22
     7.67e-07   6.87232e+22
     7.68e-07   6.87417e+22
     7.69e-07   6.87601e+22
      7.7e-07   6.87786e+22
     7.71e-07    6.8797e+22
     7.72e-07   6.88154e+22
     7.73e-07   6.88338e+22
     7.74e-07   6.88521e+22
     7.75e-07   6.88704e+22
     7.76e-07   6.88887e+22
     7.77e-07    6.8907e+22
     7.78e-07   6.89253e+22
     7.79e-07   6.89436e+22
      7.8e-07   6.89618e+22
     7.81e-07     6.898e+22
     7.82e-07   6.89982e+22
     7.83e-07   6.90164e+22
     7.84e-07   6.90345e+22
     7.85e-07   6.90526e+22
     7.86e-07   6.90707e+22
     7.87e-07   6.90888e+22
     7.88e-07   6.91069e+22
     7.89e-07   6.91249e+22
      7.9e-07    6.9143e+22
     7.91e-07    6.9161e+22
     7.92e-07    6.9179e+22
     7.93e-07   6.91969e+22
     7.94e-07   6.92149e+22
     7.95e-07   6.92328e+22
     7.96e-07   6.92507e+22
     7.97e-07   6.92686e+22
     7.98e-07   6.92865e+22
     7.99e-07   6.93044e+22
        8e-07   6.93222e+22
     8.01e-07     6.934e+22
     8.02e-07   6.93578e+22
     8.03e-07   6.93756e+22
     8.04e-07   6.93933e+22
     8.05e-07   6.94111e+22
     8.06e-07   6.94288e+22
     8.07e-07   6.94465e+22
     8.08e-07   6.94641e+22
     8.09e-07   6.94818e+22
      8.1e-07   6.94994e+22
     8.11e-07   6.95171e+22
     8.12e-07   6.95347e+22
     8.13e-07   6.95522e+22
     8.14e-07   6.95698e+22
     8.15e-07   6.95873e+22
     8.16e-07   6.96049e+22
     8.17e-07   6.96224e+22
     8.18e-07   6.96399e+22
     8.19e-07   6.96573e+22
      8.2e-07   6.96748e+22
     8.21e-07   6.96922e+22
     8.22e-07   6.97096e+22
     8.23e-07    6.9727e+22
     8.24e-07   6.97444e+22
     8.25e-07   6.97617e+22
     8.26e-07   6.97791e+22
     8.27e-07   6.97964e+22
     8.28e-07   6.98137e+22
     8.29e-07   6.98309e+22
      8.3e-07   6.98482e+22
     8.31e-07   6.98654e+22
     8.32e-07   6.98827e+22
     8.33e-07   6.98999e+22
     8.34e-07   6.99171e+22
     8.35e-07   6.99342e+22
     8.36e-07   6.99514e+22
     8.37e-07   6.99685e+22
     8.38e-07   6.99856e+22
     8.39e-07   7.00027e+22
      8.4e-07   7.00198e+22
     8.41e-07   7.00368e+22
     8.42e-07   7.00539e+22
     8.43e-07   7.00709e+22
     8.44e-07   7.00879e+22
     8.45e-07   7.01049e+22
     8.46e-07   7.01218e+22
     8.47e-07   7.01388e+22
     8.48e-07   7.01557e+22
     8.49e-07   7.01726e+22
      8.5e-07   7.01895e+22
     8.51e-07   7.02064e+22
     8.52e-07   7.02232e+22
     8.53e-07   7.02401e+22
     8.54e-07   7.02569e+22
     8.55e-07   7.02737e+22
     8.56e-07   7.02905e+22
     8.57e-07   7.03073e+22
     8.58e-07    7.0324e+22
     8.59e-07   7.03407e+22
      8.6e-07   7.03574e+22
     8.61e-07   7.03741e+22
     8.62e-07   7.03908e+22
     8.63e-07   7.04075e+22
     8.64e-07   7.04241e+22
     8.65e-07   7.04407e+22
     8.66e-07   7.04573e+22
     8.67e-07   7.04739e+22
     8.68e-07   7.04905e+22
     8.69e-07    7.0507e+22
      8.7e-07   7.05236e+22
     8.71e-07   7.05401e+22
     8.72e-07   7.05566e+22
     8.73e-07   7.05731e+22
     8.74e-07   7.05895e+22
     8.75e-07    7.0606e+22
     8.76e-07   7.06224e+22
     8.77e-07   7.06388e+22
     8.78e-07   7.06552e+22
     8.79e-07   7.06716e+22
      8.8e-07    7.0688e+22
     8.81e-07   7.07043e+22
     8.82e-07   7.07206e+22
     8.83e-07    7.0737e+22
     8.84e-07   7.07532e+22
     8.85e-07   7.07695e+22
     8.86e-07   7.07858e+22
     8.87e-07    7.0802e+22
     8.88e-07   7.08182e+22
     8.89e-07   7.08344e+22
      8.9e-07   7.08506e+22
     8.91e-07   7.08668e+22
     8.92e-07    7.0883e+22
     8.93e-07   7.08991e+22
     8.94e-07   7.09152e+22
     8.95e-07   7.09313e+22
     8.96e-07   7.09474e+22
     8.97e-07   7.09635e+22
     8.98e-07   7.09795e+22
     8.99e-07   7.09956e+22
        9e-07   7.10116e+22
     9.01e-07   7.10276e+22
     9.02e-07   7.10436e+22
     9.03e-07   7.10596e+22
     9.04e-07   7.10755e+22
     9.05e-07   7.10914e+22
     9.06e-07   7.11074e+22
     9.07e-07   7.11233e+22
     9.08e-07   7.11392e+22
     9.09e-07    7.1155e+22
      9.1e-07   7.11709e+22
     9.11e-07   7.11867e+22
     9.12e-07   7.12025e+22
     9.13e-07   7.12183e+22
     9.14e-07   7.12341e+22
     9.15e-07   7.12499e+22
     9.16e-07   7.12657e+22
     9.17e-07   7.12814e+22
     9.18e-07   7.12971e+22
     9.19e-07   7.13128e+22
      9.2e-07   7.13285e+22
     9.21e-07   7.13442e+22
     9.22e-07   7.13598e+22
     9.23e-07   7.13755e+22
     9.24e-07   7.13911e+22
     9.25e-07   7.14067e+22
     9.26e-07   7.14223e+22
     9.27e-07   7.14379e+22
     9.28e-07   7.14535e+22
     9.29e-07    7.1469e+22
      9.3e-07   7.14845e+22
     9.31e-07      7.15e+22
     9.32e-07   7.15155e+22
     9.33e-07    7.1531e+22
     9.34e-07   7.15465e+22
     9.35e-07   7.15619e+22
     9.36e-07   7.15774e+22
     9.37e-07   7.15928e+22
     9.38e-07   7.16082e+22
     9.39e-07   7.16236e+22
      9.4e-07   7.16389e+22
     9.41e-07   7.16543e+22
     9.42e-07   7.16696e+22
     9.43e-07    7.1685e+22
     9.44e-07   7.17003e+22
     9.45e-07   7.17156e+22
     9.46e-07   7.17308e+22
     9.47e-07   7.17461e+22
     9.48e-07   7.17613e+22
     9.49e-07   7.17766e+22
      9.5e-07   7.17918e+22
     9.51e-07    7.1807e+22
     9.52e-07   7.18222e+22
     9.53e-07   7.18373e+22
     9.54e-07   7.18525e+22
     9.55e-07   7.18676e+22
     9.56e-07   7.18827e+22
     9.57e-07   7.18978e+22
     9.58e-07   7.19129e+22
     9.59e-07    7.1928e+22
      9.6e-07   7.19431e+22
     9.61e-07   7.19581e+22
     9.62e-07   7.19731e+22
     9.63e-07   7.19881e+22
     9.64e-07   7.20031e+22
     9.65e-07   7.20181e+22
     9.66e-07   7.20331e+22
     9.67e-07    7.2048e+22
     9.68e-07    7.2063e+22
     9.69e-07   7.20779e+22
      9.7e-07   7.20928e+22
     9.71e-07   7.21077e+22
     9.72e-07   7.21226e+22
     9.73e-07   7.21374e+22
     9.74e-07   7.21523e+22
     9.75e-07   7.21671e+22
     9.76e-07   7.21819e+22
     9.77e-07   7.21967e+22
     9.78e-07   7.22115e+22
     9.79e-07   7.22263e+22
      9.8e-07   7.22411e+22
     9.81e-07   7.22558e+22
     9.82e-07   7.22705e+22
     9.83e-07   7.22852e+22
     9.84e-07   7.22999e+22
     9.85e-07   7.23146e+22
     9.86e-07   7.23293e+22
     9.87e-07    7.2344e+22
     9.88e-07   7.23586e+22
     9.89e-07   7.23732e+22
      9.9e-07   7.23878e+22
     9.91e-07   7.24024e+22
     9.92e-07    7.2417e+22
     9.93e-07   7.24316e+22
     9.94e-07   7.24461e+22
     9.95e-07   7.24607e+22
     9.96e-07   7.24752e+22
     9.97e-07   7.24897e+22
     9.98e-07   7.25042e+22
     9.99e-07   7.25187e+22
        1e-06   7.25331e+22
    1.001e-06   7.25476e+22
    1.002e-06    7.2562e+22
    1.003e-06   7.25764e+22
    1.004e-06   7.25909e+22
    1.005e-06   7.26052e+22
    1.006e-06   7.26196e+22
    1.007e-06    7.2634e+22
    1.008e-06   7.26483e+22
    1.009e-06   7.26627e+22
     1.01e-06    7.2677e+22
    1.011e-06   7.26913e+22
    1.012e-06   7.27056e+22
    1.013e-06   7.27199e+22
    1.014e-06   7.27342e+22
    1.015e-06   7.27484e+22
    1.016e-06   7.27626e+22
    1.017e-06   7.27769e+22
    1.018e-06   7.27911e+22
    1.019e-06   7.28053e+22
     1.02e-06   7.28195e+22
    1.021e-06   7.28336e+22
    1.022e-06   7.28478e+22
    1.023e-06   7.28619e+22
    1.024e-06    7.2876e+22
    1.025e-06   7.28902e+22
    1.026e-06   7.29043e+22
    1.027e-06   7.29183e+22
    1.028e-06   7.29324e+22
    1.029e-06   7.29465e+22
     1.03e-06   7.29605e+22
    1.031e-06   7.29745e+22
    1.032e-06   7.29886e+22
    1.033e-06   7.30026e+22
    1.034e-06   7.30165e+22
    1.035e-06   7.30305e+22
    1.036e-06   7.30445e+22
    1.037e-06   7.30584e+22
    1.038e-06   7.30724e+22
    1.039e-06   7.30863e+22
     1.04e-06   7.31002e+22
    1.041e-06   7.31141e+22
    1.042e-06    7.3128e+22
    1.043e-06   7.31418e+22
    1.044e-06   7.31557e+22
    1.045e-06   7.31695e+22
    1.046e-06   7.31834e+22
    1.047e-06   7.31972e+22
    1.048e-06    7.3211e+22
    1.049e-06   7.32248e+22
     1.05e-06   7.32385e+22
    1.051e-06   7.32523e+22
    1.052e-06    7.3266e+22
    1.053e-06   7.32798e+22
    1.054e-06   7.32935e+22
    1.055e-06   7.33072e+22
    1.056e-06   7.33209e+22
    1.057e-06   7.33346e+22
    1.058e-06   7.33482e+22
    1.059e-06   7.33619e+22
     1.06e-06   7.33755e+22
    1.061e-06   7.33891e+22
    1.062e-06   7.34028e+22
    1.063e-06   7.34164e+22
    1.064e-06   7.34299e+22
    1.065e-06   7.34435e+22
    1.066e-06   7.34571e+22
    1.067e-06   7.34706e+22
    1.068e-06   7.34842e+22