# Probe 0 (5e-06 5e-06 5e-06)
#       Probe             0
#        Time
        1e-09         41388
        2e-09       41356.6
        3e-09       41325.4
        4e-09       41294.2
        5e-09         41263
        6e-09         41232
        7e-09         41201
        8e-09       41170.1
        9e-09       41139.3
        1e-08       41108.5
      1.1e-08       41077.8
      1.2e-08       41047.1
      1.3e-08       41016.6
      1.4e-08       40986.1
      1.5e-08       40955.6
      1.6e-08       40925.3
      1.7e-08         40895
      1.8e-08       40864.8
      1.9e-08       40834.6
        2e-08       40804.5
      2.1e-08       40774.5
      2.2e-08       40744.5
      2.3e-08       40714.6
      2.4e-08       40684.8
      2.5e-08         40655
      2.6e-08       40625.3
      2.7e-08       40595.7
      2.8e-08       40566.1
      2.9e-08       40536.6
        3e-08       40507.2
      3.1e-08       40477.8
      3.2e-08       40448.5
      3.3e-08       40419.3
      3.4e-08       40390.1
      3.5e-08         40361
      3.6e-08       40331.9
      3.7e-08         40303
      3.8e-08         40274
      3.9e-08       40245.2
        4e-08       40216.4
      4.1e-08       40187.7
      4.2e-08         40159
      4.3e-08       40130.4
      4.4e-08       40101.9
      4.5e-08       40073.4
      4.6e-08       40045.1
      4.7e-08       40016.7
      4.8e-08       39988.5
      4.9e-08       39960.3
        5e-08       39932.1
      5.1e-08         39904
      5.2e-08         39876
      5.3e-08       39848.1
      5.4e-08       39820.2
      5.5e-08       39792.4
      5.6e-08       39764.7
      5.7e-08         39737
      5.8e-08       39709.4
      5.9e-08       39681.8
        6e-08       39654.3
      6.1e-08       39626.9
      6.2e-08       39599.6
      6.3e-08       39572.3
      6.4e-08         39545
      6.5e-08       39517.9
      6.6e-08       39490.8
      6.7e-08       39463.8
      6.8e-08       39436.8
      6.9e-08       39409.9
        7e-08       39383.1
      7.1e-08       39356.3
      7.2e-08       39329.6
      7.3e-08         39303
      7.4e-08       39276.4
      7.5e-08       39249.9
      7.6e-08       39223.4
      7.7e-08       39197.1
      7.8e-08       39170.8
      7.9e-08       39144.5
        8e-08       39118.3
      8.1e-08       39092.2
      8.2e-08       39066.2
      8.3e-08       39040.2
      8.4e-08       39014.3
      8.5e-08       38988.4
      8.6e-08       38962.6
      8.7e-08       38936.9
      8.8e-08       38911.2
      8.9e-08       38885.7
        9e-08       38860.1
      9.1e-08       38834.7
      9.2e-08       38809.3
      9.3e-08       38783.9
      9.4e-08       38758.7
      9.5e-08       38733.5
      9.6e-08       38708.3
      9.7e-08       38683.3
      9.8e-08       38658.2
      9.9e-08       38633.3
        1e-07       38608.4
     1.01e-07       38583.6
     1.02e-07       38558.9
     1.03e-07       38534.2
     1.04e-07       38509.6
     1.05e-07         38485
     1.06e-07       38460.5
     1.07e-07       38436.1
     1.08e-07       38411.7
     1.09e-07       38387.4
      1.1e-07       38363.2
     1.11e-07       38339.1
     1.12e-07         38315
     1.13e-07       38290.9
     1.14e-07       38266.9
     1.15e-07         38243
     1.16e-07       38219.2
     1.17e-07       38195.4
     1.18e-07       38171.7
     1.19e-07         38148
      1.2e-07       38124.5
     1.21e-07       38100.9
     1.22e-07       38077.5
     1.23e-07       38054.1
     1.24e-07       38030.7
     1.25e-07       38007.5
     1.26e-07       37984.3
     1.27e-07       37961.1
     1.28e-07         37938
     1.29e-07         37915
      1.3e-07       37892.1
     1.31e-07       37869.2
     1.32e-07       37846.4
     1.33e-07       37823.6
     1.34e-07       37800.9
     1.35e-07       37778.3
     1.36e-07       37755.7
     1.37e-07       37733.2
     1.38e-07       37710.7
     1.39e-07       37688.3
      1.4e-07         37666
     1.41e-07       37643.8
     1.42e-07       37621.6
     1.43e-07       37599.4
     1.44e-07       37577.3
     1.45e-07       37555.3
     1.46e-07       37533.4
     1.47e-07       37511.5
     1.48e-07       37489.7
     1.49e-07       37467.9
      1.5e-07       37446.2
     1.51e-07       37424.6
     1.52e-07         37403
     1.53e-07       37381.5
     1.54e-07         37360
     1.55e-07       37338.6
     1.56e-07       37317.3
     1.57e-07         37296
     1.58e-07       37274.8
     1.59e-07       37253.6
      1.6e-07       37232.5
     1.61e-07       37211.5
     1.62e-07       37190.5
     1.63e-07       37169.6
     1.64e-07       37148.8
     1.65e-07         37128
     1.66e-07       37107.2
     1.67e-07       37086.6
     1.68e-07       37065.9
     1.69e-07       37045.4
      1.7e-07       37024.9
     1.71e-07       37004.5
     1.72e-07       36984.1
     1.73e-07       36963.8
     1.74e-07       36943.5
     1.75e-07       36923.3
     1.76e-07       36903.2
     1.77e-07       36883.1
     1.78e-07       36863.1
     1.79e-07       36843.1
      1.8e-07       36823.2
     1.81e-07       36803.4
     1.82e-07       36783.6
     1.83e-07       36763.8
     1.84e-07       36744.2
     1.85e-07       36724.6
     1.86e-07         36705
     1.87e-07       36685.5
     1.88e-07       36666.1
     1.89e-07       36646.7
      1.9e-07       36627.3
     1.91e-07       36608.1
     1.92e-07       36588.8
     1.93e-07       36569.7
     1.94e-07       36550.6
     1.95e-07       36531.5
     1.96e-07       36512.6
     1.97e-07       36493.6
     1.98e-07       36474.7
     1.99e-07       36455.9
        2e-07       36437.2
     2.01e-07       36418.4
     2.02e-07       36399.8
     2.03e-07       36381.2
     2.04e-07       36362.6
     2.05e-07       36344.2
     2.06e-07       36325.7
     2.07e-07       36307.3
     2.08e-07         36289
     2.09e-07       36270.8
      2.1e-07       36252.5
     2.11e-07       36234.4
     2.12e-07       36216.3
     2.13e-07       36198.2
     2.14e-07       36180.2
     2.15e-07       36162.3
     2.16e-07       36144.4
     2.17e-07       36126.5
     2.18e-07       36108.8
     2.19e-07         36091
      2.2e-07       36073.3
     2.21e-07       36055.7
     2.22e-07       36038.1
     2.23e-07       36020.6
     2.24e-07       36003.2
     2.25e-07       35985.7
     2.26e-07       35968.4
     2.27e-07       35951.1
     2.28e-07       35933.8
     2.29e-07       35916.6
      2.3e-07       35899.4
     2.31e-07       35882.3
     2.32e-07       35865.3
     2.33e-07       35848.3
     2.34e-07       35831.3
     2.35e-07       35814.4
     2.36e-07       35797.6
     2.37e-07       35780.8
     2.38e-07         35764
     2.39e-07       35747.3
      2.4e-07       35730.7
     2.41e-07       35714.1
     2.42e-07       35697.5
     2.43e-07       35681.1
     2.44e-07       35664.6
     2.45e-07       35648.2
     2.46e-07       35631.9
     2.47e-07       35615.6
     2.48e-07       35599.3
     2.49e-07       35583.1
      2.5e-07       35566.9
     2.51e-07       35550.8
     2.52e-07       35534.8
     2.53e-07       35518.8
     2.54e-07       35502.8
     2.55e-07       35486.9
     2.56e-07         35471
     2.57e-07       35455.2
     2.58e-07       35439.5
     2.59e-07       35423.7
      2.6e-07       35408.1
     2.61e-07       35392.4
     2.62e-07       35376.9
     2.63e-07       35361.3
     2.64e-07       35345.8
     2.65e-07       35330.4
     2.66e-07         35315
     2.67e-07       35299.7
     2.68e-07       35284.4
     2.69e-07       35269.1
      2.7e-07       35253.9
     2.71e-07       35238.7
     2.72e-07       35223.6
     2.73e-07       35208.6
     2.74e-07       35193.5
     2.75e-07       35178.5
     2.76e-07       35163.6
     2.77e-07       35148.7
     2.78e-07       35133.9
     2.79e-07       35119.1
      2.8e-07       35104.3
     2.81e-07       35089.6
     2.82e-07       35074.9
     2.83e-07       35060.3
     2.84e-07       35045.7
     2.85e-07       35031.2
     2.86e-07       35016.7
     2.87e-07       35002.2
     2.88e-07       34987.8
     2.89e-07       34973.5
      2.9e-07       34959.2
     2.91e-07       34944.9
     2.92e-07       34930.6
     2.93e-07       34916.5
     2.94e-07       34902.3
     2.95e-07       34888.2
     2.96e-07       34874.1
     2.97e-07       34860.1
     2.98e-07       34846.1
     2.99e-07       34832.2
        3e-07       34818.3
     3.01e-07       34804.4
     3.02e-07       34790.6
     3.03e-07       34776.8
     3.04e-07       34763.1
     3.05e-07       34749.4
     3.06e-07       34735.8
     3.07e-07       34722.2
     3.08e-07       34708.6
     3.09e-07       34695.1
      3.1e-07       34681.6
     3.11e-07       34668.1
     3.12e-07       34654.7
     3.13e-07       34641.3
     3.14e-07         34628
     3.15e-07       34614.7
     3.16e-07       34601.5
     3.17e-07       34588.3
     3.18e-07       34575.1
     3.19e-07         34562
      3.2e-07       34548.9
     3.21e-07       34535.8
     3.22e-07       34522.8
     3.23e-07       34509.8
     3.24e-07       34496.9
     3.25e-07         34484
     3.26e-07       34471.1
     3.27e-07       34458.3
     3.28e-07       34445.5
     3.29e-07       34432.8
      3.3e-07         34420
     3.31e-07       34407.4
     3.32e-07       34394.7
     3.33e-07       34382.1
     3.34e-07       34369.6
     3.35e-07         34357
     3.36e-07       34344.5
     3.37e-07       34332.1
     3.38e-07       34319.7
     3.39e-07       34307.3
      3.4e-07         34295
     3.41e-07       34282.7
     3.42e-07       34270.4
     3.43e-07       34258.1
     3.44e-07       34245.9
     3.45e-07       34233.8
     3.46e-07       34221.7
     3.47e-07       34209.6
     3.48e-07       34197.5
     3.49e-07       34185.5
      3.5e-07       34173.5
     3.51e-07       34161.5
     3.52e-07       34149.6
     3.53e-07       34137.7
     3.54e-07       34125.9
     3.55e-07       34114.1
     3.56e-07       34102.3
     3.57e-07       34090.5
     3.58e-07       34078.8
     3.59e-07       34067.2
      3.6e-07       34055.5
     3.61e-07       34043.9
     3.62e-07       34032.3
     3.63e-07       34020.8
     3.64e-07       34009.3
     3.65e-07       33997.8
     3.66e-07       33986.3
     3.67e-07       33974.9
     3.68e-07       33963.6
     3.69e-07       33952.2
      3.7e-07       33940.9
     3.71e-07       33929.6
     3.72e-07       33918.4
     3.73e-07       33907.1
     3.74e-07         33896
     3.75e-07       33884.8
     3.76e-07       33873.7
     3.77e-07       33862.6
     3.78e-07       33851.5
     3.79e-07       33840.5
      3.8e-07       33829.5
     3.81e-07       33818.6
     3.82e-07       33807.6
     3.83e-07       33796.7
     3.84e-07       33785.9
     3.85e-07         33775
     3.86e-07       33764.2
     3.87e-07       33753.4
     3.88e-07       33742.7
     3.89e-07         33732
      3.9e-07       33721.3
     3.91e-07       33710.6
     3.92e-07         33700
     3.93e-07       33689.4
     3.94e-07       33678.8
     3.95e-07       33668.3
     3.96e-07       33657.8
     3.97e-07       33647.3
     3.98e-07       33636.9
     3.99e-07       33626.4
        4e-07         33616
     4.01e-07       33605.7
     4.02e-07       33595.3
     4.03e-07         33585
     4.04e-07       33574.8
     4.05e-07       33564.5
     4.06e-07       33554.3
     4.07e-07       33544.1
     4.08e-07       33533.9
     4.09e-07       33523.8
      4.1e-07       33513.7
     4.11e-07       33503.6
     4.12e-07       33493.6
     4.13e-07       33483.6
     4.14e-07       33473.6
     4.15e-07       33463.6
     4.16e-07       33453.7
     4.17e-07       33443.8
     4.18e-07       33433.9
     4.19e-07         33424
      4.2e-07       33414.2
     4.21e-07       33404.4
     4.22e-07       33394.6
     4.23e-07       33384.8
     4.24e-07       33375.1
     4.25e-07       33365.4
     4.26e-07       33355.8
     4.27e-07       33346.1
     4.28e-07       33336.5
     4.29e-07       33326.9
      4.3e-07       33317.3
     4.31e-07       33307.8
     4.32e-07       33298.3
     4.33e-07       33288.8
     4.34e-07       33279.3
     4.35e-07       33269.9
     4.36e-07       33260.5
     4.37e-07       33251.1
     4.38e-07       33241.7
     4.39e-07       33232.4
      4.4e-07       33223.1
     4.41e-07       33213.8
     4.42e-07       33204.6
     4.43e-07       33195.3
     4.44e-07       33186.1
     4.45e-07       33176.9
     4.46e-07       33167.8
     4.47e-07       33158.6
     4.48e-07       33149.5
     4.49e-07       33140.4
      4.5e-07       33131.4
     4.51e-07       33122.3
     4.52e-07       33113.3
     4.53e-07       33104.3
     4.54e-07       33095.3
     4.55e-07       33086.4
     4.56e-07       33077.5
     4.57e-07       33068.6
     4.58e-07       33059.7
     4.59e-07       33050.8
      4.6e-07         33042
     4.61e-07       33033.2
     4.62e-07       33024.4
     4.63e-07       33015.7
     4.64e-07       33006.9
     4.65e-07       32998.2
     4.66e-07       32989.5
     4.67e-07       32980.9
     4.68e-07       32972.2
     4.69e-07       32963.6
      4.7e-07         32955
     4.71e-07       32946.4
     4.72e-07       32937.9
     4.73e-07       32929.3
     4.74e-07       32920.8
     4.75e-07       32912.3
     4.76e-07       32903.9
     4.77e-07       32895.4
     4.78e-07         32887
     4.79e-07       32878.6
      4.8e-07       32870.2
     4.81e-07       32861.9
     4.82e-07       32853.5
     4.83e-07       32845.2
     4.84e-07       32836.9
     4.85e-07       32828.6
     4.86e-07       32820.4
     4.87e-07       32812.1
     4.88e-07       32803.9
     4.89e-07       32795.7
      4.9e-07       32787.6
     4.91e-07       32779.4
     4.92e-07       32771.3
     4.93e-07       32763.2
     4.94e-07       32755.1
     4.95e-07         32747
     4.96e-07         32739
     4.97e-07         32731
     4.98e-07         32723
     4.99e-07         32715
        5e-07         32707
     5.01e-07       32699.1
     5.02e-07       32691.1
     5.03e-07       32683.2
     5.04e-07       32675.3
     5.05e-07       32667.5
     5.06e-07       32659.6
     5.07e-07       32651.8
     5.08e-07         32644
     5.09e-07       32636.2
      5.1e-07       32628.4
     5.11e-07       32620.7
     5.12e-07       32612.9
     5.13e-07       32605.2
     5.14e-07       32597.5
     5.15e-07       32589.9
     5.16e-07       32582.2
     5.17e-07       32574.6
     5.18e-07         32567
     5.19e-07       32559.4
      5.2e-07       32551.8
     5.21e-07       32544.2
     5.22e-07       32536.7
     5.23e-07       32529.1
     5.24e-07       32521.6
     5.25e-07       32514.1
     5.26e-07       32506.7
     5.27e-07       32499.2
     5.28e-07       32491.8
     5.29e-07       32484.4
      5.3e-07         32477
     5.31e-07       32469.6
     5.32e-07       32462.2
     5.33e-07       32454.9
     5.34e-07       32447.5
     5.35e-07       32440.2
     5.36e-07       32432.9
     5.37e-07       32425.7
     5.38e-07       32418.4
     5.39e-07       32411.2
      5.4e-07       32403.9
     5.41e-07       32396.7
     5.42e-07       32389.5
     5.43e-07       32382.4
     5.44e-07       32375.2
     5.45e-07       32368.1
     5.46e-07       32360.9
     5.47e-07       32353.8
     5.48e-07       32346.7
     5.49e-07       32339.7
      5.5e-07       32332.6
     5.51e-07       32325.6
     5.52e-07       32318.6
     5.53e-07       32311.6
     5.54e-07       32304.6
     5.55e-07       32297.6
     5.56e-07       32290.6
     5.57e-07       32283.7
     5.58e-07       32276.8
     5.59e-07       32269.9
      5.6e-07         32263
     5.61e-07       32256.1
     5.62e-07       32249.2
     5.63e-07       32242.4
     5.64e-07       32235.5
     5.65e-07       32228.7
     5.66e-07       32221.9
     5.67e-07       32215.2
     5.68e-07       32208.4
     5.69e-07       32201.6
      5.7e-07       32194.9
     5.71e-07       32188.2
     5.72e-07       32181.5
     5.73e-07       32174.8
     5.74e-07       32168.1
     5.75e-07       32161.4
     5.76e-07       32154.8
     5.77e-07       32148.2
     5.78e-07       32141.6
     5.79e-07       32134.9
      5.8e-07       32128.4
     5.81e-07       32121.8
     5.82e-07       32115.2
     5.83e-07       32108.7
     5.84e-07       32102.2
     5.85e-07       32095.7
     5.86e-07       32089.2
     5.87e-07       32082.7
     5.88e-07       32076.2
     5.89e-07       32069.8
      5.9e-07       32063.3
     5.91e-07       32056.9
     5.92e-07       32050.5
     5.93e-07       32044.1
     5.94e-07       32037.7
     5.95e-07       32031.3
     5.96e-07         32025
     5.97e-07       32018.6
     5.98e-07       32012.3
     5.99e-07         32006
        6e-07       31999.7
     6.01e-07       31993.4
     6.02e-07       31987.1
     6.03e-07       31980.9
     6.04e-07       31974.6
     6.05e-07       31968.4
     6.06e-07       31962.2
     6.07e-07         31956
     6.08e-07       31949.8
     6.09e-07       31943.6
      6.1e-07       31937.4
     6.11e-07       31931.3
     6.12e-07       31925.1
     6.13e-07         31919
     6.14e-07       31912.9
     6.15e-07       31906.8
     6.16e-07       31900.7
     6.17e-07       31894.7
     6.18e-07       31888.6
     6.19e-07       31882.5
      6.2e-07       31876.5
     6.21e-07       31870.5
     6.22e-07       31864.5
     6.23e-07       31858.5
     6.24e-07       31852.5
     6.25e-07       31846.5
     6.26e-07       31840.6
     6.27e-07       31834.6
     6.28e-07       31828.7
     6.29e-07       31822.8
      6.3e-07       31816.9
     6.31e-07         31811
     6.32e-07       31805.1
     6.33e-07       31799.2
     6.34e-07       31793.4
     6.35e-07       31787.5
     6.36e-07       31781.7
     6.37e-07       31775.9
     6.38e-07       31770.1
     6.39e-07       31764.3
      6.4e-07       31758.5
     6.41e-07       31752.7
     6.42e-07       31746.9
     6.43e-07       31741.2
     6.44e-07       31735.4
     6.45e-07       31729.7
     6.46e-07         31724
     6.47e-07       31718.3
     6.48e-07       31712.6
     6.49e-07       31706.9
      6.5e-07       31701.2
     6.51e-07       31695.6
     6.52e-07       31689.9
     6.53e-07       31684.3
     6.54e-07       31678.7
     6.55e-07       31673.1
     6.56e-07       31667.5
     6.57e-07       31661.9
     6.58e-07       31656.3
     6.59e-07       31650.7
      6.6e-07       31645.2
     6.61e-07       31639.6
     6.62e-07       31634.1
     6.63e-07       31628.6
     6.64e-07       31623.1
     6.65e-07       31617.6
     6.66e-07       31612.1
     6.67e-07       31606.6
     6.68e-07       31601.1
     6.69e-07       31595.7
      6.7e-07       31590.2
     6.71e-07       31584.8
     6.72e-07       31579.4
     6.73e-07         31574
     6.74e-07       31568.5
     6.75e-07       31563.2
     6.76e-07       31557.8
     6.77e-07       31552.4
     6.78e-07         31547
     6.79e-07       31541.7
      6.8e-07       31536.3
     6.81e-07         31531
     6.82e-07       31525.7
     6.83e-07       31520.4
     6.84e-07       31515.1
     6.85e-07       31509.8
     6.86e-07       31504.5
     6.87e-07       31499.2
     6.88e-07         31494
     6.89e-07       31488.7
      6.9e-07       31483.5
     6.91e-07       31478.3
     6.92e-07       31473.1
     6.93e-07       31467.8
     6.94e-07       31462.6
     6.95e-07       31457.5
     6.96e-07       31452.3
     6.97e-07       31447.1
     6.98e-07       31441.9
     6.99e-07       31436.8
        7e-07       31431.7
     7.01e-07       31426.5
     7.02e-07       31421.4
     7.03e-07       31416.3
     7.04e-07       31411.2
     7.05e-07       31406.1
     7.06e-07         31401
     7.07e-07       31395.9
     7.08e-07       31390.9
     7.09e-07       31385.8
      7.1e-07       31380.8
     7.11e-07       31375.7
     7.12e-07       31370.7
     7.13e-07       31365.7
     7.14e-07       31360.7
     7.15e-07       31355.7
     7.16e-07       31350.7
     7.17e-07       31345.7
     7.18e-07       31340.7
     7.19e-07       31335.8
      7.2e-07       31330.8
     7.21e-07       31325.9
     7.22e-07         31321
     7.23e-07         31316
     7.24e-07       31311.1
     7.25e-07       31306.2
     7.26e-07       31301.3
     7.27e-07       31296.4
     7.28e-07       31291.5
     7.29e-07       31286.7
      7.3e-07       31281.8
     7.31e-07       31276.9
     7.32e-07       31272.1
     7.33e-07       31267.3
     7.34e-07       31262.4
     7.35e-07       31257.6
     7.36e-07       31252.8
     7.37e-07         31248
     7.38e-07       31243.2
     7.39e-07       31238.4
      7.4e-07       31233.6
     7.41e-07       31228.9
     7.42e-07       31224.1
     7.43e-07       31219.3
     7.44e-07       31214.6
     7.45e-07       31209.9
     7.46e-07       31205.1
     7.47e-07       31200.4
     7.48e-07       31195.7
     7.49e-07         31191
      7.5e-07       31186.3
     7.51e-07       31181.6
     7.52e-07       31176.9
     7.53e-07       31172.3
     7.54e-07       31167.6
     7.55e-07         31163
     7.56e-07       31158.3
     7.57e-07       31153.7
     7.58e-07         31149
     7.59e-07       31144.4
      7.6e-07       31139.8
     7.61e-07       31135.2
     7.62e-07       31130.6
     7.63e-07         31126
     7.64e-07       31121.4
     7.65e-07       31116.9
     7.66e-07       31112.3
     7.67e-07       31107.7
     7.68e-07       31103.2
     7.69e-07       31098.6
      7.7e-07       31094.1
     7.71e-07       31089.6
     7.72e-07         31085
     7.73e-07       31080.5
     7.74e-07         31076
     7.75e-07       31071.5
     7.76e-07         31067
     7.77e-07       31062.6
     7.78e-07       31058.1
     7.79e-07       31053.6
      7.8e-07       31049.2
     7.81e-07       31044.7
     7.82e-07       31040.3
     7.83e-07       31035.8
     7.84e-07       31031.4
     7.85e-07         31027
     7.86e-07       31022.5
     7.87e-07       31018.1
     7.88e-07       31013.7
     7.89e-07       31009.3
      7.9e-07         31005
     7.91e-07       31000.6
     7.92e-07       30996.2
     7.93e-07       30991.8
     7.94e-07       30987.5
     7.95e-07       30983.1
     7.96e-07       30978.8
     7.97e-07       30974.4
     7.98e-07       30970.1
     7.99e-07       30965.8
        8e-07       30961.5
     8.01e-07       30957.2
     8.02e-07       30952.9
     8.03e-07       30948.6
     8.04e-07       30944.3
     8.05e-07         30940
     8.06e-07       30935.7
     8.07e-07       30931.5
     8.08e-07       30927.2
     8.09e-07       30922.9
      8.1e-07       30918.7
     8.11e-07       30914.5
     8.12e-07       30910.2
     8.13e-07         30906
     8.14e-07       30901.8
     8.15e-07       30897.6
     8.16e-07       30893.4
     8.17e-07       30889.2
     8.18e-07         30885
     8.19e-07       30880.8
      8.2e-07       30876.6
     8.21e-07       30872.4
     8.22e-07       30868.2
     8.23e-07       30864.1
     8.24e-07       30859.9
     8.25e-07       30855.8
     8.26e-07       30851.6
     8.27e-07       30847.5
     8.28e-07       30843.4
     8.29e-07       30839.3
      8.3e-07       30835.1
     8.31e-07         30831
     8.32e-07       30826.9
     8.33e-07       30822.8
     8.34e-07       30818.7
     8.35e-07       30814.7
     8.36e-07       30810.6
     8.37e-07       30806.5
     8.38e-07       30802.4
     8.39e-07       30798.4
      8.4e-07       30794.3
     8.41e-07       30790.3
     8.42e-07       30786.2
     8.43e-07       30782.2
     8.44e-07       30778.2
     8.45e-07       30774.1
     8.46e-07       30770.1
     8.47e-07       30766.1
     8.48e-07       30762.1
     8.49e-07       30758.1
      8.5e-07       30754.1
     8.51e-07       30750.1
     8.52e-07       30746.2
     8.53e-07       30742.2
     8.54e-07       30738.2
     8.55e-07       30734.2
     8.56e-07       30730.3
     8.57e-07       30726.3
     8.58e-07       30722.4
     8.59e-07       30718.5
      8.6e-07       30714.5
     8.61e-07       30710.6
     8.62e-07       30706.7
     8.63e-07       30702.8
     8.64e-07       30698.8
     8.65e-07       30694.9
     8.66e-07         30691
     8.67e-07       30687.1
     8.68e-07       30683.3
     8.69e-07       30679.4
      8.7e-07       30675.5
     8.71e-07       30671.6
     8.72e-07       30667.8
     8.73e-07       30663.9
     8.74e-07         30660
     8.75e-07       30656.2
     8.76e-07       30652.4
     8.77e-07       30648.5
     8.78e-07       30644.7
     8.79e-07       30640.9
      8.8e-07         30637
     8.81e-07       30633.2
     8.82e-07       30629.4
     8.83e-07       30625.6
     8.84e-07       30621.8
     8.85e-07         30618
     8.86e-07       30614.2
     8.87e-07       30610.4
     8.88e-07       30606.7
     8.89e-07       30602.9
      8.9e-07       30599.1
     8.91e-07       30595.4
     8.92e-07       30591.6
     8.93e-07       30587.9
     8.94e-07       30584.1
     8.95e-07       30580.4
     8.96e-07       30576.6
     8.97e-07       30572.9
     8.98e-07       30569.2
     8.99e-07       30565.5
        9e-07       30561.7
     9.01e-07         30558
     9.02e-07       30554.3
     9.03e-07       30550.6
     9.04e-07       30546.9
     9.05e-07       30543.3
     9.06e-07       30539.6
     9.07e-07       30535.9
     9.08e-07       30532.2
     9.09e-07       30528.5
      9.1e-07       30524.9
     9.11e-07       30521.2
     9.12e-07       30517.6
     9.13e-07       30513.9
     9.14e-07       30510.3
     9.15e-07       30506.6
     9.16e-07         30503
     9.17e-07       30499.4
     9.18e-07       30495.8
     9.19e-07       30492.1
      9.2e-07       30488.5
     9.21e-07       30484.9
     9.22e-07       30481.3
     9.23e-07       30477.7
     9.24e-07       30474.1
     9.25e-07       30470.5
     9.26e-07       30466.9
     9.27e-07       30463.4
     9.28e-07       30459.8
     9.29e-07       30456.2
      9.3e-07       30452.7
     9.31e-07       30449.1
     9.32e-07       30445.5
     9.33e-07         30442
     9.34e-07       30438.4
     9.35e-07       30434.9
     9.36e-07       30431.4
     9.37e-07       30427.8
     9.38e-07       30424.3
     9.39e-07       30420.8
      9.4e-07       30417.3
     9.41e-07       30413.7
     9.42e-07       30410.2
     9.43e-07       30406.7
     9.44e-07       30403.2
     9.45e-07       30399.7
     9.46e-07       30396.2
     9.47e-07       30392.7
     9.48e-07       30389.3
     9.49e-07       30385.8
      9.5e-07       30382.3
     9.51e-07       30378.8
     9.52e-07       30375.4
     9.53e-07       30371.9
     9.54e-07       30368.5
     9.55e-07         30365
     9.56e-07       30361.6
     9.57e-07       30358.1
     9.58e-07       30354.7
     9.59e-07       30351.3
      9.6e-07       30347.8
     9.61e-07       30344.4
     9.62e-07         30341
     9.63e-07       30337.6
     9.64e-07       30334.2
     9.65e-07       30330.7
     9.66e-07       30327.3
     9.67e-07       30323.9
     9.68e-07       30320.6
     9.69e-07       30317.2
      9.7e-07       30313.8
     9.71e-07       30310.4
     9.72e-07         30307
     9.73e-07       30303.6
     9.74e-07       30300.3
     9.75e-07       30296.9
     9.76e-07       30293.5
     9.77e-07       30290.2
     9.78e-07       30286.8
     9.79e-07       30283.5
      9.8e-07       30280.1
     9.81e-07       30276.8
     9.82e-07       30273.5
     9.83e-07       30270.1
     9.84e-07       30266.8
     9.85e-07       30263.5
     9.86e-07       30260.2
     9.87e-07       30256.9
     9.88e-07       30253.5
     9.89e-07       30250.2
      9.9e-07       30246.9
     9.91e-07       30243.6
     9.92e-07       30240.3
     9.93e-07       30237.1
     9.94e-07       30233.8
     9.95e-07       30230.5
     9.96e-07       30227.2
     9.97e-07       30223.9
     9.98e-07       30220.7
     9.99e-07       30217.4
        1e-06       30214.1
    1.001e-06       30210.9
    1.002e-06       30207.6
    1.003e-06       30204.4
    1.004e-06       30201.1
    1.005e-06       30197.9
    1.006e-06       30194.6
    1.007e-06       30191.4
    1.008e-06       30188.2
    1.009e-06       30184.9
     1.01e-06       30181.7
    1.011e-06       30178.5
    1.012e-06       30175.3
    1.013e-06       30172.1
    1.014e-06       30168.9
    1.015e-06       30165.7
    1.016e-06       30162.5
    1.017e-06       30159.3
    1.018e-06       30156.1
    1.019e-06       30152.9
     1.02e-06       30149.7
    1.021e-06       30146.5
    1.022e-06       30143.3
    1.023e-06       30140.2
    1.024e-06         30137
    1.025e-06       30133.8
    1.026e-06       30130.6
    1.027e-06       30127.5
    1.028e-06       30124.3
    1.029e-06       30121.2
     1.03e-06         30118
    1.031e-06       30114.9
    1.032e-06       30111.7
    1.033e-06       30108.6
    1.034e-06       30105.5
    1.035e-06       30102.3
    1.036e-06       30099.2
    1.037e-06       30096.1
    1.038e-06         30093
    1.039e-06       30089.9
     1.04e-06       30086.7
    1.041e-06       30083.6
    1.042e-06       30080.5
    1.043e-06       30077.4
    1.044e-06       30074.3
    1.045e-06       30071.2
    1.046e-06       30068.1
    1.047e-06         30065
    1.048e-06         30062
    1.049e-06       30058.9
     1.05e-06       30055.8
    1.051e-06       30052.7
    1.052e-06       30049.7
    1.053e-06       30046.6
    1.054e-06       30043.5
    1.055e-06       30040.5
    1.056e-06       30037.4
    1.057e-06       30034.4
    1.058e-06       30031.3
    1.059e-06       30028.3
     1.06e-06       30025.2
    1.061e-06       30022.2
    1.062e-06       30019.1
    1.063e-06       30016.1
    1.064e-06       30013.1
    1.065e-06         30010
    1.066e-06         30007
    1.067e-06         30004
    1.068e-06         30001