# Probe 0 (5e-06 5e-06 5e-06)
#       Probe             0
#        Time
        1e-09        100683
        2e-09        100062
        3e-09       99460.5
        4e-09       98878.6
        5e-09         98315
        6e-09       97768.9
        7e-09       97239.6
        8e-09       96726.2
        9e-09       96228.1
        1e-08       95744.7
      1.1e-08       95275.1
      1.2e-08         94819
      1.3e-08       94375.6
      1.4e-08       93944.5
      1.5e-08       93525.1
      1.6e-08       93116.9
      1.7e-08       92719.5
      1.8e-08       92332.5
      1.9e-08       91955.3
        2e-08       91587.7
      2.1e-08       91229.2
      2.2e-08       90879.5
      2.3e-08       90538.3
      2.4e-08       90205.2
      2.5e-08       89879.9
      2.6e-08       89562.2
      2.7e-08       89251.7
      2.8e-08       88948.2
      2.9e-08       88651.5
        3e-08       88361.3
      3.1e-08       88077.3
      3.2e-08       87799.4
      3.3e-08       87527.4
      3.4e-08         87261
      3.5e-08       87000.2
      3.6e-08       86744.6
      3.7e-08       86494.1
      3.8e-08       86248.6
      3.9e-08       86007.8
        4e-08       85771.7
      4.1e-08       85540.2
      4.2e-08       85312.9
      4.3e-08         85090
      4.4e-08       84871.1
      4.5e-08       84656.2
      4.6e-08       84445.1
      4.7e-08       84237.8
      4.8e-08       84034.2
      4.9e-08       83834.1
        5e-08       83637.4
      5.1e-08       83444.1
      5.2e-08         83254
      5.3e-08       83067.1
      5.4e-08       82883.2
      5.5e-08       82702.4
      5.6e-08       82524.4
      5.7e-08       82349.3
      5.8e-08         82177
      5.9e-08       82007.3
        6e-08       81840.3
      6.1e-08       81675.8
      6.2e-08       81513.8
      6.3e-08       81354.2
      6.4e-08         81197
      6.5e-08       81042.1
      6.6e-08       80889.5
      6.7e-08       80739.1
      6.8e-08       80590.8
      6.9e-08       80444.6
        7e-08       80300.5
      7.1e-08       80158.3
      7.2e-08       80018.1
      7.3e-08       79879.9
      7.4e-08       79743.5
      7.5e-08       79608.9
      7.6e-08       79476.1
      7.7e-08         79345
      7.8e-08       79215.7
      7.9e-08         79088
        8e-08         78962
      8.1e-08       78837.5
      8.2e-08       78714.6
      8.3e-08       78593.3
      8.4e-08       78473.4
      8.5e-08       78355.1
      8.6e-08       78238.1
      8.7e-08       78122.6
      8.8e-08       78008.4
      8.9e-08       77895.7
        9e-08       77784.2
      9.1e-08         77674
      9.2e-08       77565.1
      9.3e-08       77457.5
      9.4e-08       77351.1
      9.5e-08       77245.9
      9.6e-08       77141.8
      9.7e-08         77039
      9.8e-08       76937.2
      9.9e-08       76836.6
        1e-07       76737.1
     1.01e-07       76638.6
     1.02e-07       76541.2
     1.03e-07       76444.9
     1.04e-07       76349.5
     1.05e-07       76255.2
     1.06e-07       76161.8
     1.07e-07       76069.4
     1.08e-07         75978
     1.09e-07       75887.5
      1.1e-07       75797.8
     1.11e-07       75709.1
     1.12e-07       75621.3
     1.13e-07       75534.4
     1.14e-07       75448.3
     1.15e-07         75363
     1.16e-07       75278.6
     1.17e-07       75194.9
     1.18e-07       75112.1
     1.19e-07       75030.1
      1.2e-07       74948.8
     1.21e-07       74868.3
     1.22e-07       74788.5
     1.23e-07       74709.5
     1.24e-07       74631.2
     1.25e-07       74553.6
     1.26e-07       74476.8
     1.27e-07       74400.6
     1.28e-07       74325.1
     1.29e-07       74250.2
      1.3e-07       74176.1
     1.31e-07       74102.5
     1.32e-07       74029.7
     1.33e-07       73957.4
     1.34e-07       73885.8
     1.35e-07       73814.8
     1.36e-07       73744.4
     1.37e-07       73674.6
     1.38e-07       73605.3
     1.39e-07       73536.7
      1.4e-07       73468.6
     1.41e-07       73401.1
     1.42e-07       73334.1
     1.43e-07       73267.7
     1.44e-07       73201.8
     1.45e-07       73136.5
     1.46e-07       73071.6
     1.47e-07       73007.3
     1.48e-07       72943.5
     1.49e-07       72880.2
      1.5e-07       72817.4
     1.51e-07       72755.1
     1.52e-07       72693.3
     1.53e-07       72631.9
     1.54e-07         72571
     1.55e-07       72510.6
     1.56e-07       72450.7
     1.57e-07       72391.1
     1.58e-07       72332.1
     1.59e-07       72273.4
      1.6e-07       72215.2
     1.61e-07       72157.5
     1.62e-07       72100.1
     1.63e-07       72043.2
     1.64e-07       71986.7
     1.65e-07       71930.6
     1.66e-07       71874.9
     1.67e-07       71819.6
     1.68e-07       71764.7
     1.69e-07       71710.1
      1.7e-07         71656
     1.71e-07       71602.2
     1.72e-07       71548.8
     1.73e-07       71495.8
     1.74e-07       71443.1
     1.75e-07       71390.8
     1.76e-07       71338.9
     1.77e-07       71287.3
     1.78e-07       71236.1
     1.79e-07       71185.2
      1.8e-07       71134.6
     1.81e-07       71084.4
     1.82e-07       71034.5
     1.83e-07       70984.9
     1.84e-07       70935.7
     1.85e-07       70886.8
     1.86e-07       70838.2
     1.87e-07       70789.9
     1.88e-07       70741.9
     1.89e-07       70694.2
      1.9e-07       70646.9
     1.91e-07       70599.8
     1.92e-07         70553
     1.93e-07       70506.5
     1.94e-07       70460.3
     1.95e-07       70414.4
     1.96e-07       70368.8
     1.97e-07       70323.5
     1.98e-07       70278.4
     1.99e-07       70233.6
        2e-07       70189.1
     2.01e-07       70144.9
     2.02e-07       70100.9
     2.03e-07       70057.2
     2.04e-07       70013.7
     2.05e-07       69970.5
     2.06e-07       69927.6
     2.07e-07       69884.9
     2.08e-07       69842.4
     2.09e-07       69800.2
      2.1e-07       69758.3
     2.11e-07       69716.6
     2.12e-07       69675.1
     2.13e-07       69633.9
     2.14e-07       69592.9
     2.15e-07       69552.1
     2.16e-07       69511.6
     2.17e-07       69471.3
     2.18e-07       69431.2
     2.19e-07       69391.4
      2.2e-07       69351.7
     2.21e-07       69312.3
     2.22e-07       69273.1
     2.23e-07       69234.2
     2.24e-07       69195.4
     2.25e-07       69156.8
     2.26e-07       69118.5
     2.27e-07       69080.3
     2.28e-07       69042.4
     2.29e-07       69004.7
      2.3e-07       68967.2
     2.31e-07       68929.8
     2.32e-07       68892.7
     2.33e-07       68855.8
     2.34e-07         68819
     2.35e-07       68782.5
     2.36e-07       68746.1
     2.37e-07       68709.9
     2.38e-07         68674
     2.39e-07       68638.2
      2.4e-07       68602.5
     2.41e-07       68567.1
     2.42e-07       68531.9
     2.43e-07       68496.8
     2.44e-07       68461.9
     2.45e-07       68427.2
     2.46e-07       68392.6
     2.47e-07       68358.2
     2.48e-07         68324
     2.49e-07         68290
      2.5e-07       68256.1
     2.51e-07       68222.4
     2.52e-07       68188.9
     2.53e-07       68155.5
     2.54e-07       68122.3
     2.55e-07       68089.3
     2.56e-07       68056.4
     2.57e-07       68023.7
     2.58e-07       67991.1
     2.59e-07       67958.7
      2.6e-07       67926.4
     2.61e-07       67894.3
     2.62e-07       67862.3
     2.63e-07       67830.5
     2.64e-07       67798.9
     2.65e-07       67767.4
     2.66e-07         67736
     2.67e-07       67704.8
     2.68e-07       67673.7
     2.69e-07       67642.8
      2.7e-07         67612
     2.71e-07       67581.3
     2.72e-07       67550.8
     2.73e-07       67520.5
     2.74e-07       67490.2
     2.75e-07       67460.1
     2.76e-07       67430.2
     2.77e-07       67400.3
     2.78e-07       67370.7
     2.79e-07       67341.1
      2.8e-07       67311.7
     2.81e-07       67282.4
     2.82e-07       67253.2
     2.83e-07       67224.1
     2.84e-07       67195.2
     2.85e-07       67166.4
     2.86e-07       67137.8
     2.87e-07       67109.2
     2.88e-07       67080.8
     2.89e-07       67052.5
      2.9e-07       67024.3
     2.91e-07       66996.3
     2.92e-07       66968.4
     2.93e-07       66940.5
     2.94e-07       66912.8
     2.95e-07       66885.3
     2.96e-07       66857.8
     2.97e-07       66830.5
     2.98e-07       66803.2
     2.99e-07       66776.1
        3e-07       66749.1
     3.01e-07       66722.2
     3.02e-07       66695.4
     3.03e-07       66668.7
     3.04e-07       66642.2
     3.05e-07       66615.7
     3.06e-07       66589.4
     3.07e-07       66563.1
     3.08e-07         66537
     3.09e-07       66510.9
      3.1e-07         66485
     3.11e-07       66459.2
     3.12e-07       66433.5
     3.13e-07       66407.9
     3.14e-07       66382.3
     3.15e-07       66356.9
     3.16e-07       66331.6
     3.17e-07       66306.4
     3.18e-07       66281.3
     3.19e-07       66256.3
      3.2e-07       66231.4
     3.21e-07       66206.5
     3.22e-07       66181.8
     3.23e-07       66157.2
     3.24e-07       66132.6
     3.25e-07       66108.2
     3.26e-07       66083.9
     3.27e-07       66059.6
     3.28e-07       66035.4
     3.29e-07       66011.4
      3.3e-07       65987.4
     3.31e-07       65963.5
     3.32e-07       65939.7
     3.33e-07         65916
     3.34e-07       65892.4
     3.35e-07       65868.8
     3.36e-07       65845.4
     3.37e-07         65822
     3.38e-07       65798.8
     3.39e-07       65775.6
      3.4e-07       65752.5
     3.41e-07       65729.5
     3.42e-07       65706.5
     3.43e-07       65683.7
     3.44e-07       65660.9
     3.45e-07       65638.3
     3.46e-07       65615.7
     3.47e-07       65593.1
     3.48e-07       65570.7
     3.49e-07       65548.3
      3.5e-07       65526.1
     3.51e-07       65503.9
     3.52e-07       65481.8
     3.53e-07       65459.7
     3.54e-07       65437.8
     3.55e-07       65415.9
     3.56e-07       65394.1
     3.57e-07       65372.3
     3.58e-07       65350.7
     3.59e-07       65329.1
      3.6e-07       65307.6
     3.61e-07       65286.2
     3.62e-07       65264.8
     3.63e-07       65243.5
     3.64e-07       65222.3
     3.65e-07       65201.2
     3.66e-07       65180.1
     3.67e-07       65159.2
     3.68e-07       65138.2
     3.69e-07       65117.4
      3.7e-07       65096.6
     3.71e-07       65075.9
     3.72e-07       65055.3
     3.73e-07       65034.7
     3.74e-07       65014.2
     3.75e-07       64993.8
     3.76e-07       64973.4
     3.77e-07       64953.1
     3.78e-07       64932.9
     3.79e-07       64912.8
      3.8e-07       64892.7
     3.81e-07       64872.6
     3.82e-07       64852.7
     3.83e-07       64832.8
     3.84e-07         64813
     3.85e-07       64793.2
     3.86e-07       64773.5
     3.87e-07       64753.9
     3.88e-07       64734.3
     3.89e-07       64714.8
      3.9e-07       64695.3
     3.91e-07       64675.9
     3.92e-07       64656.6
     3.93e-07       64637.4
     3.94e-07       64618.2
     3.95e-07         64599
     3.96e-07         64580
     3.97e-07       64560.9
     3.98e-07         64542
     3.99e-07       64523.1
        4e-07       64504.2
     4.01e-07       64485.5
     4.02e-07       64466.7
     4.03e-07       64448.1
     4.04e-07       64429.5
     4.05e-07       64410.9
     4.06e-07       64392.5
     4.07e-07         64374
     4.08e-07       64355.6
     4.09e-07       64337.3
      4.1e-07       64319.1
     4.11e-07       64300.9
     4.12e-07       64282.7
     4.13e-07       64264.6
     4.14e-07       64246.6
     4.15e-07       64228.6
     4.16e-07       64210.7
     4.17e-07       64192.8
     4.18e-07         64175
     4.19e-07       64157.2
      4.2e-07       64139.5
     4.21e-07       64121.8
     4.22e-07       64104.2
     4.23e-07       64086.7
     4.24e-07       64069.2
     4.25e-07       64051.7
     4.26e-07       64034.3
     4.27e-07         64017
     4.28e-07       63999.7
     4.29e-07       63982.4
      4.3e-07       63965.2
     4.31e-07       63948.1
     4.32e-07         63931
     4.33e-07       63913.9
     4.34e-07       63896.9
     4.35e-07         63880
     4.36e-07       63863.1
     4.37e-07       63846.2
     4.38e-07       63829.4
     4.39e-07       63812.7
      4.4e-07         63796
     4.41e-07       63779.3
     4.42e-07       63762.7
     4.43e-07       63746.1
     4.44e-07       63729.6
     4.45e-07       63713.1
     4.46e-07       63696.7
     4.47e-07       63680.3
     4.48e-07         63664
     4.49e-07       63647.7
      4.5e-07       63631.5
     4.51e-07       63615.3
     4.52e-07       63599.1
     4.53e-07         63583
     4.54e-07         63567
     4.55e-07       63550.9
     4.56e-07         63535
     4.57e-07         63519
     4.58e-07       63503.2
     4.59e-07       63487.3
      4.6e-07       63471.5
     4.61e-07       63455.8
     4.62e-07       63440.1
     4.63e-07       63424.4
     4.64e-07       63408.8
     4.65e-07       63393.2
     4.66e-07       63377.7
     4.67e-07       63362.2
     4.68e-07       63346.7
     4.69e-07       63331.3
      4.7e-07       63315.9
     4.71e-07       63300.6
     4.72e-07       63285.3
     4.73e-07         63270
     4.74e-07       63254.8
     4.75e-07       63239.7
     4.76e-07       63224.5
     4.77e-07       63209.4
     4.78e-07       63194.4
     4.79e-07       63179.4
      4.8e-07       63164.4
     4.81e-07       63149.5
     4.82e-07       63134.6
     4.83e-07       63119.7
     4.84e-07       63104.9
     4.85e-07       63090.1
     4.86e-07       63075.4
     4.87e-07       63060.7
     4.88e-07         63046
     4.89e-07       63031.4
      4.9e-07       63016.8
     4.91e-07       63002.3
     4.92e-07       62987.8
     4.93e-07       62973.3
     4.94e-07       62958.9
     4.95e-07       62944.5
     4.96e-07       62930.1
     4.97e-07       62915.8
     4.98e-07       62901.5
     4.99e-07       62887.2
        5e-07         62873
     5.01e-07       62858.8
     5.02e-07       62844.7
     5.03e-07       62830.6
     5.04e-07       62816.5
     5.05e-07       62802.4
     5.06e-07       62788.4
     5.07e-07       62774.5
     5.08e-07       62760.5
     5.09e-07       62746.6
      5.1e-07       62732.8
     5.11e-07       62718.9
     5.12e-07       62705.1
     5.13e-07       62691.4
     5.14e-07       62677.6
     5.15e-07       62663.9
     5.16e-07       62650.3
     5.17e-07       62636.6
     5.18e-07         62623
     5.19e-07       62609.5
      5.2e-07         62596
     5.21e-07       62582.5
     5.22e-07         62569
     5.23e-07       62555.6
     5.24e-07       62542.2
     5.25e-07       62528.8
     5.26e-07       62515.5
     5.27e-07       62502.1
     5.28e-07       62488.9
     5.29e-07       62475.6
      5.3e-07       62462.4
     5.31e-07       62449.2
     5.32e-07       62436.1
     5.33e-07         62423
     5.34e-07       62409.9
     5.35e-07       62396.8
     5.36e-07       62383.8
     5.37e-07       62370.8
     5.38e-07       62357.9
     5.39e-07       62344.9
      5.4e-07         62332
     5.41e-07       62319.2
     5.42e-07       62306.3
     5.43e-07       62293.5
     5.44e-07       62280.7
     5.45e-07         62268
     5.46e-07       62255.3
     5.47e-07       62242.6
     5.48e-07       62229.9
     5.49e-07       62217.3
      5.5e-07       62204.7
     5.51e-07       62192.1
     5.52e-07       62179.5
     5.53e-07         62167
     5.54e-07       62154.5
     5.55e-07       62142.1
     5.56e-07       62129.6
     5.57e-07       62117.2
     5.58e-07       62104.9
     5.59e-07       62092.5
      5.6e-07       62080.2
     5.61e-07       62067.9
     5.62e-07       62055.6
     5.63e-07       62043.4
     5.64e-07       62031.2
     5.65e-07         62019
     5.66e-07       62006.8
     5.67e-07       61994.7
     5.68e-07       61982.6
     5.69e-07       61970.5
      5.7e-07       61958.5
     5.71e-07       61946.5
     5.72e-07       61934.5
     5.73e-07       61922.5
     5.74e-07       61910.6
     5.75e-07       61898.6
     5.76e-07       61886.7
     5.77e-07       61874.9
     5.78e-07         61863
     5.79e-07       61851.2
      5.8e-07       61839.4
     5.81e-07       61827.7
     5.82e-07         61816
     5.83e-07       61804.2
     5.84e-07       61792.6
     5.85e-07       61780.9
     5.86e-07       61769.3
     5.87e-07       61757.7
     5.88e-07       61746.1
     5.89e-07       61734.5
      5.9e-07         61723
     5.91e-07       61711.5
     5.92e-07         61700
     5.93e-07       61688.5
     5.94e-07       61677.1
     5.95e-07       61665.7
     5.96e-07       61654.3
     5.97e-07       61642.9
     5.98e-07       61631.6
     5.99e-07       61620.3
        6e-07         61609
     6.01e-07       61597.7
     6.02e-07       61586.5
     6.03e-07       61575.2
     6.04e-07         61564
     6.05e-07       61552.9
     6.06e-07       61541.7
     6.07e-07       61530.6
     6.08e-07       61519.5
     6.09e-07       61508.4
      6.1e-07       61497.4
     6.11e-07       61486.3
     6.12e-07       61475.3
     6.13e-07       61464.3
     6.14e-07       61453.4
     6.15e-07       61442.4
     6.16e-07       61431.5
     6.17e-07       61420.6
     6.18e-07       61409.7
     6.19e-07       61398.9
      6.2e-07         61388
     6.21e-07       61377.2
     6.22e-07       61366.4
     6.23e-07       61355.7
     6.24e-07       61344.9
     6.25e-07       61334.2
     6.26e-07       61323.5
     6.27e-07       61312.8
     6.28e-07       61302.2
     6.29e-07       61291.5
      6.3e-07       61280.9
     6.31e-07       61270.3
     6.32e-07       61259.7
     6.33e-07       61249.2
     6.34e-07       61238.7
     6.35e-07       61228.1
     6.36e-07       61217.7
     6.37e-07       61207.2
     6.38e-07       61196.7
     6.39e-07       61186.3
      6.4e-07       61175.9
     6.41e-07       61165.5
     6.42e-07       61155.2
     6.43e-07       61144.8
     6.44e-07       61134.5
     6.45e-07       61124.2
     6.46e-07       61113.9
     6.47e-07       61103.6
     6.48e-07       61093.4
     6.49e-07       61083.2
      6.5e-07         61073
     6.51e-07       61062.8
     6.52e-07       61052.6
     6.53e-07       61042.5
     6.54e-07       61032.4
     6.55e-07       61022.3
     6.56e-07       61012.2
     6.57e-07       61002.1
     6.58e-07       60992.1
     6.59e-07         60982
      6.6e-07         60972
     6.61e-07         60962
     6.62e-07       60952.1
     6.63e-07       60942.1
     6.64e-07       60932.2
     6.65e-07       60922.3
     6.66e-07       60912.4
     6.67e-07       60902.5
     6.68e-07       60892.6
     6.69e-07       60882.8
      6.7e-07         60873
     6.71e-07       60863.2
     6.72e-07       60853.4
     6.73e-07       60843.6
     6.74e-07       60833.9
     6.75e-07       60824.2
     6.76e-07       60814.5
     6.77e-07       60804.8
     6.78e-07       60795.1
     6.79e-07       60785.4
      6.8e-07       60775.8
     6.81e-07       60766.2
     6.82e-07       60756.6
     6.83e-07         60747
     6.84e-07       60737.4
     6.85e-07       60727.9
     6.86e-07       60718.4
     6.87e-07       60708.8
     6.88e-07       60699.3
     6.89e-07       60689.9
      6.9e-07       60680.4
     6.91e-07         60671
     6.92e-07       60661.5
     6.93e-07       60652.1
     6.94e-07       60642.7
     6.95e-07       60633.4
     6.96e-07         60624
     6.97e-07       60614.7
     6.98e-07       60605.3
     6.99e-07         60596
        7e-07       60586.8
     7.01e-07       60577.5
     7.02e-07       60568.2
     7.03e-07         60559
     7.04e-07       60549.8
     7.05e-07       60540.6
     7.06e-07       60531.4
     7.07e-07       60522.2
     7.08e-07         60513
     7.09e-07       60503.9
      7.1e-07       60494.8
     7.11e-07       60485.7
     7.12e-07       60476.6
     7.13e-07       60467.5
     7.14e-07       60458.4
     7.15e-07       60449.4
     7.16e-07       60440.4
     7.17e-07       60431.4
     7.18e-07       60422.4
     7.19e-07       60413.4
      7.2e-07       60404.4
     7.21e-07       60395.5
     7.22e-07       60386.5
     7.23e-07       60377.6
     7.24e-07       60368.7
     7.25e-07       60359.8
     7.26e-07         60351
     7.27e-07       60342.1
     7.28e-07       60333.3
     7.29e-07       60324.5
      7.3e-07       60315.6
     7.31e-07       60306.9
     7.32e-07       60298.1
     7.33e-07       60289.3
     7.34e-07       60280.6
     7.35e-07       60271.8
     7.36e-07       60263.1
     7.37e-07       60254.4
     7.38e-07       60245.7
     7.39e-07       60237.1
      7.4e-07       60228.4
     7.41e-07       60219.8
     7.42e-07       60211.1
     7.43e-07       60202.5
     7.44e-07       60193.9
     7.45e-07       60185.3
     7.46e-07       60176.8
     7.47e-07       60168.2
     7.48e-07       60159.7
     7.49e-07       60151.1
      7.5e-07       60142.6
     7.51e-07       60134.1
     7.52e-07       60125.7
     7.53e-07       60117.2
     7.54e-07       60108.7
     7.55e-07       60100.3
     7.56e-07       60091.9
     7.57e-07       60083.5
     7.58e-07       60075.1
     7.59e-07       60066.7
      7.6e-07       60058.3
     7.61e-07       60049.9
     7.62e-07       60041.6
     7.63e-07       60033.3
     7.64e-07         60025
     7.65e-07       60016.7
     7.66e-07       60008.4
     7.67e-07       60000.1
     7.68e-07       59991.8
     7.69e-07       59983.6
      7.7e-07       59975.4
     7.71e-07       59967.1
     7.72e-07       59958.9
     7.73e-07       59950.7
     7.74e-07       59942.6
     7.75e-07       59934.4
     7.76e-07       59926.3
     7.77e-07       59918.1
     7.78e-07         59910
     7.79e-07       59901.9
      7.8e-07       59893.8
     7.81e-07       59885.7
     7.82e-07       59877.6
     7.83e-07       59869.6
     7.84e-07       59861.5
     7.85e-07       59853.5
     7.86e-07       59845.5
     7.87e-07       59837.5
     7.88e-07       59829.5
     7.89e-07       59821.5
      7.9e-07       59813.5
     7.91e-07       59805.6
     7.92e-07       59797.6
     7.93e-07       59789.7
     7.94e-07       59781.8
     7.95e-07       59773.9
     7.96e-07         59766
     7.97e-07       59758.1
     7.98e-07       59750.2
     7.99e-07       59742.4
        8e-07       59734.5
     8.01e-07       59726.7
     8.02e-07       59718.9
     8.03e-07       59711.1
     8.04e-07       59703.3
     8.05e-07       59695.5
     8.06e-07       59687.7
     8.07e-07         59680
     8.08e-07       59672.2
     8.09e-07       59664.5
      8.1e-07       59656.8
     8.11e-07       59649.1
     8.12e-07       59641.4
     8.13e-07       59633.7
     8.14e-07         59626
     8.15e-07       59618.3
     8.16e-07       59610.7
     8.17e-07       59603.1
     8.18e-07       59595.4
     8.19e-07       59587.8
      8.2e-07       59580.2
     8.21e-07       59572.6
     8.22e-07       59565.1
     8.23e-07       59557.5
     8.24e-07       59549.9
     8.25e-07       59542.4
     8.26e-07       59534.9
     8.27e-07       59527.3
     8.28e-07       59519.8
     8.29e-07       59512.3
      8.3e-07       59504.9
     8.31e-07       59497.4
     8.32e-07       59489.9
     8.33e-07       59482.5
     8.34e-07         59475
     8.35e-07       59467.6
     8.36e-07       59460.2
     8.37e-07       59452.8
     8.38e-07       59445.4
     8.39e-07         59438
      8.4e-07       59430.6
     8.41e-07       59423.3
     8.42e-07       59415.9
     8.43e-07       59408.6
     8.44e-07       59401.3
     8.45e-07       59393.9
     8.46e-07       59386.6
     8.47e-07       59379.3
     8.48e-07       59372.1
     8.49e-07       59364.8
      8.5e-07       59357.5
     8.51e-07       59350.3
     8.52e-07         59343
     8.53e-07       59335.8
     8.54e-07       59328.6
     8.55e-07       59321.4
     8.56e-07       59314.2
     8.57e-07         59307
     8.58e-07       59299.8
     8.59e-07       59292.6
      8.6e-07       59285.5
     8.61e-07       59278.3
     8.62e-07       59271.2
     8.63e-07       59264.1
     8.64e-07         59257
     8.65e-07       59249.9
     8.66e-07       59242.8
     8.67e-07       59235.7
     8.68e-07       59228.6
     8.69e-07       59221.6
      8.7e-07       59214.5
     8.71e-07       59207.5
     8.72e-07       59200.4
     8.73e-07       59193.4
     8.74e-07       59186.4
     8.75e-07       59179.4
     8.76e-07       59172.4
     8.77e-07       59165.4
     8.78e-07       59158.5
     8.79e-07       59151.5
      8.8e-07       59144.6
     8.81e-07       59137.6
     8.82e-07       59130.7
     8.83e-07       59123.8
     8.84e-07       59116.9
     8.85e-07         59110
     8.86e-07       59103.1
     8.87e-07       59096.2
     8.88e-07       59089.3
     8.89e-07       59082.5
      8.9e-07       59075.6
     8.91e-07       59068.8
     8.92e-07       59061.9
     8.93e-07       59055.1
     8.94e-07       59048.3
     8.95e-07       59041.5
     8.96e-07       59034.7
     8.97e-07       59027.9
     8.98e-07       59021.2
     8.99e-07       59014.4
        9e-07       59007.6
     9.01e-07       59000.9
     9.02e-07       58994.2
     9.03e-07       58987.4
     9.04e-07       58980.7
     9.05e-07         58974
     9.06e-07       58967.3
     9.07e-07       58960.6
     9.08e-07       58953.9
     9.09e-07       58947.3
      9.1e-07       58940.6
     9.11e-07         58934
     9.12e-07       58927.3
     9.13e-07       58920.7
     9.14e-07       58914.1
     9.15e-07       58907.4
     9.16e-07       58900.8
     9.17e-07       58894.2
     9.18e-07       58887.7
     9.19e-07       58881.1
      9.2e-07       58874.5
     9.21e-07         58868
     9.22e-07       58861.4
     9.23e-07       58854.9
     9.24e-07       58848.3
     9.25e-07       58841.8
     9.26e-07       58835.3
     9.27e-07       58828.8
     9.28e-07       58822.3
     9.29e-07       58815.8
      9.3e-07       58809.3
     9.31e-07       58802.9
     9.32e-07       58796.4
     9.33e-07       58789.9
     9.34e-07       58783.5
     9.35e-07       58777.1
     9.36e-07       58770.6
     9.37e-07       58764.2
     9.38e-07       58757.8
     9.39e-07       58751.4
      9.4e-07         58745
     9.41e-07       58738.6
     9.42e-07       58732.3
     9.43e-07       58725.9
     9.44e-07       58719.5
     9.45e-07       58713.2
     9.46e-07       58706.8
     9.47e-07       58700.5
     9.48e-07       58694.2
     9.49e-07       58687.9
      9.5e-07       58681.6
     9.51e-07       58675.3
     9.52e-07         58669
     9.53e-07       58662.7
     9.54e-07       58656.4
     9.55e-07       58650.2
     9.56e-07       58643.9
     9.57e-07       58637.7
     9.58e-07       58631.4
     9.59e-07       58625.2
      9.6e-07         58619
     9.61e-07       58612.8
     9.62e-07       58606.5
     9.63e-07       58600.4
     9.64e-07       58594.2
     9.65e-07         58588
     9.66e-07       58581.8
     9.67e-07       58575.6
     9.68e-07       58569.5
     9.69e-07       58563.3
      9.7e-07       58557.2
     9.71e-07       58551.1
     9.72e-07       58544.9
     9.73e-07       58538.8
     9.74e-07       58532.7
     9.75e-07       58526.6
     9.76e-07       58520.5
     9.77e-07       58514.4
     9.78e-07       58508.3
     9.79e-07       58502.3
      9.8e-07       58496.2
     9.81e-07       58490.2
     9.82e-07       58484.1
     9.83e-07       58478.1
     9.84e-07         58472
     9.85e-07         58466
     9.86e-07         58460
     9.87e-07         58454
     9.88e-07         58448
     9.89e-07         58442
      9.9e-07         58436
     9.91e-07         58430
     9.92e-07       58424.1
     9.93e-07       58418.1
     9.94e-07       58412.2
     9.95e-07       58406.2
     9.96e-07       58400.3
     9.97e-07       58394.3
     9.98e-07       58388.4
     9.99e-07       58382.5
        1e-06       58376.6
    1.001e-06       58370.7
    1.002e-06       58364.8
    1.003e-06       58358.9
    1.004e-06         58353
    1.005e-06       58347.2
    1.006e-06       58341.3
    1.007e-06       58335.4
    1.008e-06       58329.6
    1.009e-06       58323.7
     1.01e-06       58317.9
    1.011e-06       58312.1
    1.012e-06       58306.3
    1.013e-06       58300.5
    1.014e-06       58294.6
    1.015e-06       58288.9
    1.016e-06       58283.1
    1.017e-06       58277.3
    1.018e-06       58271.5
    1.019e-06       58265.7
     1.02e-06         58260
    1.021e-06       58254.2
    1.022e-06       58248.5
    1.023e-06       58242.7
    1.024e-06         58237
    1.025e-06       58231.3
    1.026e-06       58225.5
    1.027e-06       58219.8
    1.028e-06       58214.1
    1.029e-06       58208.4
     1.03e-06       58202.7
    1.031e-06       58197.1
    1.032e-06       58191.4
    1.033e-06       58185.7
    1.034e-06         58180
    1.035e-06       58174.4
    1.036e-06       58168.7
    1.037e-06       58163.1
    1.038e-06       58157.5
    1.039e-06       58151.8
     1.04e-06       58146.2
    1.041e-06       58140.6
    1.042e-06         58135
    1.043e-06       58129.4
    1.044e-06       58123.8
    1.045e-06       58118.2
    1.046e-06       58112.6
    1.047e-06       58107.1
    1.048e-06       58101.5
    1.049e-06       58095.9
     1.05e-06       58090.4
    1.051e-06       58084.8
    1.052e-06       58079.3
    1.053e-06       58073.8
    1.054e-06       58068.2
    1.055e-06       58062.7
    1.056e-06       58057.2
    1.057e-06       58051.7
    1.058e-06       58046.2
    1.059e-06       58040.7
     1.06e-06       58035.2
    1.061e-06       58029.7
    1.062e-06       58024.2
    1.063e-06       58018.8
    1.064e-06       58013.3
    1.065e-06       58007.9
    1.066e-06       58002.4
    1.067e-06         57997
    1.068e-06       57991.5