# Probe 0 (5e-06 5e-06 5e-06)
#       Probe             0
#        Time
        1e-09       41395.5
        2e-09       41371.6
        3e-09       41347.8
        4e-09         41324
        5e-09       41300.3
        6e-09       41276.5
        7e-09       41252.9
        8e-09       41229.2
        9e-09       41205.6
        1e-08         41182
      1.1e-08       41158.4
      1.2e-08       41134.9
      1.3e-08       41111.4
      1.4e-08       41087.9
      1.5e-08       41064.5
      1.6e-08       41041.1
      1.7e-08       41017.7
      1.8e-08       40994.4
      1.9e-08       40971.1
        2e-08       40947.8
      2.1e-08       40924.5
      2.2e-08       40901.3
      2.3e-08       40878.1
      2.4e-08         40855
      2.5e-08       40831.8
      2.6e-08       40808.7
      2.7e-08       40785.7
      2.8e-08       40762.6
      2.9e-08       40739.6
        3e-08       40716.6
      3.1e-08       40693.7
      3.2e-08       40670.8
      3.3e-08       40647.9
      3.4e-08         40625
      3.5e-08       40602.2
      3.6e-08       40579.4
      3.7e-08       40556.6
      3.8e-08       40533.9
      3.9e-08       40511.1
        4e-08       40488.5
      4.1e-08       40465.8
      4.2e-08       40443.2
      4.3e-08       40420.6
      4.4e-08         40398
      4.5e-08       40375.5
      4.6e-08         40353
      4.7e-08       40330.5
      4.8e-08       40308.1
      4.9e-08       40285.7
        5e-08       40263.3
      5.1e-08       40240.9
      5.2e-08       40218.6
      5.3e-08       40196.3
      5.4e-08         40174
      5.5e-08       40151.8
      5.6e-08       40129.6
      5.7e-08       40107.4
      5.8e-08       40085.3
      5.9e-08       40063.2
        6e-08       40041.1
      6.1e-08       40019.1
      6.2e-08       39997.1
      6.3e-08       39975.1
      6.4e-08       39953.1
      6.5e-08       39931.2
      6.6e-08       39909.3
      6.7e-08       39887.4
      6.8e-08       39865.6
      6.9e-08       39843.8
        7e-08         39822
      7.1e-08       39800.3
      7.2e-08       39778.6
      7.3e-08       39756.9
      7.4e-08       39735.3
      7.5e-08       39713.7
      7.6e-08       39692.1
      7.7e-08       39670.5
      7.8e-08         39649
      7.9e-08       39627.5
        8e-08       39606.1
      8.1e-08       39584.6
      8.2e-08       39563.3
      8.3e-08       39541.9
      8.4e-08       39520.6
      8.5e-08       39499.3
      8.6e-08         39478
      8.7e-08       39456.8
      8.8e-08       39435.6
      8.9e-08       39414.4
        9e-08       39393.3
      9.1e-08       39372.2
      9.2e-08       39351.1
      9.3e-08       39330.1
      9.4e-08       39309.1
      9.5e-08       39288.1
      9.6e-08       39267.2
      9.7e-08       39246.3
      9.8e-08       39225.4
      9.9e-08       39204.6
        1e-07       39183.8
     1.01e-07         39163
     1.02e-07       39142.3
     1.03e-07       39121.6
     1.04e-07       39100.9
     1.05e-07       39080.2
     1.06e-07       39059.6
     1.07e-07       39039.1
     1.08e-07       39018.5
     1.09e-07         38998
      1.1e-07       38977.5
     1.11e-07       38957.1
     1.12e-07       38936.7
     1.13e-07       38916.3
     1.14e-07         38896
     1.15e-07       38875.7
     1.16e-07       38855.4
     1.17e-07       38835.2
     1.18e-07         38815
     1.19e-07       38794.8
      1.2e-07       38774.7
     1.21e-07       38754.6
     1.22e-07       38734.5
     1.23e-07       38714.5
     1.24e-07       38694.5
     1.25e-07       38674.5
     1.26e-07       38654.6
     1.27e-07       38634.7
     1.28e-07       38614.8
     1.29e-07         38595
      1.3e-07       38575.2
     1.31e-07       38555.4
     1.32e-07       38535.7
     1.33e-07         38516
     1.34e-07       38496.3
     1.35e-07       38476.7
     1.36e-07       38457.1
     1.37e-07       38437.5
     1.38e-07         38418
     1.39e-07       38398.5
      1.4e-07       38379.1
     1.41e-07       38359.7
     1.42e-07       38340.3
     1.43e-07       38320.9
     1.44e-07       38301.6
     1.45e-07       38282.3
     1.46e-07       38263.1
     1.47e-07       38243.9
     1.48e-07       38224.7
     1.49e-07       38205.5
      1.5e-07       38186.4
     1.51e-07       38167.4
     1.52e-07       38148.3
     1.53e-07       38129.3
     1.54e-07       38110.3
     1.55e-07       38091.4
     1.56e-07       38072.5
     1.57e-07       38053.6
     1.58e-07       38034.8
     1.59e-07         38016
      1.6e-07       37997.2
     1.61e-07       37978.5
     1.62e-07       37959.8
     1.63e-07       37941.2
     1.64e-07       37922.5
     1.65e-07       37903.9
     1.66e-07       37885.4
     1.67e-07       37866.9
     1.68e-07       37848.4
     1.69e-07       37829.9
      1.7e-07       37811.5
     1.71e-07       37793.1
     1.72e-07       37774.8
     1.73e-07       37756.5
     1.74e-07       37738.2
     1.75e-07         37720
     1.76e-07       37701.7
     1.77e-07       37683.6
     1.78e-07       37665.4
     1.79e-07       37647.3
      1.8e-07       37629.3
     1.81e-07       37611.2
     1.82e-07       37593.2
     1.83e-07       37575.3
     1.84e-07       37557.3
     1.85e-07       37539.4
     1.86e-07       37521.6
     1.87e-07       37503.8
     1.88e-07         37486
     1.89e-07       37468.2
      1.9e-07       37450.5
     1.91e-07       37432.8
     1.92e-07       37415.1
     1.93e-07       37397.5
     1.94e-07       37379.9
     1.95e-07       37362.4
     1.96e-07       37344.9
     1.97e-07       37327.4
     1.98e-07         37310
     1.99e-07       37292.5
        2e-07       37275.2
     2.01e-07       37257.8
     2.02e-07       37240.5
     2.03e-07       37223.2
     2.04e-07         37206
     2.05e-07       37188.8
     2.06e-07       37171.6
     2.07e-07       37154.5
     2.08e-07       37137.4
     2.09e-07       37120.3
      2.1e-07       37103.3
     2.11e-07       37086.3
     2.12e-07       37069.3
     2.13e-07       37052.4
     2.14e-07       37035.5
     2.15e-07       37018.7
     2.16e-07       37001.8
     2.17e-07         36985
     2.18e-07       36968.3
     2.19e-07       36951.6
      2.2e-07       36934.9
     2.21e-07       36918.2
     2.22e-07       36901.6
     2.23e-07         36885
     2.24e-07       36868.4
     2.25e-07       36851.9
     2.26e-07       36835.4
     2.27e-07         36819
     2.28e-07       36802.6
     2.29e-07       36786.2
      2.3e-07       36769.8
     2.31e-07       36753.5
     2.32e-07       36737.2
     2.33e-07         36721
     2.34e-07       36704.8
     2.35e-07       36688.6
     2.36e-07       36672.4
     2.37e-07       36656.3
     2.38e-07       36640.2
     2.39e-07       36624.2
      2.4e-07       36608.2
     2.41e-07       36592.2
     2.42e-07       36576.3
     2.43e-07       36560.3
     2.44e-07       36544.5
     2.45e-07       36528.6
     2.46e-07       36512.8
     2.47e-07         36497
     2.48e-07       36481.3
     2.49e-07       36465.6
      2.5e-07       36449.9
     2.51e-07       36434.2
     2.52e-07       36418.6
     2.53e-07         36403
     2.54e-07       36387.5
     2.55e-07         36372
     2.56e-07       36356.5
     2.57e-07         36341
     2.58e-07       36325.6
     2.59e-07       36310.2
      2.6e-07       36294.9
     2.61e-07       36279.6
     2.62e-07       36264.3
     2.63e-07         36249
     2.64e-07       36233.8
     2.65e-07       36218.6
     2.66e-07       36203.5
     2.67e-07       36188.3
     2.68e-07       36173.2
     2.69e-07       36158.2
      2.7e-07       36143.1
     2.71e-07       36128.2
     2.72e-07       36113.2
     2.73e-07       36098.3
     2.74e-07       36083.4
     2.75e-07       36068.5
     2.76e-07       36053.7
     2.77e-07       36038.9
     2.78e-07       36024.1
     2.79e-07       36009.4
      2.8e-07       35994.7
     2.81e-07         35980
     2.82e-07       35965.3
     2.83e-07       35950.7
     2.84e-07       35936.1
     2.85e-07       35921.6
     2.86e-07       35907.1
     2.87e-07       35892.6
     2.88e-07       35878.1
     2.89e-07       35863.7
      2.9e-07       35849.3
     2.91e-07         35835
     2.92e-07       35820.6
     2.93e-07       35806.3
     2.94e-07       35792.1
     2.95e-07       35777.9
     2.96e-07       35763.6
     2.97e-07       35749.5
     2.98e-07       35735.3
     2.99e-07       35721.2
        3e-07       35707.1
     3.01e-07       35693.1
     3.02e-07       35679.1
     3.03e-07       35665.1
     3.04e-07       35651.1
     3.05e-07       35637.2
     3.06e-07       35623.3
     3.07e-07       35609.5
     3.08e-07       35595.6
     3.09e-07       35581.8
      3.1e-07         35568
     3.11e-07       35554.3
     3.12e-07       35540.6
     3.13e-07       35526.9
     3.14e-07       35513.3
     3.15e-07       35499.6
     3.16e-07         35486
     3.17e-07       35472.5
     3.18e-07       35458.9
     3.19e-07       35445.4
      3.2e-07         35432
     3.21e-07       35418.5
     3.22e-07       35405.1
     3.23e-07       35391.7
     3.24e-07       35378.4
     3.25e-07       35365.1
     3.26e-07       35351.8
     3.27e-07       35338.5
     3.28e-07       35325.3
     3.29e-07       35312.1
      3.3e-07       35298.9
     3.31e-07       35285.7
     3.32e-07       35272.6
     3.33e-07       35259.5
     3.34e-07       35246.5
     3.35e-07       35233.4
     3.36e-07       35220.4
     3.37e-07       35207.4
     3.38e-07       35194.5
     3.39e-07       35181.6
      3.4e-07       35168.7
     3.41e-07       35155.8
     3.42e-07         35143
     3.43e-07       35130.2
     3.44e-07       35117.4
     3.45e-07       35104.7
     3.46e-07         35092
     3.47e-07       35079.3
     3.48e-07       35066.6
     3.49e-07         35054
      3.5e-07       35041.4
     3.51e-07       35028.8
     3.52e-07       35016.3
     3.53e-07       35003.7
     3.54e-07       34991.3
     3.55e-07       34978.8
     3.56e-07       34966.4
     3.57e-07       34953.9
     3.58e-07       34941.6
     3.59e-07       34929.2
      3.6e-07       34916.9
     3.61e-07       34904.6
     3.62e-07       34892.3
     3.63e-07       34880.1
     3.64e-07       34867.9
     3.65e-07       34855.7
     3.66e-07       34843.5
     3.67e-07       34831.4
     3.68e-07       34819.3
     3.69e-07       34807.2
      3.7e-07       34795.1
     3.71e-07       34783.1
     3.72e-07       34771.1
     3.73e-07       34759.1
     3.74e-07       34747.2
     3.75e-07       34735.3
     3.76e-07       34723.4
     3.77e-07       34711.5
     3.78e-07       34699.7
     3.79e-07       34687.9
      3.8e-07       34676.1
     3.81e-07       34664.3
     3.82e-07       34652.6
     3.83e-07       34640.9
     3.84e-07       34629.2
     3.85e-07       34617.5
     3.86e-07       34605.9
     3.87e-07       34594.3
     3.88e-07       34582.7
     3.89e-07       34571.2
      3.9e-07       34559.6
     3.91e-07       34548.1
     3.92e-07       34536.7
     3.93e-07       34525.2
     3.94e-07       34513.8
     3.95e-07       34502.4
     3.96e-07         34491
     3.97e-07       34479.7
     3.98e-07       34468.3
     3.99e-07         34457
        4e-07       34445.8
     4.01e-07       34434.5
     4.02e-07       34423.3
     4.03e-07       34412.1
     4.04e-07       34400.9
     4.05e-07       34389.8
     4.06e-07       34378.7
     4.07e-07       34367.6
     4.08e-07       34356.5
     4.09e-07       34345.4
      4.1e-07       34334.4
     4.11e-07       34323.4
     4.12e-07       34312.4
     4.13e-07       34301.5
     4.14e-07       34290.6
     4.15e-07       34279.7
     4.16e-07       34268.8
     4.17e-07       34257.9
     4.18e-07       34247.1
     4.19e-07       34236.3
      4.2e-07       34225.5
     4.21e-07       34214.8
     4.22e-07         34204
     4.23e-07       34193.3
     4.24e-07       34182.6
     4.25e-07         34172
     4.26e-07       34161.3
     4.27e-07       34150.7
     4.28e-07       34140.1
     4.29e-07       34129.6
      4.3e-07         34119
     4.31e-07       34108.5
     4.32e-07         34098
     4.33e-07       34087.5
     4.34e-07       34077.1
     4.35e-07       34066.7
     4.36e-07       34056.3
     4.37e-07       34045.9
     4.38e-07       34035.5
     4.39e-07       34025.2
      4.4e-07       34014.9
     4.41e-07       34004.6
     4.42e-07       33994.3
     4.43e-07       33984.1
     4.44e-07       33973.8
     4.45e-07       33963.6
     4.46e-07       33953.5
     4.47e-07       33943.3
     4.48e-07       33933.2
     4.49e-07       33923.1
      4.5e-07         33913
     4.51e-07       33902.9
     4.52e-07       33892.9
     4.53e-07       33882.9
     4.54e-07       33872.9
     4.55e-07       33862.9
     4.56e-07       33852.9
     4.57e-07         33843
     4.58e-07       33833.1
     4.59e-07       33823.2
      4.6e-07       33813.3
     4.61e-07       33803.5
     4.62e-07       33793.7
     4.63e-07       33783.9
     4.64e-07       33774.1
     4.65e-07       33764.3
     4.66e-07       33754.6
     4.67e-07       33744.9
     4.68e-07       33735.2
     4.69e-07       33725.5
      4.7e-07       33715.8
     4.71e-07       33706.2
     4.72e-07       33696.6
     4.73e-07         33687
     4.74e-07       33677.4
     4.75e-07       33667.9
     4.76e-07       33658.4
     4.77e-07       33648.8
     4.78e-07       33639.4
     4.79e-07       33629.9
      4.8e-07       33620.5
     4.81e-07         33611
     4.82e-07       33601.6
     4.83e-07       33592.2
     4.84e-07       33582.9
     4.85e-07       33573.5
     4.86e-07       33564.2
     4.87e-07       33554.9
     4.88e-07       33545.6
     4.89e-07       33536.4
      4.9e-07       33527.1
     4.91e-07       33517.9
     4.92e-07       33508.7
     4.93e-07       33499.5
     4.94e-07       33490.4
     4.95e-07       33481.2
     4.96e-07       33472.1
     4.97e-07         33463
     4.98e-07       33453.9
     4.99e-07       33444.9
        5e-07       33435.8
     5.01e-07       33426.8
     5.02e-07       33417.8
     5.03e-07       33408.8
     5.04e-07       33399.8
     5.05e-07       33390.9
     5.06e-07         33382
     5.07e-07       33373.1
     5.08e-07       33364.2
     5.09e-07       33355.3
      5.1e-07       33346.4
     5.11e-07       33337.6
     5.12e-07       33328.8
     5.13e-07         33320
     5.14e-07       33311.2
     5.15e-07       33302.5
     5.16e-07       33293.7
     5.17e-07         33285
     5.18e-07       33276.3
     5.19e-07       33267.6
      5.2e-07         33259
     5.21e-07       33250.3
     5.22e-07       33241.7
     5.23e-07       33233.1
     5.24e-07       33224.5
     5.25e-07       33215.9
     5.26e-07       33207.4
     5.27e-07       33198.8
     5.28e-07       33190.3
     5.29e-07       33181.8
      5.3e-07       33173.3
     5.31e-07       33164.9
     5.32e-07       33156.4
     5.33e-07         33148
     5.34e-07       33139.6
     5.35e-07       33131.2
     5.36e-07       33122.8
     5.37e-07       33114.5
     5.38e-07       33106.1
     5.39e-07       33097.8
      5.4e-07       33089.5
     5.41e-07       33081.2
     5.42e-07         33073
     5.43e-07       33064.7
     5.44e-07       33056.5
     5.45e-07       33048.3
     5.46e-07       33040.1
     5.47e-07       33031.9
     5.48e-07       33023.7
     5.49e-07       33015.6
      5.5e-07       33007.4
     5.51e-07       32999.3
     5.52e-07       32991.2
     5.53e-07       32983.2
     5.54e-07       32975.1
     5.55e-07         32967
     5.56e-07         32959
     5.57e-07         32951
     5.58e-07         32943
     5.59e-07         32935
      5.6e-07       32927.1
     5.61e-07       32919.1
     5.62e-07       32911.2
     5.63e-07       32903.3
     5.64e-07       32895.4
     5.65e-07       32887.5
     5.66e-07       32879.6
     5.67e-07       32871.8
     5.68e-07         32864
     5.69e-07       32856.1
      5.7e-07       32848.3
     5.71e-07       32840.6
     5.72e-07       32832.8
     5.73e-07         32825
     5.74e-07       32817.3
     5.75e-07       32809.6
     5.76e-07       32801.9
     5.77e-07       32794.2
     5.78e-07       32786.5
     5.79e-07       32778.9
      5.8e-07       32771.2
     5.81e-07       32763.6
     5.82e-07         32756
     5.83e-07       32748.4
     5.84e-07       32740.8
     5.85e-07       32733.3
     5.86e-07       32725.7
     5.87e-07       32718.2
     5.88e-07       32710.7
     5.89e-07       32703.2
      5.9e-07       32695.7
     5.91e-07       32688.2
     5.92e-07       32680.8
     5.93e-07       32673.3
     5.94e-07       32665.9
     5.95e-07       32658.5
     5.96e-07       32651.1
     5.97e-07       32643.7
     5.98e-07       32636.3
     5.99e-07         32629
        6e-07       32621.7
     6.01e-07       32614.3
     6.02e-07         32607
     6.03e-07       32599.7
     6.04e-07       32592.5
     6.05e-07       32585.2
     6.06e-07         32578
     6.07e-07       32570.7
     6.08e-07       32563.5
     6.09e-07       32556.3
      6.1e-07       32549.1
     6.11e-07       32541.9
     6.12e-07       32534.8
     6.13e-07       32527.6
     6.14e-07       32520.5
     6.15e-07       32513.4
     6.16e-07       32506.3
     6.17e-07       32499.2
     6.18e-07       32492.1
     6.19e-07         32485
      6.2e-07         32478
     6.21e-07         32471
     6.22e-07       32463.9
     6.23e-07       32456.9
     6.24e-07       32449.9
     6.25e-07         32443
     6.26e-07         32436
     6.27e-07       32429.1
     6.28e-07       32422.1
     6.29e-07       32415.2
      6.3e-07       32408.3
     6.31e-07       32401.4
     6.32e-07       32394.5
     6.33e-07       32387.6
     6.34e-07       32380.8
     6.35e-07       32373.9
     6.36e-07       32367.1
     6.37e-07       32360.3
     6.38e-07       32353.5
     6.39e-07       32346.7
      6.4e-07       32339.9
     6.41e-07       32333.2
     6.42e-07       32326.4
     6.43e-07       32319.7
     6.44e-07         32313
     6.45e-07       32306.3
     6.46e-07       32299.6
     6.47e-07       32292.9
     6.48e-07       32286.2
     6.49e-07       32279.5
      6.5e-07       32272.9
     6.51e-07       32266.3
     6.52e-07       32259.7
     6.53e-07         32253
     6.54e-07       32246.5
     6.55e-07       32239.9
     6.56e-07       32233.3
     6.57e-07       32226.7
     6.58e-07       32220.2
     6.59e-07       32213.7
      6.6e-07       32207.2
     6.61e-07       32200.7
     6.62e-07       32194.2
     6.63e-07       32187.7
     6.64e-07       32181.2
     6.65e-07       32174.8
     6.66e-07       32168.3
     6.67e-07       32161.9
     6.68e-07       32155.5
     6.69e-07       32149.1
      6.7e-07       32142.7
     6.71e-07       32136.3
     6.72e-07       32129.9
     6.73e-07       32123.6
     6.74e-07       32117.2
     6.75e-07       32110.9
     6.76e-07       32104.5
     6.77e-07       32098.2
     6.78e-07       32091.9
     6.79e-07       32085.7
      6.8e-07       32079.4
     6.81e-07       32073.1
     6.82e-07       32066.9
     6.83e-07       32060.6
     6.84e-07       32054.4
     6.85e-07       32048.2
     6.86e-07         32042
     6.87e-07       32035.8
     6.88e-07       32029.6
     6.89e-07       32023.4
      6.9e-07       32017.3
     6.91e-07       32011.1
     6.92e-07         32005
     6.93e-07       31998.9
     6.94e-07       31992.8
     6.95e-07       31986.7
     6.96e-07       31980.6
     6.97e-07       31974.5
     6.98e-07       31968.4
     6.99e-07       31962.4
        7e-07       31956.3
     7.01e-07       31950.3
     7.02e-07       31944.3
     7.03e-07       31938.3
     7.04e-07       31932.3
     7.05e-07       31926.3
     7.06e-07       31920.3
     7.07e-07       31914.3
     7.08e-07       31908.4
     7.09e-07       31902.4
      7.1e-07       31896.5
     7.11e-07       31890.6
     7.12e-07       31884.6
     7.13e-07       31878.7
     7.14e-07       31872.8
     7.15e-07         31867
     7.16e-07       31861.1
     7.17e-07       31855.2
     7.18e-07       31849.4
     7.19e-07       31843.6
      7.2e-07       31837.7
     7.21e-07       31831.9
     7.22e-07       31826.1
     7.23e-07       31820.3
     7.24e-07       31814.5
     7.25e-07       31808.7
     7.26e-07         31803
     7.27e-07       31797.2
     7.28e-07       31791.5
     7.29e-07       31785.7
      7.3e-07         31780
     7.31e-07       31774.3
     7.32e-07       31768.6
     7.33e-07       31762.9
     7.34e-07       31757.2
     7.35e-07       31751.6
     7.36e-07       31745.9
     7.37e-07       31740.2
     7.38e-07       31734.6
     7.39e-07         31729
      7.4e-07       31723.3
     7.41e-07       31717.7
     7.42e-07       31712.1
     7.43e-07       31706.5
     7.44e-07         31701
     7.45e-07       31695.4
     7.46e-07       31689.8
     7.47e-07       31684.3
     7.48e-07       31678.7
     7.49e-07       31673.2
      7.5e-07       31667.7
     7.51e-07       31662.2
     7.52e-07       31656.7
     7.53e-07       31651.2
     7.54e-07       31645.7
     7.55e-07       31640.2
     7.56e-07       31634.7
     7.57e-07       31629.3
     7.58e-07       31623.8
     7.59e-07       31618.4
      7.6e-07         31613
     7.61e-07       31607.5
     7.62e-07       31602.1
     7.63e-07       31596.7
     7.64e-07       31591.3
     7.65e-07         31586
     7.66e-07       31580.6
     7.67e-07       31575.2
     7.68e-07       31569.9
     7.69e-07       31564.5
      7.7e-07       31559.2
     7.71e-07       31553.9
     7.72e-07       31548.6
     7.73e-07       31543.3
     7.74e-07         31538
     7.75e-07       31532.7
     7.76e-07       31527.4
     7.77e-07       31522.1
     7.78e-07       31516.8
     7.79e-07       31511.6
      7.8e-07       31506.4
     7.81e-07       31501.1
     7.82e-07       31495.9
     7.83e-07       31490.7
     7.84e-07       31485.5
     7.85e-07       31480.3
     7.86e-07       31475.1
     7.87e-07       31469.9
     7.88e-07       31464.7
     7.89e-07       31459.6
      7.9e-07       31454.4
     7.91e-07       31449.3
     7.92e-07       31444.1
     7.93e-07         31439
     7.94e-07       31433.9
     7.95e-07       31428.7
     7.96e-07       31423.6
     7.97e-07       31418.5
     7.98e-07       31413.5
     7.99e-07       31408.4
        8e-07       31403.3
     8.01e-07       31398.3
     8.02e-07       31393.2
     8.03e-07       31388.2
     8.04e-07       31383.1
     8.05e-07       31378.1
     8.06e-07       31373.1
     8.07e-07       31368.1
     8.08e-07       31363.1
     8.09e-07       31358.1
      8.1e-07       31353.1
     8.11e-07       31348.1
     8.12e-07       31343.1
     8.13e-07       31338.2
     8.14e-07       31333.2
     8.15e-07       31328.3
     8.16e-07       31323.3
     8.17e-07       31318.4
     8.18e-07       31313.5
     8.19e-07       31308.6
      8.2e-07       31303.7
     8.21e-07       31298.8
     8.22e-07       31293.9
     8.23e-07         31289
     8.24e-07       31284.1
     8.25e-07       31279.2
     8.26e-07       31274.4
     8.27e-07       31269.5
     8.28e-07       31264.7
     8.29e-07       31259.9
      8.3e-07         31255
     8.31e-07       31250.2
     8.32e-07       31245.4
     8.33e-07       31240.6
     8.34e-07       31235.8
     8.35e-07         31231
     8.36e-07       31226.2
     8.37e-07       31221.5
     8.38e-07       31216.7
     8.39e-07       31211.9
      8.4e-07       31207.2
     8.41e-07       31202.5
     8.42e-07       31197.7
     8.43e-07         31193
     8.44e-07       31188.3
     8.45e-07       31183.6
     8.46e-07       31178.9
     8.47e-07       31174.2
     8.48e-07       31169.5
     8.49e-07       31164.8
      8.5e-07       31160.1
     8.51e-07       31155.4
     8.52e-07       31150.8
     8.53e-07       31146.1
     8.54e-07       31141.5
     8.55e-07       31136.8
     8.56e-07       31132.2
     8.57e-07       31127.6
     8.58e-07         31123
     8.59e-07       31118.4
      8.6e-07       31113.8
     8.61e-07       31109.2
     8.62e-07       31104.6
     8.63e-07         31100
     8.64e-07       31095.4
     8.65e-07       31090.9
     8.66e-07       31086.3
     8.67e-07       31081.8
     8.68e-07       31077.2
     8.69e-07       31072.7
      8.7e-07       31068.1
     8.71e-07       31063.6
     8.72e-07       31059.1
     8.73e-07       31054.6
     8.74e-07       31050.1
     8.75e-07       31045.6
     8.76e-07       31041.1
     8.77e-07       31036.6
     8.78e-07       31032.1
     8.79e-07       31027.7
      8.8e-07       31023.2
     8.81e-07       31018.8
     8.82e-07       31014.3
     8.83e-07       31009.9
     8.84e-07       31005.4
     8.85e-07         31001
     8.86e-07       30996.6
     8.87e-07       30992.2
     8.88e-07       30987.8
     8.89e-07       30983.4
      8.9e-07         30979
     8.91e-07       30974.6
     8.92e-07       30970.2
     8.93e-07       30965.8
     8.94e-07       30961.5
     8.95e-07       30957.1
     8.96e-07       30952.7
     8.97e-07       30948.4
     8.98e-07       30944.1
     8.99e-07       30939.7
        9e-07       30935.4
     9.01e-07       30931.1
     9.02e-07       30926.8
     9.03e-07       30922.4
     9.04e-07       30918.1
     9.05e-07       30913.8
     9.06e-07       30909.6
     9.07e-07       30905.3
     9.08e-07         30901
     9.09e-07       30896.7
      9.1e-07       30892.5
     9.11e-07       30888.2
     9.12e-07       30883.9
     9.13e-07       30879.7
     9.14e-07       30875.5
     9.15e-07       30871.2
     9.16e-07         30867
     9.17e-07       30862.8
     9.18e-07       30858.6
     9.19e-07       30854.4
      9.2e-07       30850.2
     9.21e-07         30846
     9.22e-07       30841.8
     9.23e-07       30837.6
     9.24e-07       30833.4
     9.25e-07       30829.2
     9.26e-07       30825.1
     9.27e-07       30820.9
     9.28e-07       30816.7
     9.29e-07       30812.6
      9.3e-07       30808.5
     9.31e-07       30804.3
     9.32e-07       30800.2
     9.33e-07       30796.1
     9.34e-07         30792
     9.35e-07       30787.8
     9.36e-07       30783.7
     9.37e-07       30779.6
     9.38e-07       30775.5
     9.39e-07       30771.4
      9.4e-07       30767.4
     9.41e-07       30763.3
     9.42e-07       30759.2
     9.43e-07       30755.2
     9.44e-07       30751.1
     9.45e-07         30747
     9.46e-07         30743
     9.47e-07         30739
     9.48e-07       30734.9
     9.49e-07       30730.9
      9.5e-07       30726.9
     9.51e-07       30722.8
     9.52e-07       30718.8
     9.53e-07       30714.8
     9.54e-07       30710.8
     9.55e-07       30706.8
     9.56e-07       30702.8
     9.57e-07       30698.8
     9.58e-07       30694.9
     9.59e-07       30690.9
      9.6e-07       30686.9
     9.61e-07         30683
     9.62e-07         30679
     9.63e-07         30675
     9.64e-07       30671.1
     9.65e-07       30667.2
     9.66e-07       30663.2
     9.67e-07       30659.3
     9.68e-07       30655.4
     9.69e-07       30651.4
      9.7e-07       30647.5
     9.71e-07       30643.6
     9.72e-07       30639.7
     9.73e-07       30635.8
     9.74e-07       30631.9
     9.75e-07         30628
     9.76e-07       30624.2
     9.77e-07       30620.3
     9.78e-07       30616.4
     9.79e-07       30612.5
      9.8e-07       30608.7
     9.81e-07       30604.8
     9.82e-07         30601
     9.83e-07       30597.1
     9.84e-07       30593.3
     9.85e-07       30589.5
     9.86e-07       30585.6
     9.87e-07       30581.8
     9.88e-07         30578
     9.89e-07       30574.2
      9.9e-07       30570.4
     9.91e-07       30566.6
     9.92e-07       30562.8
     9.93e-07         30559
     9.94e-07       30555.2
     9.95e-07       30551.4
     9.96e-07       30547.6
     9.97e-07       30543.8
     9.98e-07       30540.1
     9.99e-07       30536.3
        1e-06       30532.6
    1.001e-06       30528.8
    1.002e-06       30525.1
    1.003e-06       30521.3
    1.004e-06       30517.6
    1.005e-06       30513.8
    1.006e-06       30510.1
    1.007e-06       30506.4
    1.008e-06       30502.7
    1.009e-06         30499
     1.01e-06       30495.3
    1.011e-06       30491.5
    1.012e-06       30487.9
    1.013e-06       30484.2
    1.014e-06       30480.5
    1.015e-06       30476.8
    1.016e-06       30473.1
    1.017e-06       30469.4
    1.018e-06       30465.8
    1.019e-06       30462.1
     1.02e-06       30458.4
    1.021e-06       30454.8
    1.022e-06       30451.1
    1.023e-06       30447.5
    1.024e-06       30443.8
    1.025e-06       30440.2
    1.026e-06       30436.6
    1.027e-06         30433
    1.028e-06       30429.3
    1.029e-06       30425.7
     1.03e-06       30422.1
    1.031e-06       30418.5
    1.032e-06       30414.9
    1.033e-06       30411.3
    1.034e-06       30407.7
    1.035e-06       30404.1
    1.036e-06       30400.5
    1.037e-06       30396.9
    1.038e-06       30393.4
    1.039e-06       30389.8
     1.04e-06       30386.2
    1.041e-06       30382.7
    1.042e-06       30379.1
    1.043e-06       30375.6
    1.044e-06         30372
    1.045e-06       30368.5
    1.046e-06       30364.9
    1.047e-06       30361.4
    1.048e-06       30357.9
    1.049e-06       30354.3
     1.05e-06       30350.8
    1.051e-06       30347.3
    1.052e-06       30343.8
    1.053e-06       30340.3
    1.054e-06       30336.8
    1.055e-06       30333.3
    1.056e-06       30329.8
    1.057e-06       30326.3
    1.058e-06       30322.8
    1.059e-06       30319.3
     1.06e-06       30315.8
    1.061e-06       30312.4
    1.062e-06       30308.9
    1.063e-06       30305.4
    1.064e-06         30302
    1.065e-06       30298.5
    1.066e-06       30295.1
    1.067e-06       30291.6
    1.068e-06       30288.2