# Probe 0 (5e-06 5e-06 5e-06)
#       Probe             0
#        Time
        1e-09    0.00348879
        2e-09    0.00348879
        3e-09    0.00348879
        4e-09    0.00348879
        5e-09    0.00348879
        6e-09    0.00348879
        7e-09    0.00348879
        8e-09    0.00348879
        9e-09    0.00348879
        1e-08    0.00348879
      1.1e-08    0.00348879
      1.2e-08    0.00348879
      1.3e-08    0.00348879
      1.4e-08    0.00348879
      1.5e-08    0.00348879
      1.6e-08    0.00348879
      1.7e-08    0.00348879
      1.8e-08    0.00348879
      1.9e-08    0.00348879
        2e-08    0.00348879
      2.1e-08    0.00348879
      2.2e-08    0.00348879
      2.3e-08    0.00348879
      2.4e-08    0.00348879
      2.5e-08    0.00348879
      2.6e-08    0.00348879
      2.7e-08    0.00348879
      2.8e-08    0.00348879
      2.9e-08    0.00348879
        3e-08    0.00348879
      3.1e-08    0.00348879
      3.2e-08    0.00348879
      3.3e-08    0.00348879
      3.4e-08    0.00348879
      3.5e-08    0.00348879
      3.6e-08    0.00348879
      3.7e-08    0.00348879
      3.8e-08    0.00348879
      3.9e-08    0.00348879
        4e-08    0.00348879
      4.1e-08    0.00348879
      4.2e-08    0.00348879
      4.3e-08    0.00348879
      4.4e-08    0.00348879
      4.5e-08    0.00348879
      4.6e-08    0.00348879
      4.7e-08    0.00348879
      4.8e-08    0.00348879
      4.9e-08    0.00348879
        5e-08    0.00348879
      5.1e-08    0.00348879
      5.2e-08    0.00348879
      5.3e-08    0.00348879
      5.4e-08    0.00348879
      5.5e-08    0.00348879
      5.6e-08    0.00348879
      5.7e-08    0.00348879
      5.8e-08    0.00348879
      5.9e-08    0.00348879
        6e-08    0.00348879
      6.1e-08    0.00348879
      6.2e-08    0.00348879
      6.3e-08    0.00348879
      6.4e-08    0.00348879
      6.5e-08    0.00348879
      6.6e-08    0.00348879
      6.7e-08    0.00348879
      6.8e-08    0.00348879
      6.9e-08    0.00348879
        7e-08    0.00348879
      7.1e-08    0.00348879
      7.2e-08    0.00348879
      7.3e-08    0.00348879
      7.4e-08    0.00348879
      7.5e-08    0.00348879
      7.6e-08    0.00348879
      7.7e-08    0.00348879
      7.8e-08    0.00348879
      7.9e-08    0.00348879
        8e-08    0.00348879
      8.1e-08    0.00348879
      8.2e-08    0.00348879
      8.3e-08    0.00348879
      8.4e-08    0.00348879
      8.5e-08    0.00348879
      8.6e-08    0.00348879
      8.7e-08    0.00348879
      8.8e-08    0.00348879
      8.9e-08    0.00348879
        9e-08    0.00348879
      9.1e-08    0.00348879
      9.2e-08    0.00348879
      9.3e-08    0.00348879
      9.4e-08    0.00348879
      9.5e-08    0.00348879
      9.6e-08    0.00348879
      9.7e-08    0.00348879
      9.8e-08    0.00348879
      9.9e-08    0.00348879
        1e-07    0.00348879
     1.01e-07    0.00348879
     1.02e-07    0.00348879
     1.03e-07    0.00348879
     1.04e-07    0.00348879
     1.05e-07    0.00348879
     1.06e-07    0.00348879
     1.07e-07    0.00348879
     1.08e-07    0.00348879
     1.09e-07    0.00348879
      1.1e-07    0.00348879
     1.11e-07    0.00348879
     1.12e-07    0.00348879
     1.13e-07    0.00348879
     1.14e-07    0.00348879
     1.15e-07    0.00348879
     1.16e-07    0.00348879
     1.17e-07    0.00348879
     1.18e-07    0.00348879
     1.19e-07    0.00348879
      1.2e-07    0.00348879
     1.21e-07    0.00348879
     1.22e-07    0.00348879
     1.23e-07    0.00348879
     1.24e-07    0.00348879
     1.25e-07    0.00348879
     1.26e-07    0.00348879
     1.27e-07    0.00348879
     1.28e-07    0.00348879
     1.29e-07    0.00348879
      1.3e-07    0.00348879
     1.31e-07    0.00348879
     1.32e-07    0.00348879
     1.33e-07    0.00348879
     1.34e-07    0.00348879
     1.35e-07    0.00348879
     1.36e-07    0.00348879
     1.37e-07    0.00348879
     1.38e-07    0.00348879
     1.39e-07    0.00348879
      1.4e-07    0.00348879
     1.41e-07    0.00348879
     1.42e-07    0.00348879
     1.43e-07    0.00348879
     1.44e-07    0.00348879
     1.45e-07    0.00348879
     1.46e-07    0.00348879
     1.47e-07    0.00348879
     1.48e-07    0.00348879
     1.49e-07    0.00348879
      1.5e-07    0.00348879
     1.51e-07    0.00348879
     1.52e-07    0.00348879
     1.53e-07    0.00348879
     1.54e-07    0.00348879
     1.55e-07    0.00348879
     1.56e-07    0.00348879
     1.57e-07    0.00348879
     1.58e-07    0.00348879
     1.59e-07    0.00348879
      1.6e-07    0.00348879
     1.61e-07    0.00348879
     1.62e-07    0.00348879
     1.63e-07    0.00348879
     1.64e-07    0.00348879
     1.65e-07    0.00348879
     1.66e-07    0.00348879
     1.67e-07    0.00348879
     1.68e-07    0.00348879
     1.69e-07    0.00348879
      1.7e-07    0.00348879
     1.71e-07    0.00348879
     1.72e-07    0.00348879
     1.73e-07    0.00348879
     1.74e-07    0.00348879
     1.75e-07    0.00348879
     1.76e-07    0.00348879
     1.77e-07    0.00348879
     1.78e-07    0.00348879
     1.79e-07    0.00348879
      1.8e-07    0.00348879
     1.81e-07    0.00348879
     1.82e-07    0.00348879
     1.83e-07    0.00348879
     1.84e-07    0.00348879
     1.85e-07    0.00348879
     1.86e-07    0.00348879
     1.87e-07    0.00348879
     1.88e-07    0.00348879
     1.89e-07    0.00348879
      1.9e-07    0.00348879
     1.91e-07    0.00348879
     1.92e-07    0.00348879
     1.93e-07    0.00348879
     1.94e-07    0.00348879
     1.95e-07    0.00348879
     1.96e-07    0.00348879
     1.97e-07    0.00348879
     1.98e-07    0.00348879
     1.99e-07    0.00348879
        2e-07    0.00348879
     2.01e-07    0.00348879
     2.02e-07    0.00348879
     2.03e-07    0.00348879
     2.04e-07    0.00348879
     2.05e-07    0.00348879
     2.06e-07    0.00348879
     2.07e-07    0.00348879
     2.08e-07    0.00348879
     2.09e-07    0.00348879
      2.1e-07    0.00348879
     2.11e-07    0.00348879
     2.12e-07    0.00348879
     2.13e-07    0.00348879
     2.14e-07    0.00348879
     2.15e-07    0.00348879
     2.16e-07    0.00348879
     2.17e-07    0.00348879
     2.18e-07    0.00348879
     2.19e-07    0.00348879
      2.2e-07    0.00348879
     2.21e-07    0.00348879
     2.22e-07    0.00348879
     2.23e-07    0.00348879
     2.24e-07    0.00348879
     2.25e-07    0.00348879
     2.26e-07    0.00348879
     2.27e-07    0.00348879
     2.28e-07    0.00348879
     2.29e-07    0.00348879
      2.3e-07    0.00348879
     2.31e-07    0.00348879
     2.32e-07    0.00348879
     2.33e-07    0.00348879
     2.34e-07    0.00348879
     2.35e-07    0.00348879
     2.36e-07    0.00348879
     2.37e-07    0.00348879
     2.38e-07    0.00348879
     2.39e-07    0.00348879
      2.4e-07    0.00348879
     2.41e-07    0.00348879
     2.42e-07    0.00348879
     2.43e-07    0.00348879
     2.44e-07    0.00348879
     2.45e-07    0.00348879
     2.46e-07    0.00348879
     2.47e-07    0.00348879
     2.48e-07    0.00348879
     2.49e-07    0.00348879
      2.5e-07    0.00348879
     2.51e-07    0.00348879
     2.52e-07    0.00348879
     2.53e-07    0.00348879
     2.54e-07    0.00348879
     2.55e-07    0.00348879
     2.56e-07    0.00348879
     2.57e-07    0.00348879
     2.58e-07    0.00348879
     2.59e-07    0.00348879
      2.6e-07    0.00348879
     2.61e-07    0.00348879
     2.62e-07    0.00348879
     2.63e-07    0.00348879
     2.64e-07    0.00348879
     2.65e-07    0.00348879
     2.66e-07    0.00348879
     2.67e-07    0.00348879
     2.68e-07    0.00348879
     2.69e-07    0.00348879
      2.7e-07    0.00348879
     2.71e-07    0.00348879
     2.72e-07    0.00348879
     2.73e-07    0.00348879
     2.74e-07    0.00348879
     2.75e-07    0.00348879
     2.76e-07    0.00348879
     2.77e-07    0.00348879
     2.78e-07    0.00348879
     2.79e-07    0.00348879
      2.8e-07    0.00348879
     2.81e-07    0.00348879
     2.82e-07    0.00348879
     2.83e-07    0.00348879
     2.84e-07    0.00348879
     2.85e-07    0.00348879
     2.86e-07    0.00348879
     2.87e-07    0.00348879
     2.88e-07    0.00348879
     2.89e-07    0.00348879
      2.9e-07    0.00348879
     2.91e-07    0.00348879
     2.92e-07    0.00348879
     2.93e-07    0.00348879
     2.94e-07    0.00348879
     2.95e-07    0.00348879
     2.96e-07    0.00348879
     2.97e-07    0.00348879
     2.98e-07    0.00348879
     2.99e-07    0.00348879
        3e-07    0.00348879
     3.01e-07    0.00348879
     3.02e-07    0.00348879
     3.03e-07    0.00348879
     3.04e-07    0.00348879
     3.05e-07    0.00348879
     3.06e-07    0.00348879
     3.07e-07    0.00348879
     3.08e-07    0.00348879
     3.09e-07    0.00348879
      3.1e-07    0.00348879
     3.11e-07    0.00348879
     3.12e-07    0.00348879
     3.13e-07    0.00348879
     3.14e-07    0.00348879
     3.15e-07    0.00348879
     3.16e-07    0.00348879
     3.17e-07    0.00348879
     3.18e-07    0.00348879
     3.19e-07    0.00348879
      3.2e-07    0.00348879
     3.21e-07    0.00348879
     3.22e-07    0.00348879
     3.23e-07    0.00348879
     3.24e-07    0.00348879
     3.25e-07    0.00348879
     3.26e-07    0.00348879
     3.27e-07    0.00348879
     3.28e-07    0.00348879
     3.29e-07    0.00348879
      3.3e-07    0.00348879
     3.31e-07    0.00348879
     3.32e-07    0.00348879
     3.33e-07    0.00348879
     3.34e-07    0.00348879
     3.35e-07    0.00348879
     3.36e-07    0.00348879
     3.37e-07    0.00348879
     3.38e-07    0.00348879
     3.39e-07    0.00348879
      3.4e-07    0.00348879
     3.41e-07    0.00348879
     3.42e-07    0.00348879
     3.43e-07    0.00348879
     3.44e-07    0.00348879
     3.45e-07    0.00348879
     3.46e-07    0.00348879
     3.47e-07    0.00348879
     3.48e-07    0.00348879
     3.49e-07    0.00348879
      3.5e-07    0.00348879
     3.51e-07    0.00348879
     3.52e-07    0.00348879
     3.53e-07    0.00348879
     3.54e-07    0.00348879
     3.55e-07    0.00348879
     3.56e-07    0.00348879
     3.57e-07    0.00348879
     3.58e-07    0.00348879
     3.59e-07    0.00348879
      3.6e-07    0.00348879
     3.61e-07    0.00348879
     3.62e-07    0.00348879
     3.63e-07    0.00348879
     3.64e-07    0.00348879
     3.65e-07    0.00348879
     3.66e-07    0.00348879
     3.67e-07    0.00348879
     3.68e-07    0.00348879
     3.69e-07    0.00348879
      3.7e-07    0.00348879
     3.71e-07    0.00348879
     3.72e-07    0.00348879
     3.73e-07    0.00348879
     3.74e-07    0.00348879
     3.75e-07    0.00348879
     3.76e-07    0.00348879
     3.77e-07    0.00348879
     3.78e-07    0.00348879
     3.79e-07    0.00348879
      3.8e-07    0.00348879
     3.81e-07    0.00348879
     3.82e-07    0.00348879
     3.83e-07    0.00348879
     3.84e-07    0.00348879
     3.85e-07    0.00348879
     3.86e-07    0.00348879
     3.87e-07    0.00348879
     3.88e-07    0.00348879
     3.89e-07    0.00348879
      3.9e-07    0.00348879
     3.91e-07    0.00348879
     3.92e-07    0.00348879
     3.93e-07    0.00348879
     3.94e-07    0.00348879
     3.95e-07    0.00348879
     3.96e-07    0.00348879
     3.97e-07    0.00348879
     3.98e-07    0.00348879
     3.99e-07    0.00348879
        4e-07    0.00348879
     4.01e-07    0.00348879
     4.02e-07    0.00348879
     4.03e-07    0.00348879
     4.04e-07    0.00348879
     4.05e-07    0.00348879
     4.06e-07    0.00348879
     4.07e-07    0.00348879
     4.08e-07    0.00348879
     4.09e-07    0.00348879
      4.1e-07    0.00348879
     4.11e-07    0.00348879
     4.12e-07    0.00348879
     4.13e-07    0.00348879
     4.14e-07    0.00348879
     4.15e-07    0.00348879
     4.16e-07    0.00348879
     4.17e-07    0.00348879
     4.18e-07    0.00348879
     4.19e-07    0.00348879
      4.2e-07    0.00348879
     4.21e-07    0.00348879
     4.22e-07    0.00348879
     4.23e-07    0.00348879
     4.24e-07    0.00348879
     4.25e-07    0.00348879
     4.26e-07    0.00348879
     4.27e-07    0.00348879
     4.28e-07    0.00348879
     4.29e-07    0.00348879
      4.3e-07    0.00348879
     4.31e-07    0.00348879
     4.32e-07    0.00348879
     4.33e-07    0.00348879
     4.34e-07    0.00348879
     4.35e-07    0.00348879
     4.36e-07    0.00348879
     4.37e-07    0.00348879
     4.38e-07    0.00348879
     4.39e-07    0.00348879
      4.4e-07    0.00348879
     4.41e-07    0.00348879
     4.42e-07    0.00348879
     4.43e-07    0.00348879
     4.44e-07    0.00348879
     4.45e-07    0.00348879
     4.46e-07    0.00348879
     4.47e-07    0.00348879
     4.48e-07    0.00348879
     4.49e-07    0.00348879
      4.5e-07    0.00348879
     4.51e-07    0.00348879
     4.52e-07    0.00348879
     4.53e-07    0.00348879
     4.54e-07    0.00348879
     4.55e-07    0.00348879
     4.56e-07    0.00348879
     4.57e-07    0.00348879
     4.58e-07    0.00348879
     4.59e-07    0.00348879
      4.6e-07    0.00348879
     4.61e-07    0.00348879
     4.62e-07    0.00348879
     4.63e-07    0.00348879
     4.64e-07    0.00348879
     4.65e-07    0.00348879
     4.66e-07    0.00348879
     4.67e-07    0.00348879
     4.68e-07    0.00348879
     4.69e-07    0.00348879
      4.7e-07    0.00348879
     4.71e-07    0.00348879
     4.72e-07    0.00348879
     4.73e-07    0.00348879
     4.74e-07    0.00348879
     4.75e-07    0.00348879
     4.76e-07    0.00348879
     4.77e-07    0.00348879
     4.78e-07    0.00348879
     4.79e-07    0.00348879
      4.8e-07    0.00348879
     4.81e-07    0.00348879
     4.82e-07    0.00348879
     4.83e-07    0.00348879
     4.84e-07    0.00348879
     4.85e-07    0.00348879
     4.86e-07    0.00348879
     4.87e-07    0.00348879
     4.88e-07    0.00348879
     4.89e-07    0.00348879
      4.9e-07    0.00348879
     4.91e-07    0.00348879
     4.92e-07    0.00348879
     4.93e-07    0.00348879
     4.94e-07    0.00348879
     4.95e-07    0.00348879
     4.96e-07    0.00348879
     4.97e-07    0.00348879
     4.98e-07    0.00348879
     4.99e-07    0.00348879
        5e-07    0.00348879
     5.01e-07    0.00348879
     5.02e-07    0.00348879
     5.03e-07    0.00348879
     5.04e-07    0.00348879
     5.05e-07    0.00348879
     5.06e-07    0.00348879
     5.07e-07    0.00348879
     5.08e-07    0.00348879
     5.09e-07    0.00348879
      5.1e-07    0.00348879
     5.11e-07    0.00348879
     5.12e-07    0.00348879
     5.13e-07    0.00348879
     5.14e-07    0.00348879
     5.15e-07    0.00348879
     5.16e-07    0.00348879
     5.17e-07    0.00348879
     5.18e-07    0.00348879
     5.19e-07    0.00348879
      5.2e-07    0.00348879
     5.21e-07    0.00348879
     5.22e-07    0.00348879
     5.23e-07    0.00348879
     5.24e-07    0.00348879
     5.25e-07    0.00348879
     5.26e-07    0.00348879
     5.27e-07    0.00348879
     5.28e-07    0.00348879
     5.29e-07    0.00348879
      5.3e-07    0.00348879
     5.31e-07    0.00348879
     5.32e-07    0.00348879
     5.33e-07    0.00348879
     5.34e-07    0.00348879
     5.35e-07    0.00348879
     5.36e-07    0.00348879
     5.37e-07    0.00348879
     5.38e-07    0.00348879
     5.39e-07    0.00348879
      5.4e-07    0.00348879
     5.41e-07    0.00348879
     5.42e-07    0.00348879
     5.43e-07    0.00348879
     5.44e-07    0.00348879
     5.45e-07    0.00348879
     5.46e-07    0.00348879
     5.47e-07    0.00348879
     5.48e-07    0.00348879
     5.49e-07    0.00348879
      5.5e-07    0.00348879
     5.51e-07    0.00348879
     5.52e-07    0.00348879
     5.53e-07    0.00348879
     5.54e-07    0.00348879
     5.55e-07    0.00348879
     5.56e-07    0.00348879
     5.57e-07    0.00348879
     5.58e-07    0.00348879
     5.59e-07    0.00348879
      5.6e-07    0.00348879
     5.61e-07    0.00348879
     5.62e-07    0.00348879
     5.63e-07    0.00348879
     5.64e-07    0.00348879
     5.65e-07    0.00348879
     5.66e-07    0.00348879
     5.67e-07    0.00348879
     5.68e-07    0.00348879
     5.69e-07    0.00348879
      5.7e-07    0.00348879
     5.71e-07    0.00348879
     5.72e-07    0.00348879
     5.73e-07    0.00348879
     5.74e-07    0.00348879
     5.75e-07    0.00348879
     5.76e-07    0.00348879
     5.77e-07    0.00348879
     5.78e-07    0.00348879
     5.79e-07    0.00348879
      5.8e-07    0.00348879
     5.81e-07    0.00348879
     5.82e-07    0.00348879
     5.83e-07    0.00348879
     5.84e-07    0.00348879
     5.85e-07    0.00348879
     5.86e-07    0.00348879
     5.87e-07    0.00348879
     5.88e-07    0.00348879
     5.89e-07    0.00348879
      5.9e-07    0.00348879
     5.91e-07    0.00348879
     5.92e-07    0.00348879
     5.93e-07    0.00348879
     5.94e-07    0.00348879
     5.95e-07    0.00348879
     5.96e-07    0.00348879
     5.97e-07    0.00348879
     5.98e-07    0.00348879
     5.99e-07    0.00348879
        6e-07    0.00348879
     6.01e-07    0.00348879
     6.02e-07    0.00348879
     6.03e-07    0.00348879
     6.04e-07    0.00348879
     6.05e-07    0.00348879
     6.06e-07    0.00348879
     6.07e-07    0.00348879
     6.08e-07    0.00348879
     6.09e-07    0.00348879
      6.1e-07    0.00348879
     6.11e-07    0.00348879
     6.12e-07    0.00348879
     6.13e-07    0.00348879
     6.14e-07    0.00348879
     6.15e-07    0.00348879
     6.16e-07    0.00348879
     6.17e-07    0.00348879
     6.18e-07    0.00348879
     6.19e-07    0.00348879
      6.2e-07    0.00348879
     6.21e-07    0.00348879
     6.22e-07    0.00348879
     6.23e-07    0.00348879
     6.24e-07    0.00348879
     6.25e-07    0.00348879
     6.26e-07    0.00348879
     6.27e-07    0.00348879
     6.28e-07    0.00348879
     6.29e-07    0.00348879
      6.3e-07    0.00348879
     6.31e-07    0.00348879
     6.32e-07    0.00348879
     6.33e-07    0.00348879
     6.34e-07    0.00348879
     6.35e-07    0.00348879
     6.36e-07    0.00348879
     6.37e-07    0.00348879
     6.38e-07    0.00348879
     6.39e-07    0.00348879
      6.4e-07    0.00348879
     6.41e-07    0.00348879
     6.42e-07    0.00348879
     6.43e-07    0.00348879
     6.44e-07    0.00348879
     6.45e-07    0.00348879
     6.46e-07    0.00348879
     6.47e-07    0.00348879
     6.48e-07    0.00348879
     6.49e-07    0.00348879
      6.5e-07    0.00348879
     6.51e-07    0.00348879
     6.52e-07    0.00348879
     6.53e-07    0.00348879
     6.54e-07    0.00348879
     6.55e-07    0.00348879
     6.56e-07    0.00348879
     6.57e-07    0.00348879
     6.58e-07    0.00348879
     6.59e-07    0.00348879
      6.6e-07    0.00348879
     6.61e-07    0.00348879
     6.62e-07    0.00348879
     6.63e-07    0.00348879
     6.64e-07    0.00348879
     6.65e-07    0.00348879
     6.66e-07    0.00348879
     6.67e-07    0.00348879
     6.68e-07    0.00348879
     6.69e-07    0.00348879
      6.7e-07    0.00348879
     6.71e-07    0.00348879
     6.72e-07    0.00348879
     6.73e-07    0.00348879
     6.74e-07    0.00348879
     6.75e-07    0.00348879
     6.76e-07    0.00348879
     6.77e-07    0.00348879
     6.78e-07    0.00348879
     6.79e-07    0.00348879
      6.8e-07    0.00348879
     6.81e-07    0.00348879
     6.82e-07    0.00348879
     6.83e-07    0.00348879
     6.84e-07    0.00348879
     6.85e-07    0.00348879
     6.86e-07    0.00348879
     6.87e-07    0.00348879
     6.88e-07    0.00348879
     6.89e-07    0.00348879
      6.9e-07    0.00348879
     6.91e-07    0.00348879
     6.92e-07    0.00348879
     6.93e-07    0.00348879
     6.94e-07    0.00348879
     6.95e-07    0.00348879
     6.96e-07    0.00348879
     6.97e-07    0.00348879
     6.98e-07    0.00348879
     6.99e-07    0.00348879
        7e-07    0.00348879
     7.01e-07    0.00348879
     7.02e-07    0.00348879
     7.03e-07    0.00348879
     7.04e-07    0.00348879
     7.05e-07    0.00348879
     7.06e-07    0.00348879
     7.07e-07    0.00348879
     7.08e-07    0.00348879
     7.09e-07    0.00348879
      7.1e-07    0.00348879
     7.11e-07    0.00348879
     7.12e-07    0.00348879
     7.13e-07    0.00348879
     7.14e-07    0.00348879
     7.15e-07    0.00348879
     7.16e-07    0.00348879
     7.17e-07    0.00348879
     7.18e-07    0.00348879
     7.19e-07    0.00348879
      7.2e-07    0.00348879
     7.21e-07    0.00348879
     7.22e-07    0.00348879
     7.23e-07    0.00348879
     7.24e-07    0.00348879
     7.25e-07    0.00348879
     7.26e-07    0.00348879
     7.27e-07    0.00348879
     7.28e-07    0.00348879
     7.29e-07    0.00348879
      7.3e-07    0.00348879
     7.31e-07    0.00348879
     7.32e-07    0.00348879
     7.33e-07    0.00348879
     7.34e-07    0.00348879
     7.35e-07    0.00348879
     7.36e-07    0.00348879
     7.37e-07    0.00348879
     7.38e-07    0.00348879
     7.39e-07    0.00348879
      7.4e-07    0.00348879
     7.41e-07    0.00348879
     7.42e-07    0.00348879
     7.43e-07    0.00348879
     7.44e-07    0.00348879
     7.45e-07    0.00348879
     7.46e-07    0.00348879
     7.47e-07    0.00348879
     7.48e-07    0.00348879
     7.49e-07    0.00348879
      7.5e-07    0.00348879
     7.51e-07    0.00348879
     7.52e-07    0.00348879
     7.53e-07    0.00348879
     7.54e-07    0.00348879
     7.55e-07    0.00348879
     7.56e-07    0.00348879
     7.57e-07    0.00348879
     7.58e-07    0.00348879
     7.59e-07    0.00348879
      7.6e-07    0.00348879
     7.61e-07    0.00348879
     7.62e-07    0.00348879
     7.63e-07    0.00348879
     7.64e-07    0.00348879
     7.65e-07    0.00348879
     7.66e-07    0.00348879
     7.67e-07    0.00348879
     7.68e-07    0.00348879
     7.69e-07    0.00348879
      7.7e-07    0.00348879
     7.71e-07    0.00348879
     7.72e-07    0.00348879
     7.73e-07    0.00348879
     7.74e-07    0.00348879
     7.75e-07    0.00348879
     7.76e-07    0.00348879
     7.77e-07    0.00348879
     7.78e-07    0.00348879
     7.79e-07    0.00348879
      7.8e-07    0.00348879
     7.81e-07    0.00348879
     7.82e-07    0.00348879
     7.83e-07    0.00348879
     7.84e-07    0.00348879
     7.85e-07    0.00348879
     7.86e-07    0.00348879
     7.87e-07    0.00348879
     7.88e-07    0.00348879
     7.89e-07    0.00348879
      7.9e-07    0.00348879
     7.91e-07    0.00348879
     7.92e-07    0.00348879
     7.93e-07    0.00348879
     7.94e-07    0.00348879
     7.95e-07    0.00348879
     7.96e-07    0.00348879
     7.97e-07    0.00348879
     7.98e-07    0.00348879
     7.99e-07    0.00348879
        8e-07    0.00348879
     8.01e-07    0.00348879
     8.02e-07    0.00348879
     8.03e-07    0.00348879
     8.04e-07    0.00348879
     8.05e-07    0.00348879
     8.06e-07    0.00348879
     8.07e-07    0.00348879
     8.08e-07    0.00348879
     8.09e-07    0.00348879
      8.1e-07    0.00348879
     8.11e-07    0.00348879
     8.12e-07    0.00348879
     8.13e-07    0.00348879
     8.14e-07    0.00348879
     8.15e-07    0.00348879
     8.16e-07    0.00348879
     8.17e-07    0.00348879
     8.18e-07    0.00348879
     8.19e-07    0.00348879
      8.2e-07    0.00348879
     8.21e-07    0.00348879
     8.22e-07    0.00348879
     8.23e-07    0.00348879
     8.24e-07    0.00348879
     8.25e-07    0.00348879
     8.26e-07    0.00348879
     8.27e-07    0.00348879
     8.28e-07    0.00348879
     8.29e-07    0.00348879
      8.3e-07    0.00348879
     8.31e-07    0.00348879
     8.32e-07    0.00348879
     8.33e-07    0.00348879
     8.34e-07    0.00348879
     8.35e-07    0.00348879
     8.36e-07    0.00348879
     8.37e-07    0.00348879
     8.38e-07    0.00348879
     8.39e-07    0.00348879
      8.4e-07    0.00348879
     8.41e-07    0.00348879
     8.42e-07    0.00348879
     8.43e-07    0.00348879
     8.44e-07    0.00348879
     8.45e-07    0.00348879
     8.46e-07    0.00348879
     8.47e-07    0.00348879
     8.48e-07    0.00348879
     8.49e-07    0.00348879
      8.5e-07    0.00348879
     8.51e-07    0.00348879
     8.52e-07    0.00348879
     8.53e-07    0.00348879
     8.54e-07    0.00348879
     8.55e-07    0.00348879
     8.56e-07    0.00348879
     8.57e-07    0.00348879
     8.58e-07    0.00348879
     8.59e-07    0.00348879
      8.6e-07    0.00348879
     8.61e-07    0.00348879
     8.62e-07    0.00348879
     8.63e-07    0.00348879
     8.64e-07    0.00348879
     8.65e-07    0.00348879
     8.66e-07    0.00348879
     8.67e-07    0.00348879
     8.68e-07    0.00348879
     8.69e-07    0.00348879
      8.7e-07    0.00348879
     8.71e-07    0.00348879
     8.72e-07    0.00348879
     8.73e-07    0.00348879
     8.74e-07    0.00348879
     8.75e-07    0.00348879
     8.76e-07    0.00348879
     8.77e-07    0.00348879
     8.78e-07    0.00348879
     8.79e-07    0.00348879
      8.8e-07    0.00348879
     8.81e-07    0.00348879
     8.82e-07    0.00348879
     8.83e-07    0.00348879
     8.84e-07    0.00348879
     8.85e-07    0.00348879
     8.86e-07    0.00348879
     8.87e-07    0.00348879
     8.88e-07    0.00348879
     8.89e-07    0.00348879
      8.9e-07    0.00348879
     8.91e-07    0.00348879
     8.92e-07    0.00348879
     8.93e-07    0.00348879
     8.94e-07    0.00348879
     8.95e-07    0.00348879
     8.96e-07    0.00348879
     8.97e-07    0.00348879
     8.98e-07    0.00348879
     8.99e-07    0.00348879
        9e-07    0.00348879
     9.01e-07    0.00348879
     9.02e-07    0.00348879
     9.03e-07    0.00348879
     9.04e-07    0.00348879
     9.05e-07    0.00348879
     9.06e-07    0.00348879
     9.07e-07    0.00348879
     9.08e-07    0.00348879
     9.09e-07    0.00348879
      9.1e-07    0.00348879
     9.11e-07    0.00348879
     9.12e-07    0.00348879
     9.13e-07    0.00348879
     9.14e-07    0.00348879
     9.15e-07    0.00348879
     9.16e-07    0.00348879
     9.17e-07    0.00348879
     9.18e-07    0.00348879
     9.19e-07    0.00348879
      9.2e-07    0.00348879
     9.21e-07    0.00348879
     9.22e-07    0.00348879
     9.23e-07    0.00348879
     9.24e-07    0.00348879
     9.25e-07    0.00348879
     9.26e-07    0.00348879
     9.27e-07    0.00348879
     9.28e-07    0.00348879
     9.29e-07    0.00348879
      9.3e-07    0.00348879
     9.31e-07    0.00348879
     9.32e-07    0.00348879
     9.33e-07    0.00348879
     9.34e-07    0.00348879
     9.35e-07    0.00348879
     9.36e-07    0.00348879
     9.37e-07    0.00348879
     9.38e-07    0.00348879
     9.39e-07    0.00348879
      9.4e-07    0.00348879
     9.41e-07    0.00348879
     9.42e-07    0.00348879
     9.43e-07    0.00348879
     9.44e-07    0.00348879
     9.45e-07    0.00348879
     9.46e-07    0.00348879
     9.47e-07    0.00348879
     9.48e-07    0.00348879
     9.49e-07    0.00348879
      9.5e-07    0.00348879
     9.51e-07    0.00348879
     9.52e-07    0.00348879
     9.53e-07    0.00348879
     9.54e-07    0.00348879
     9.55e-07    0.00348879
     9.56e-07    0.00348879
     9.57e-07    0.00348879
     9.58e-07    0.00348879
     9.59e-07    0.00348879
      9.6e-07    0.00348879
     9.61e-07    0.00348879
     9.62e-07    0.00348879
     9.63e-07    0.00348879
     9.64e-07    0.00348879
     9.65e-07    0.00348879
     9.66e-07    0.00348879
     9.67e-07    0.00348879
     9.68e-07    0.00348879
     9.69e-07    0.00348879
      9.7e-07    0.00348879
     9.71e-07    0.00348879
     9.72e-07    0.00348879
     9.73e-07    0.00348879
     9.74e-07    0.00348879
     9.75e-07    0.00348879
     9.76e-07    0.00348879
     9.77e-07    0.00348879
     9.78e-07    0.00348879
     9.79e-07    0.00348879
      9.8e-07    0.00348879
     9.81e-07    0.00348879
     9.82e-07    0.00348879
     9.83e-07    0.00348879
     9.84e-07    0.00348879
     9.85e-07    0.00348879
     9.86e-07    0.00348879
     9.87e-07    0.00348879
     9.88e-07    0.00348879
     9.89e-07    0.00348879
      9.9e-07    0.00348879
     9.91e-07    0.00348879
     9.92e-07    0.00348879
     9.93e-07    0.00348879
     9.94e-07    0.00348879
     9.95e-07    0.00348879
     9.96e-07    0.00348879
     9.97e-07    0.00348879
     9.98e-07    0.00348879
     9.99e-07    0.00348879
        1e-06    0.00348879
    1.001e-06    0.00348879
    1.002e-06    0.00348879
    1.003e-06    0.00348879
    1.004e-06    0.00348879
    1.005e-06    0.00348879
    1.006e-06    0.00348879
    1.007e-06    0.00348879
    1.008e-06    0.00348879
    1.009e-06    0.00348879
     1.01e-06    0.00348879
    1.011e-06    0.00348879
    1.012e-06    0.00348879
    1.013e-06    0.00348879
    1.014e-06    0.00348879
    1.015e-06    0.00348879
    1.016e-06    0.00348879
    1.017e-06    0.00348879
    1.018e-06    0.00348879
    1.019e-06    0.00348879
     1.02e-06    0.00348879
    1.021e-06    0.00348879
    1.022e-06    0.00348879
    1.023e-06    0.00348879
    1.024e-06    0.00348879
    1.025e-06    0.00348879
    1.026e-06    0.00348879
    1.027e-06    0.00348879
    1.028e-06    0.00348879
    1.029e-06    0.00348879
     1.03e-06    0.00348879
    1.031e-06    0.00348879
    1.032e-06    0.00348879
    1.033e-06    0.00348879
    1.034e-06    0.00348879
    1.035e-06    0.00348879
    1.036e-06    0.00348879
    1.037e-06    0.00348879
    1.038e-06    0.00348879
    1.039e-06    0.00348879
     1.04e-06    0.00348879
    1.041e-06    0.00348879
    1.042e-06    0.00348879
    1.043e-06    0.00348879
    1.044e-06    0.00348879
    1.045e-06    0.00348879
    1.046e-06    0.00348879
    1.047e-06    0.00348879
    1.048e-06    0.00348879
    1.049e-06    0.00348879
     1.05e-06    0.00348879
    1.051e-06    0.00348879
    1.052e-06    0.00348879
    1.053e-06    0.00348879
    1.054e-06    0.00348879
    1.055e-06    0.00348879
    1.056e-06    0.00348879
    1.057e-06    0.00348879
    1.058e-06    0.00348879
    1.059e-06    0.00348879
     1.06e-06    0.00348879
    1.061e-06    0.00348879
    1.062e-06    0.00348879
    1.063e-06    0.00348879
    1.064e-06    0.00348879
    1.065e-06    0.00348879
    1.066e-06    0.00348879
    1.067e-06    0.00348879
    1.068e-06    0.00348879