# Probe 0 (5e-06 5e-06 5e-06)
#       Probe             0
#        Time
        1e-09       28490.3
        2e-09       28115.7
        3e-09       27806.6
        4e-09         27544
        5e-09       27316.3
        6e-09       27116.1
        7e-09         26938
        8e-09       26778.2
        9e-09       26633.7
        1e-08       26502.2
      1.1e-08       26381.8
      1.2e-08       26271.2
      1.3e-08       26169.1
      1.4e-08       26074.5
      1.5e-08       25986.5
      1.6e-08       25904.4
      1.7e-08       25827.7
      1.8e-08       25755.7
      1.9e-08       25688.1
        2e-08       25624.4
      2.1e-08       25564.3
      2.2e-08       25507.4
      2.3e-08       25453.6
      2.4e-08       25402.5
      2.5e-08       25353.9
      2.6e-08       25307.7
      2.7e-08       25263.6
      2.8e-08       25221.5
      2.9e-08       25181.3
        3e-08       25142.9
      3.1e-08         25106
      3.2e-08       25070.6
      3.3e-08       25036.7
      3.4e-08       25004.1
      3.5e-08       24972.7
      3.6e-08       24942.4
      3.7e-08       24913.3
      3.8e-08       24885.2
      3.9e-08         24858
        4e-08       24831.8
      4.1e-08       24806.4
      4.2e-08       24781.8
      4.3e-08         24758
      4.4e-08       24734.9
      4.5e-08       24712.5
      4.6e-08       24690.8
      4.7e-08       24669.6
      4.8e-08       24649.1
      4.9e-08       24629.1
        5e-08       24609.6
      5.1e-08       24590.7
      5.2e-08       24572.2
      5.3e-08       24554.2
      5.4e-08       24536.6
      5.5e-08       24519.4
      5.6e-08       24502.7
      5.7e-08       24486.3
      5.8e-08       24470.2
      5.9e-08       24454.5
        6e-08       24439.2
      6.1e-08       24424.1
      6.2e-08       24409.4
      6.3e-08       24394.9
      6.4e-08       24380.8
      6.5e-08       24366.9
      6.6e-08       24353.2
      6.7e-08       24339.8
      6.8e-08       24326.6
      6.9e-08       24313.7
        7e-08       24300.9
      7.1e-08       24288.4
      7.2e-08       24276.1
      7.3e-08       24263.9
      7.4e-08         24252
      7.5e-08       24240.2
      7.6e-08       24228.6
      7.7e-08       24217.2
      7.8e-08       24205.9
      7.9e-08       24194.7
        8e-08       24183.8
      8.1e-08       24172.9
      8.2e-08       24162.2
      8.3e-08       24151.6
      8.4e-08       24141.2
      8.5e-08       24130.8
      8.6e-08       24120.6
      8.7e-08       24110.5
      8.8e-08       24100.6
      8.9e-08       24090.7
        9e-08       24080.9
      9.1e-08       24071.2
      9.2e-08       24061.6
      9.3e-08       24052.1
      9.4e-08       24042.7
      9.5e-08       24033.4
      9.6e-08       24024.2
      9.7e-08         24015
      9.8e-08         24006
      9.9e-08         23997
        1e-07         23988
     1.01e-07       23979.2
     1.02e-07       23970.4
     1.03e-07       23961.7
     1.04e-07         23953
     1.05e-07       23944.4
     1.06e-07       23935.9
     1.07e-07       23927.4
     1.08e-07         23919
     1.09e-07       23910.7
      1.1e-07       23902.4
     1.11e-07       23894.1
     1.12e-07       23885.9
     1.13e-07       23877.7
     1.14e-07       23869.6
     1.15e-07       23861.6
     1.16e-07       23853.5
     1.17e-07       23845.6
     1.18e-07       23837.6
     1.19e-07       23829.8
      1.2e-07       23821.9
     1.21e-07       23814.1
     1.22e-07       23806.3
     1.23e-07       23798.6
     1.24e-07       23790.9
     1.25e-07       23783.2
     1.26e-07       23775.6
     1.27e-07         23768
     1.28e-07       23760.4
     1.29e-07       23752.8
      1.3e-07       23745.3
     1.31e-07       23737.9
     1.32e-07       23730.4
     1.33e-07         23723
     1.34e-07       23715.6
     1.35e-07       23708.2
     1.36e-07       23700.9
     1.37e-07       23693.5
     1.38e-07       23686.2
     1.39e-07         23679
      1.4e-07       23671.7
     1.41e-07       23664.5
     1.42e-07       23657.3
     1.43e-07       23650.1
     1.44e-07       23642.9
     1.45e-07       23635.8
     1.46e-07       23628.7
     1.47e-07       23621.6
     1.48e-07       23614.5
     1.49e-07       23607.4
      1.5e-07       23600.4
     1.51e-07       23593.4
     1.52e-07       23586.3
     1.53e-07       23579.3
     1.54e-07       23572.4
     1.55e-07       23565.4
     1.56e-07       23558.5
     1.57e-07       23551.5
     1.58e-07       23544.6
     1.59e-07       23537.7
      1.6e-07       23530.8
     1.61e-07         23524
     1.62e-07       23517.1
     1.63e-07       23510.3
     1.64e-07       23503.4
     1.65e-07       23496.6
     1.66e-07       23489.8
     1.67e-07         23483
     1.68e-07       23476.2
     1.69e-07       23469.5
      1.7e-07       23462.7
     1.71e-07         23456
     1.72e-07       23449.2
     1.73e-07       23442.5
     1.74e-07       23435.8
     1.75e-07       23429.1
     1.76e-07       23422.4
     1.77e-07       23415.7
     1.78e-07       23409.1
     1.79e-07       23402.4
      1.8e-07       23395.7
     1.81e-07       23389.1
     1.82e-07       23382.5
     1.83e-07       23375.9
     1.84e-07       23369.2
     1.85e-07       23362.6
     1.86e-07         23356
     1.87e-07       23349.5
     1.88e-07       23342.9
     1.89e-07       23336.3
      1.9e-07       23329.8
     1.91e-07       23323.2
     1.92e-07       23316.7
     1.93e-07       23310.1
     1.94e-07       23303.6
     1.95e-07       23297.1
     1.96e-07       23290.6
     1.97e-07       23284.1
     1.98e-07       23277.6
     1.99e-07       23271.1
        2e-07       23264.6
     2.01e-07       23258.1
     2.02e-07       23251.7
     2.03e-07       23245.2
     2.04e-07       23238.7
     2.05e-07       23232.3
     2.06e-07       23225.9
     2.07e-07       23219.4
     2.08e-07         23213
     2.09e-07       23206.6
      2.1e-07       23200.2
     2.11e-07       23193.8
     2.12e-07       23187.4
     2.13e-07         23181
     2.14e-07       23174.6
     2.15e-07       23168.2
     2.16e-07       23161.8
     2.17e-07       23155.5
     2.18e-07       23149.1
     2.19e-07       23142.7
      2.2e-07       23136.4
     2.21e-07         23130
     2.22e-07       23123.7
     2.23e-07       23117.4
     2.24e-07         23111
     2.25e-07       23104.7
     2.26e-07       23098.4
     2.27e-07       23092.1
     2.28e-07       23085.8
     2.29e-07       23079.5
      2.3e-07       23073.2
     2.31e-07       23066.9
     2.32e-07       23060.6
     2.33e-07       23054.4
     2.34e-07       23048.1
     2.35e-07       23041.8
     2.36e-07       23035.6
     2.37e-07       23029.3
     2.38e-07       23023.1
     2.39e-07       23016.8
      2.4e-07       23010.6
     2.41e-07       23004.3
     2.42e-07       22998.1
     2.43e-07       22991.9
     2.44e-07       22985.7
     2.45e-07       22979.5
     2.46e-07       22973.2
     2.47e-07         22967
     2.48e-07       22960.8
     2.49e-07       22954.6
      2.5e-07       22948.5
     2.51e-07       22942.3
     2.52e-07       22936.1
     2.53e-07       22929.9
     2.54e-07       22923.8
     2.55e-07       22917.6
     2.56e-07       22911.4
     2.57e-07       22905.3
     2.58e-07       22899.1
     2.59e-07         22893
      2.6e-07       22886.8
     2.61e-07       22880.7
     2.62e-07       22874.6
     2.63e-07       22868.5
     2.64e-07       22862.3
     2.65e-07       22856.2
     2.66e-07       22850.1
     2.67e-07         22844
     2.68e-07       22837.9
     2.69e-07       22831.8
      2.7e-07       22825.7
     2.71e-07       22819.6
     2.72e-07       22813.6
     2.73e-07       22807.5
     2.74e-07       22801.4
     2.75e-07       22795.3
     2.76e-07       22789.3
     2.77e-07       22783.2
     2.78e-07       22777.2
     2.79e-07       22771.1
      2.8e-07       22765.1
     2.81e-07         22759
     2.82e-07         22753
     2.83e-07         22747
     2.84e-07         22741
     2.85e-07       22734.9
     2.86e-07       22728.9
     2.87e-07       22722.9
     2.88e-07       22716.9
     2.89e-07       22710.9
      2.9e-07       22704.9
     2.91e-07       22698.9
     2.92e-07       22692.9
     2.93e-07         22687
     2.94e-07         22681
     2.95e-07         22675
     2.96e-07         22669
     2.97e-07       22663.1
     2.98e-07       22657.1
     2.99e-07       22651.2
        3e-07       22645.2
     3.01e-07       22639.3
     3.02e-07       22633.3
     3.03e-07       22627.4
     3.04e-07       22621.5
     3.05e-07       22615.6
     3.06e-07       22609.6
     3.07e-07       22603.7
     3.08e-07       22597.8
     3.09e-07       22591.9
      3.1e-07         22586
     3.11e-07       22580.1
     3.12e-07       22574.2
     3.13e-07       22568.3
     3.14e-07       22562.4
     3.15e-07       22556.6
     3.16e-07       22550.7
     3.17e-07       22544.8
     3.18e-07         22539
     3.19e-07       22533.1
      3.2e-07       22527.2
     3.21e-07       22521.4
     3.22e-07       22515.5
     3.23e-07       22509.7
     3.24e-07       22503.9
     3.25e-07         22498
     3.26e-07       22492.2
     3.27e-07       22486.4
     3.28e-07       22480.6
     3.29e-07       22474.8
      3.3e-07         22469
     3.31e-07       22463.1
     3.32e-07       22457.4
     3.33e-07       22451.6
     3.34e-07       22445.8
     3.35e-07         22440
     3.36e-07       22434.2
     3.37e-07       22428.4
     3.38e-07       22422.7
     3.39e-07       22416.9
      3.4e-07       22411.1
     3.41e-07       22405.4
     3.42e-07       22399.6
     3.43e-07       22393.9
     3.44e-07       22388.1
     3.45e-07       22382.4
     3.46e-07       22376.7
     3.47e-07       22370.9
     3.48e-07       22365.2
     3.49e-07       22359.5
      3.5e-07       22353.8
     3.51e-07       22348.1
     3.52e-07       22342.4
     3.53e-07       22336.7
     3.54e-07         22331
     3.55e-07       22325.3
     3.56e-07       22319.6
     3.57e-07       22313.9
     3.58e-07       22308.3
     3.59e-07       22302.6
      3.6e-07       22296.9
     3.61e-07       22291.3
     3.62e-07       22285.6
     3.63e-07         22280
     3.64e-07       22274.3
     3.65e-07       22268.7
     3.66e-07         22263
     3.67e-07       22257.4
     3.68e-07       22251.8
     3.69e-07       22246.2
      3.7e-07       22240.5
     3.71e-07       22234.9
     3.72e-07       22229.3
     3.73e-07       22223.7
     3.74e-07       22218.1
     3.75e-07       22212.5
     3.76e-07       22206.9
     3.77e-07       22201.4
     3.78e-07       22195.8
     3.79e-07       22190.2
      3.8e-07       22184.6
     3.81e-07       22179.1
     3.82e-07       22173.5
     3.83e-07         22168
     3.84e-07       22162.4
     3.85e-07       22156.9
     3.86e-07       22151.3
     3.87e-07       22145.8
     3.88e-07       22140.3
     3.89e-07       22134.7
      3.9e-07       22129.2
     3.91e-07       22123.7
     3.92e-07       22118.2
     3.93e-07       22112.7
     3.94e-07       22107.2
     3.95e-07       22101.7
     3.96e-07       22096.2
     3.97e-07       22090.7
     3.98e-07       22085.2
     3.99e-07       22079.8
        4e-07       22074.3
     4.01e-07       22068.8
     4.02e-07       22063.4
     4.03e-07       22057.9
     4.04e-07       22052.4
     4.05e-07         22047
     4.06e-07       22041.6
     4.07e-07       22036.1
     4.08e-07       22030.7
     4.09e-07       22025.3
      4.1e-07       22019.8
     4.11e-07       22014.4
     4.12e-07         22009
     4.13e-07       22003.6
     4.14e-07       21998.2
     4.15e-07       21992.8
     4.16e-07       21987.4
     4.17e-07         21982
     4.18e-07       21976.6
     4.19e-07       21971.2
      4.2e-07       21965.9
     4.21e-07       21960.5
     4.22e-07       21955.1
     4.23e-07       21949.8
     4.24e-07       21944.4
     4.25e-07       21939.1
     4.26e-07       21933.7
     4.27e-07       21928.4
     4.28e-07         21923
     4.29e-07       21917.7
      4.3e-07       21912.4
     4.31e-07       21907.1
     4.32e-07       21901.7
     4.33e-07       21896.4
     4.34e-07       21891.1
     4.35e-07       21885.8
     4.36e-07       21880.5
     4.37e-07       21875.2
     4.38e-07       21869.9
     4.39e-07       21864.7
      4.4e-07       21859.4
     4.41e-07       21854.1
     4.42e-07       21848.8
     4.43e-07       21843.6
     4.44e-07       21838.3
     4.45e-07       21833.1
     4.46e-07       21827.8
     4.47e-07       21822.6
     4.48e-07       21817.3
     4.49e-07       21812.1
      4.5e-07       21806.9
     4.51e-07       21801.7
     4.52e-07       21796.4
     4.53e-07       21791.2
     4.54e-07         21786
     4.55e-07       21780.8
     4.56e-07       21775.6
     4.57e-07       21770.4
     4.58e-07       21765.2
     4.59e-07         21760
      4.6e-07       21754.9
     4.61e-07       21749.7
     4.62e-07       21744.5
     4.63e-07       21739.3
     4.64e-07       21734.2
     4.65e-07         21729
     4.66e-07       21723.9
     4.67e-07       21718.7
     4.68e-07       21713.6
     4.69e-07       21708.4
      4.7e-07       21703.3
     4.71e-07       21698.2
     4.72e-07       21693.1
     4.73e-07       21687.9
     4.74e-07       21682.8
     4.75e-07       21677.7
     4.76e-07       21672.6
     4.77e-07       21667.5
     4.78e-07       21662.4
     4.79e-07       21657.3
      4.8e-07       21652.3
     4.81e-07       21647.2
     4.82e-07       21642.1
     4.83e-07         21637
     4.84e-07         21632
     4.85e-07       21626.9
     4.86e-07       21621.8
     4.87e-07       21616.8
     4.88e-07       21611.8
     4.89e-07       21606.7
      4.9e-07       21601.7
     4.91e-07       21596.6
     4.92e-07       21591.6
     4.93e-07       21586.6
     4.94e-07       21581.6
     4.95e-07       21576.6
     4.96e-07       21571.6
     4.97e-07       21566.6
     4.98e-07       21561.6
     4.99e-07       21556.6
        5e-07       21551.6
     5.01e-07       21546.6
     5.02e-07       21541.6
     5.03e-07       21536.6
     5.04e-07       21531.7
     5.05e-07       21526.7
     5.06e-07       21521.8
     5.07e-07       21516.8
     5.08e-07       21511.8
     5.09e-07       21506.9
      5.1e-07         21502
     5.11e-07         21497
     5.12e-07       21492.1
     5.13e-07       21487.2
     5.14e-07       21482.3
     5.15e-07       21477.3
     5.16e-07       21472.4
     5.17e-07       21467.5
     5.18e-07       21462.6
     5.19e-07       21457.7
      5.2e-07       21452.8
     5.21e-07       21447.9
     5.22e-07       21443.1
     5.23e-07       21438.2
     5.24e-07       21433.3
     5.25e-07       21428.4
     5.26e-07       21423.6
     5.27e-07       21418.7
     5.28e-07       21413.8
     5.29e-07         21409
      5.3e-07       21404.2
     5.31e-07       21399.3
     5.32e-07       21394.5
     5.33e-07       21389.6
     5.34e-07       21384.8
     5.35e-07         21380
     5.36e-07       21375.2
     5.37e-07       21370.4
     5.38e-07       21365.6
     5.39e-07       21360.8
      5.4e-07         21356
     5.41e-07       21351.2
     5.42e-07       21346.4
     5.43e-07       21341.6
     5.44e-07       21336.8
     5.45e-07         21332
     5.46e-07       21327.3
     5.47e-07       21322.5
     5.48e-07       21317.7
     5.49e-07         21313
      5.5e-07       21308.2
     5.51e-07       21303.5
     5.52e-07       21298.7
     5.53e-07         21294
     5.54e-07       21289.3
     5.55e-07       21284.5
     5.56e-07       21279.8
     5.57e-07       21275.1
     5.58e-07       21270.4
     5.59e-07       21265.7
      5.6e-07         21261
     5.61e-07       21256.3
     5.62e-07       21251.6
     5.63e-07       21246.9
     5.64e-07       21242.2
     5.65e-07       21237.5
     5.66e-07       21232.8
     5.67e-07       21228.2
     5.68e-07       21223.5
     5.69e-07       21218.8
      5.7e-07       21214.2
     5.71e-07       21209.5
     5.72e-07       21204.9
     5.73e-07       21200.2
     5.74e-07       21195.6
     5.75e-07       21190.9
     5.76e-07       21186.3
     5.77e-07       21181.7
     5.78e-07         21177
     5.79e-07       21172.4
      5.8e-07       21167.8
     5.81e-07       21163.2
     5.82e-07       21158.6
     5.83e-07         21154
     5.84e-07       21149.4
     5.85e-07       21144.8
     5.86e-07       21140.2
     5.87e-07       21135.6
     5.88e-07       21131.1
     5.89e-07       21126.5
      5.9e-07       21121.9
     5.91e-07       21117.4
     5.92e-07       21112.8
     5.93e-07       21108.2
     5.94e-07       21103.7
     5.95e-07       21099.1
     5.96e-07       21094.6
     5.97e-07       21090.1
     5.98e-07       21085.5
     5.99e-07         21081
        6e-07       21076.5
     6.01e-07         21072
     6.02e-07       21067.4
     6.03e-07       21062.9
     6.04e-07       21058.4
     6.05e-07       21053.9
     6.06e-07       21049.4
     6.07e-07       21044.9
     6.08e-07       21040.5
     6.09e-07         21036
      6.1e-07       21031.5
     6.11e-07         21027
     6.12e-07       21022.5
     6.13e-07       21018.1
     6.14e-07       21013.6
     6.15e-07       21009.2
     6.16e-07       21004.7
     6.17e-07       21000.3
     6.18e-07       20995.8
     6.19e-07       20991.4
      6.2e-07       20986.9
     6.21e-07       20982.5
     6.22e-07       20978.1
     6.23e-07       20973.7
     6.24e-07       20969.2
     6.25e-07       20964.8
     6.26e-07       20960.4
     6.27e-07         20956
     6.28e-07       20951.6
     6.29e-07       20947.2
      6.3e-07       20942.8
     6.31e-07       20938.4
     6.32e-07       20934.1
     6.33e-07       20929.7
     6.34e-07       20925.3
     6.35e-07       20920.9
     6.36e-07       20916.6
     6.37e-07       20912.2
     6.38e-07       20907.9
     6.39e-07       20903.5
      6.4e-07       20899.2
     6.41e-07       20894.8
     6.42e-07       20890.5
     6.43e-07       20886.1
     6.44e-07       20881.8
     6.45e-07       20877.5
     6.46e-07       20873.2
     6.47e-07       20868.8
     6.48e-07       20864.5
     6.49e-07       20860.2
      6.5e-07       20855.9
     6.51e-07       20851.6
     6.52e-07       20847.3
     6.53e-07         20843
     6.54e-07       20838.7
     6.55e-07       20834.4
     6.56e-07       20830.2
     6.57e-07       20825.9
     6.58e-07       20821.6
     6.59e-07       20817.4
      6.6e-07       20813.1
     6.61e-07       20808.8
     6.62e-07       20804.6
     6.63e-07       20800.3
     6.64e-07       20796.1
     6.65e-07       20791.8
     6.66e-07       20787.6
     6.67e-07       20783.4
     6.68e-07       20779.1
     6.69e-07       20774.9
      6.7e-07       20770.7
     6.71e-07       20766.5
     6.72e-07       20762.3
     6.73e-07       20758.1
     6.74e-07       20753.9
     6.75e-07       20749.7
     6.76e-07       20745.5
     6.77e-07       20741.3
     6.78e-07       20737.1
     6.79e-07       20732.9
      6.8e-07       20728.7
     6.81e-07       20724.5
     6.82e-07       20720.4
     6.83e-07       20716.2
     6.84e-07         20712
     6.85e-07       20707.9
     6.86e-07       20703.7
     6.87e-07       20699.6
     6.88e-07       20695.4
     6.89e-07       20691.3
      6.9e-07       20687.2
     6.91e-07         20683
     6.92e-07       20678.9
     6.93e-07       20674.8
     6.94e-07       20670.6
     6.95e-07       20666.5
     6.96e-07       20662.4
     6.97e-07       20658.3
     6.98e-07       20654.2
     6.99e-07       20650.1
        7e-07         20646
     7.01e-07       20641.9
     7.02e-07       20637.8
     7.03e-07       20633.7
     7.04e-07       20629.7
     7.05e-07       20625.6
     7.06e-07       20621.5
     7.07e-07       20617.4
     7.08e-07       20613.4
     7.09e-07       20609.3
      7.1e-07       20605.3
     7.11e-07       20601.2
     7.12e-07       20597.2
     7.13e-07       20593.1
     7.14e-07       20589.1
     7.15e-07         20585
     7.16e-07         20581
     7.17e-07         20577
     7.18e-07         20573
     7.19e-07       20568.9
      7.2e-07       20564.9
     7.21e-07       20560.9
     7.22e-07       20556.9
     7.23e-07       20552.9
     7.24e-07       20548.9
     7.25e-07       20544.9
     7.26e-07       20540.9
     7.27e-07       20536.9
     7.28e-07       20532.9
     7.29e-07       20528.9
      7.3e-07         20525
     7.31e-07         20521
     7.32e-07         20517
     7.33e-07       20513.1
     7.34e-07       20509.1
     7.35e-07       20505.1
     7.36e-07       20501.2
     7.37e-07       20497.2
     7.38e-07       20493.3
     7.39e-07       20489.3
      7.4e-07       20485.4
     7.41e-07       20481.5
     7.42e-07       20477.5
     7.43e-07       20473.6
     7.44e-07       20469.7
     7.45e-07       20465.8
     7.46e-07       20461.9
     7.47e-07       20457.9
     7.48e-07         20454
     7.49e-07       20450.1
      7.5e-07       20446.2
     7.51e-07       20442.3
     7.52e-07       20438.4
     7.53e-07       20434.6
     7.54e-07       20430.7
     7.55e-07       20426.8
     7.56e-07       20422.9
     7.57e-07         20419
     7.58e-07       20415.2
     7.59e-07       20411.3
      7.6e-07       20407.5
     7.61e-07       20403.6
     7.62e-07       20399.7
     7.63e-07       20395.9
     7.64e-07         20392
     7.65e-07       20388.2
     7.66e-07       20384.4
     7.67e-07       20380.5
     7.68e-07       20376.7
     7.69e-07       20372.9
      7.7e-07         20369
     7.71e-07       20365.2
     7.72e-07       20361.4
     7.73e-07       20357.6
     7.74e-07       20353.8
     7.75e-07         20350
     7.76e-07       20346.2
     7.77e-07       20342.4
     7.78e-07       20338.6
     7.79e-07       20334.8
      7.8e-07         20331
     7.81e-07       20327.2
     7.82e-07       20323.4
     7.83e-07       20319.7
     7.84e-07       20315.9
     7.85e-07       20312.1
     7.86e-07       20308.4
     7.87e-07       20304.6
     7.88e-07       20300.8
     7.89e-07       20297.1
      7.9e-07       20293.3
     7.91e-07       20289.6
     7.92e-07       20285.9
     7.93e-07       20282.1
     7.94e-07       20278.4
     7.95e-07       20274.6
     7.96e-07       20270.9
     7.97e-07       20267.2
     7.98e-07       20263.5
     7.99e-07       20259.8
        8e-07         20256
     8.01e-07       20252.3
     8.02e-07       20248.6
     8.03e-07       20244.9
     8.04e-07       20241.2
     8.05e-07       20237.5
     8.06e-07       20233.8
     8.07e-07       20230.2
     8.08e-07       20226.5
     8.09e-07       20222.8
      8.1e-07       20219.1
     8.11e-07       20215.4
     8.12e-07       20211.8
     8.13e-07       20208.1
     8.14e-07       20204.4
     8.15e-07       20200.8
     8.16e-07       20197.1
     8.17e-07       20193.5
     8.18e-07       20189.8
     8.19e-07       20186.2
      8.2e-07       20182.5
     8.21e-07       20178.9
     8.22e-07       20175.3
     8.23e-07       20171.6
     8.24e-07         20168
     8.25e-07       20164.4
     8.26e-07       20160.7
     8.27e-07       20157.1
     8.28e-07       20153.5
     8.29e-07       20149.9
      8.3e-07       20146.3
     8.31e-07       20142.7
     8.32e-07       20139.1
     8.33e-07       20135.5
     8.34e-07       20131.9
     8.35e-07       20128.3
     8.36e-07       20124.7
     8.37e-07       20121.1
     8.38e-07       20117.6
     8.39e-07         20114
      8.4e-07       20110.4
     8.41e-07       20106.8
     8.42e-07       20103.3
     8.43e-07       20099.7
     8.44e-07       20096.2
     8.45e-07       20092.6
     8.46e-07       20089.1
     8.47e-07       20085.5
     8.48e-07         20082
     8.49e-07       20078.4
      8.5e-07       20074.9
     8.51e-07       20071.3
     8.52e-07       20067.8
     8.53e-07       20064.3
     8.54e-07       20060.8
     8.55e-07       20057.2
     8.56e-07       20053.7
     8.57e-07       20050.2
     8.58e-07       20046.7
     8.59e-07       20043.2
      8.6e-07       20039.7
     8.61e-07       20036.2
     8.62e-07       20032.7
     8.63e-07       20029.2
     8.64e-07       20025.7
     8.65e-07       20022.2
     8.66e-07       20018.7
     8.67e-07       20015.2
     8.68e-07       20011.8
     8.69e-07       20008.3
      8.7e-07       20004.8
     8.71e-07       20001.4
     8.72e-07       19997.9
     8.73e-07       19994.4
     8.74e-07         19991
     8.75e-07       19987.5
     8.76e-07       19984.1
     8.77e-07       19980.6
     8.78e-07       19977.2
     8.79e-07       19973.7
      8.8e-07       19970.3
     8.81e-07       19966.9
     8.82e-07       19963.4
     8.83e-07         19960
     8.84e-07       19956.6
     8.85e-07       19953.1
     8.86e-07       19949.7
     8.87e-07       19946.3
     8.88e-07       19942.9
     8.89e-07       19939.5
      8.9e-07       19936.1
     8.91e-07       19932.7
     8.92e-07       19929.3
     8.93e-07       19925.9
     8.94e-07       19922.5
     8.95e-07       19919.1
     8.96e-07       19915.7
     8.97e-07       19912.3
     8.98e-07         19909
     8.99e-07       19905.6
        9e-07       19902.2
     9.01e-07       19898.8
     9.02e-07       19895.5
     9.03e-07       19892.1
     9.04e-07       19888.7
     9.05e-07       19885.4
     9.06e-07         19882
     9.07e-07       19878.7
     9.08e-07       19875.3
     9.09e-07         19872
      9.1e-07       19868.6
     9.11e-07       19865.3
     9.12e-07         19862
     9.13e-07       19858.6
     9.14e-07       19855.3
     9.15e-07         19852
     9.16e-07       19848.7
     9.17e-07       19845.3
     9.18e-07         19842
     9.19e-07       19838.7
      9.2e-07       19835.4
     9.21e-07       19832.1
     9.22e-07       19828.8
     9.23e-07       19825.5
     9.24e-07       19822.2
     9.25e-07       19818.9
     9.26e-07       19815.6
     9.27e-07       19812.3
     9.28e-07         19809
     9.29e-07       19805.7
      9.3e-07       19802.5
     9.31e-07       19799.2
     9.32e-07       19795.9
     9.33e-07       19792.6
     9.34e-07       19789.4
     9.35e-07       19786.1
     9.36e-07       19782.8
     9.37e-07       19779.6
     9.38e-07       19776.3
     9.39e-07       19773.1
      9.4e-07       19769.8
     9.41e-07       19766.6
     9.42e-07       19763.3
     9.43e-07       19760.1
     9.44e-07       19756.9
     9.45e-07       19753.6
     9.46e-07       19750.4
     9.47e-07       19747.2
     9.48e-07       19743.9
     9.49e-07       19740.7
      9.5e-07       19737.5
     9.51e-07       19734.3
     9.52e-07       19731.1
     9.53e-07       19727.9
     9.54e-07       19724.7
     9.55e-07       19721.5
     9.56e-07       19718.3
     9.57e-07       19715.1
     9.58e-07       19711.9
     9.59e-07       19708.7
      9.6e-07       19705.5
     9.61e-07       19702.3
     9.62e-07       19699.1
     9.63e-07       19695.9
     9.64e-07       19692.7
     9.65e-07       19689.6
     9.66e-07       19686.4
     9.67e-07       19683.2
     9.68e-07       19680.1
     9.69e-07       19676.9
      9.7e-07       19673.7
     9.71e-07       19670.6
     9.72e-07       19667.4
     9.73e-07       19664.3
     9.74e-07       19661.1
     9.75e-07         19658
     9.76e-07       19654.8
     9.77e-07       19651.7
     9.78e-07       19648.6
     9.79e-07       19645.4
      9.8e-07       19642.3
     9.81e-07       19639.2
     9.82e-07       19636.1
     9.83e-07       19632.9
     9.84e-07       19629.8
     9.85e-07       19626.7
     9.86e-07       19623.6
     9.87e-07       19620.5
     9.88e-07       19617.4
     9.89e-07       19614.3
      9.9e-07       19611.2
     9.91e-07       19608.1
     9.92e-07         19605
     9.93e-07       19601.9
     9.94e-07       19598.8
     9.95e-07       19595.7
     9.96e-07       19592.6
     9.97e-07       19589.5
     9.98e-07       19586.4
     9.99e-07       19583.4
        1e-06       19580.3
    1.001e-06       19577.2
    1.002e-06       19574.1
    1.003e-06       19571.1
    1.004e-06         19568
    1.005e-06         19565
    1.006e-06       19561.9
    1.007e-06       19558.8
    1.008e-06       19555.8
    1.009e-06       19552.7
     1.01e-06       19549.7
    1.011e-06       19546.6
    1.012e-06       19543.6
    1.013e-06       19540.6
    1.014e-06       19537.5
    1.015e-06       19534.5
    1.016e-06       19531.5
    1.017e-06       19528.4
    1.018e-06       19525.4
    1.019e-06       19522.4
     1.02e-06       19519.4
    1.021e-06       19516.4
    1.022e-06       19513.4
    1.023e-06       19510.3
    1.024e-06       19507.3
    1.025e-06       19504.3
    1.026e-06       19501.3
    1.027e-06       19498.3
    1.028e-06       19495.3
    1.029e-06       19492.3
     1.03e-06       19489.3
    1.031e-06       19486.4
    1.032e-06       19483.4
    1.033e-06       19480.4
    1.034e-06       19477.4
    1.035e-06       19474.4
    1.036e-06       19471.4
    1.037e-06       19468.5
    1.038e-06       19465.5
    1.039e-06       19462.5
     1.04e-06       19459.6
    1.041e-06       19456.6
    1.042e-06       19453.7
    1.043e-06       19450.7
    1.044e-06       19447.7
    1.045e-06       19444.8
    1.046e-06       19441.8
    1.047e-06       19438.9
    1.048e-06         19436
    1.049e-06         19433
     1.05e-06       19430.1
    1.051e-06       19427.1
    1.052e-06       19424.2
    1.053e-06       19421.3
    1.054e-06       19418.3
    1.055e-06       19415.4
    1.056e-06       19412.5
    1.057e-06       19409.6
    1.058e-06       19406.7
    1.059e-06       19403.7
     1.06e-06       19400.8
    1.061e-06       19397.9
    1.062e-06         19395
    1.063e-06       19392.1
    1.064e-06       19389.2
    1.065e-06       19386.3
    1.066e-06       19383.4
    1.067e-06       19380.5
    1.068e-06       19377.6