# Probe 0 (5e-06 5e-06 5e-06)
#       Probe             0
#        Time
        1e-09       28593.8
        2e-09       28286.4
        3e-09       28024.5
        4e-09       27796.4
        5e-09       27594.7
        6e-09       27414.1
        7e-09       27251.1
        8e-09       27102.7
        9e-09       26966.8
        1e-08       26841.8
      1.1e-08       26726.2
      1.2e-08       26618.9
      1.3e-08       26518.9
      1.4e-08       26425.5
      1.5e-08         26338
      1.6e-08       26255.7
      1.7e-08       26178.2
      1.8e-08       26105.1
      1.9e-08         26036
        2e-08       25970.4
      2.1e-08       25908.2
      2.2e-08       25849.1
      2.3e-08       25792.8
      2.4e-08       25739.1
      2.5e-08       25687.8
      2.6e-08       25638.8
      2.7e-08       25591.9
      2.8e-08       25546.9
      2.9e-08       25503.8
        3e-08       25462.3
      3.1e-08       25422.5
      3.2e-08       25384.2
      3.3e-08       25347.2
      3.4e-08       25311.6
      3.5e-08       25277.3
      3.6e-08       25244.1
      3.7e-08       25212.1
      3.8e-08       25181.1
      3.9e-08       25151.1
        4e-08         25122
      4.1e-08       25093.9
      4.2e-08       25066.5
      4.3e-08         25040
      4.4e-08       25014.3
      4.5e-08       24989.3
      4.6e-08       24964.9
      4.7e-08       24941.2
      4.8e-08       24918.2
      4.9e-08       24895.8
        5e-08       24873.9
      5.1e-08       24852.6
      5.2e-08       24831.7
      5.3e-08       24811.4
      5.4e-08       24791.6
      5.5e-08       24772.2
      5.6e-08       24753.3
      5.7e-08       24734.8
      5.8e-08       24716.7
      5.9e-08       24698.9
        6e-08       24681.6
      6.1e-08       24664.6
      6.2e-08       24647.9
      6.3e-08       24631.5
      6.4e-08       24615.5
      6.5e-08       24599.8
      6.6e-08       24584.4
      6.7e-08       24569.2
      6.8e-08       24554.3
      6.9e-08       24539.7
        7e-08       24525.3
      7.1e-08       24511.2
      7.2e-08       24497.3
      7.3e-08       24483.6
      7.4e-08       24470.1
      7.5e-08       24456.9
      7.6e-08       24443.8
      7.7e-08       24430.9
      7.8e-08       24418.3
      7.9e-08       24405.8
        8e-08       24393.5
      8.1e-08       24381.3
      8.2e-08       24369.3
      8.3e-08       24357.5
      8.4e-08       24345.8
      8.5e-08       24334.3
      8.6e-08       24322.9
      8.7e-08       24311.6
      8.8e-08       24300.5
      8.9e-08       24289.5
        9e-08       24278.7
      9.1e-08       24267.9
      9.2e-08       24257.3
      9.3e-08       24246.8
      9.4e-08       24236.4
      9.5e-08       24226.1
      9.6e-08       24215.9
      9.7e-08       24205.9
      9.8e-08       24195.9
      9.9e-08         24186
        1e-07       24176.2
     1.01e-07       24166.5
     1.02e-07       24156.9
     1.03e-07       24147.3
     1.04e-07       24137.9
     1.05e-07       24128.5
     1.06e-07       24119.2
     1.07e-07         24110
     1.08e-07       24100.8
     1.09e-07       24091.7
      1.1e-07       24082.7
     1.11e-07       24073.8
     1.12e-07       24064.9
     1.13e-07       24056.1
     1.14e-07       24047.4
     1.15e-07       24038.7
     1.16e-07         24030
     1.17e-07       24021.5
     1.18e-07       24012.9
     1.19e-07       24004.5
      1.2e-07       23996.1
     1.21e-07       23987.7
     1.22e-07       23979.4
     1.23e-07       23971.1
     1.24e-07       23962.9
     1.25e-07       23954.7
     1.26e-07       23946.6
     1.27e-07       23938.5
     1.28e-07       23930.5
     1.29e-07       23922.5
      1.3e-07       23914.6
     1.31e-07       23906.6
     1.32e-07       23898.8
     1.33e-07       23890.9
     1.34e-07       23883.1
     1.35e-07       23875.4
     1.36e-07       23867.6
     1.37e-07       23859.9
     1.38e-07       23852.3
     1.39e-07       23844.6
      1.4e-07         23837
     1.41e-07       23829.5
     1.42e-07       23821.9
     1.43e-07       23814.4
     1.44e-07         23807
     1.45e-07       23799.5
     1.46e-07       23792.1
     1.47e-07       23784.7
     1.48e-07       23777.3
     1.49e-07         23770
      1.5e-07       23762.7
     1.51e-07       23755.4
     1.52e-07       23748.1
     1.53e-07       23740.9
     1.54e-07       23733.7
     1.55e-07       23726.5
     1.56e-07       23719.3
     1.57e-07       23712.1
     1.58e-07         23705
     1.59e-07       23697.9
      1.6e-07       23690.8
     1.61e-07       23683.7
     1.62e-07       23676.7
     1.63e-07       23669.7
     1.64e-07       23662.6
     1.65e-07       23655.7
     1.66e-07       23648.7
     1.67e-07       23641.7
     1.68e-07       23634.8
     1.69e-07       23627.9
      1.7e-07         23621
     1.71e-07       23614.1
     1.72e-07       23607.2
     1.73e-07       23600.3
     1.74e-07       23593.5
     1.75e-07       23586.7
     1.76e-07       23579.9
     1.77e-07       23573.1
     1.78e-07       23566.3
     1.79e-07       23559.5
      1.8e-07       23552.8
     1.81e-07         23546
     1.82e-07       23539.3
     1.83e-07       23532.6
     1.84e-07       23525.9
     1.85e-07       23519.2
     1.86e-07       23512.5
     1.87e-07       23505.9
     1.88e-07       23499.2
     1.89e-07       23492.6
      1.9e-07       23485.9
     1.91e-07       23479.3
     1.92e-07       23472.7
     1.93e-07       23466.1
     1.94e-07       23459.6
     1.95e-07         23453
     1.96e-07       23446.4
     1.97e-07       23439.9
     1.98e-07       23433.3
     1.99e-07       23426.8
        2e-07       23420.3
     2.01e-07       23413.8
     2.02e-07       23407.3
     2.03e-07       23400.8
     2.04e-07       23394.3
     2.05e-07       23387.9
     2.06e-07       23381.4
     2.07e-07       23374.9
     2.08e-07       23368.5
     2.09e-07       23362.1
      2.1e-07       23355.7
     2.11e-07       23349.2
     2.12e-07       23342.8
     2.13e-07       23336.4
     2.14e-07         23330
     2.15e-07       23323.7
     2.16e-07       23317.3
     2.17e-07       23310.9
     2.18e-07       23304.6
     2.19e-07       23298.2
      2.2e-07       23291.9
     2.21e-07       23285.6
     2.22e-07       23279.2
     2.23e-07       23272.9
     2.24e-07       23266.6
     2.25e-07       23260.3
     2.26e-07         23254
     2.27e-07       23247.7
     2.28e-07       23241.4
     2.29e-07       23235.2
      2.3e-07       23228.9
     2.31e-07       23222.6
     2.32e-07       23216.4
     2.33e-07       23210.1
     2.34e-07       23203.9
     2.35e-07       23197.7
     2.36e-07       23191.4
     2.37e-07       23185.2
     2.38e-07         23179
     2.39e-07       23172.8
      2.4e-07       23166.6
     2.41e-07       23160.4
     2.42e-07       23154.2
     2.43e-07         23148
     2.44e-07       23141.9
     2.45e-07       23135.7
     2.46e-07       23129.5
     2.47e-07       23123.4
     2.48e-07       23117.2
     2.49e-07       23111.1
      2.5e-07         23105
     2.51e-07       23098.8
     2.52e-07       23092.7
     2.53e-07       23086.6
     2.54e-07       23080.5
     2.55e-07       23074.4
     2.56e-07       23068.3
     2.57e-07       23062.2
     2.58e-07       23056.1
     2.59e-07         23050
      2.6e-07       23043.9
     2.61e-07       23037.8
     2.62e-07       23031.8
     2.63e-07       23025.7
     2.64e-07       23019.7
     2.65e-07       23013.6
     2.66e-07       23007.6
     2.67e-07       23001.5
     2.68e-07       22995.5
     2.69e-07       22989.5
      2.7e-07       22983.4
     2.71e-07       22977.4
     2.72e-07       22971.4
     2.73e-07       22965.4
     2.74e-07       22959.4
     2.75e-07       22953.4
     2.76e-07       22947.4
     2.77e-07       22941.4
     2.78e-07       22935.5
     2.79e-07       22929.5
      2.8e-07       22923.5
     2.81e-07       22917.5
     2.82e-07       22911.6
     2.83e-07       22905.6
     2.84e-07       22899.7
     2.85e-07       22893.7
     2.86e-07       22887.8
     2.87e-07       22881.9
     2.88e-07       22875.9
     2.89e-07         22870
      2.9e-07       22864.1
     2.91e-07       22858.2
     2.92e-07       22852.3
     2.93e-07       22846.4
     2.94e-07       22840.5
     2.95e-07       22834.6
     2.96e-07       22828.7
     2.97e-07       22822.8
     2.98e-07       22816.9
     2.99e-07         22811
        3e-07       22805.2
     3.01e-07       22799.3
     3.02e-07       22793.4
     3.03e-07       22787.6
     3.04e-07       22781.7
     3.05e-07       22775.9
     3.06e-07         22770
     3.07e-07       22764.2
     3.08e-07       22758.4
     3.09e-07       22752.6
      3.1e-07       22746.7
     3.11e-07       22740.9
     3.12e-07       22735.1
     3.13e-07       22729.3
     3.14e-07       22723.5
     3.15e-07       22717.7
     3.16e-07       22711.9
     3.17e-07       22706.1
     3.18e-07       22700.3
     3.19e-07       22694.6
      3.2e-07       22688.8
     3.21e-07         22683
     3.22e-07       22677.2
     3.23e-07       22671.5
     3.24e-07       22665.7
     3.25e-07         22660
     3.26e-07       22654.2
     3.27e-07       22648.5
     3.28e-07       22642.8
     3.29e-07         22637
      3.3e-07       22631.3
     3.31e-07       22625.6
     3.32e-07       22619.9
     3.33e-07       22614.2
     3.34e-07       22608.4
     3.35e-07       22602.7
     3.36e-07         22597
     3.37e-07       22591.3
     3.38e-07       22585.7
     3.39e-07         22580
      3.4e-07       22574.3
     3.41e-07       22568.6
     3.42e-07       22562.9
     3.43e-07       22557.3
     3.44e-07       22551.6
     3.45e-07         22546
     3.46e-07       22540.3
     3.47e-07       22534.7
     3.48e-07         22529
     3.49e-07       22523.4
      3.5e-07       22517.8
     3.51e-07       22512.1
     3.52e-07       22506.5
     3.53e-07       22500.9
     3.54e-07       22495.3
     3.55e-07       22489.7
     3.56e-07         22484
     3.57e-07       22478.4
     3.58e-07       22472.9
     3.59e-07       22467.3
      3.6e-07       22461.7
     3.61e-07       22456.1
     3.62e-07       22450.5
     3.63e-07       22444.9
     3.64e-07       22439.4
     3.65e-07       22433.8
     3.66e-07       22428.2
     3.67e-07       22422.7
     3.68e-07       22417.1
     3.69e-07       22411.6
      3.7e-07         22406
     3.71e-07       22400.5
     3.72e-07         22395
     3.73e-07       22389.5
     3.74e-07       22383.9
     3.75e-07       22378.4
     3.76e-07       22372.9
     3.77e-07       22367.4
     3.78e-07       22361.9
     3.79e-07       22356.4
      3.8e-07       22350.9
     3.81e-07       22345.4
     3.82e-07       22339.9
     3.83e-07       22334.4
     3.84e-07         22329
     3.85e-07       22323.5
     3.86e-07         22318
     3.87e-07       22312.5
     3.88e-07       22307.1
     3.89e-07       22301.6
      3.9e-07       22296.2
     3.91e-07       22290.7
     3.92e-07       22285.3
     3.93e-07       22279.9
     3.94e-07       22274.4
     3.95e-07         22269
     3.96e-07       22263.6
     3.97e-07       22258.2
     3.98e-07       22252.7
     3.99e-07       22247.3
        4e-07       22241.9
     4.01e-07       22236.5
     4.02e-07       22231.1
     4.03e-07       22225.7
     4.04e-07       22220.4
     4.05e-07         22215
     4.06e-07       22209.6
     4.07e-07       22204.2
     4.08e-07       22198.9
     4.09e-07       22193.5
      4.1e-07       22188.1
     4.11e-07       22182.8
     4.12e-07       22177.4
     4.13e-07       22172.1
     4.14e-07       22166.7
     4.15e-07       22161.4
     4.16e-07       22156.1
     4.17e-07       22150.8
     4.18e-07       22145.4
     4.19e-07       22140.1
      4.2e-07       22134.8
     4.21e-07       22129.5
     4.22e-07       22124.2
     4.23e-07       22118.9
     4.24e-07       22113.6
     4.25e-07       22108.3
     4.26e-07         22103
     4.27e-07       22097.7
     4.28e-07       22092.5
     4.29e-07       22087.2
      4.3e-07       22081.9
     4.31e-07       22076.6
     4.32e-07       22071.4
     4.33e-07       22066.1
     4.34e-07       22060.9
     4.35e-07       22055.6
     4.36e-07       22050.4
     4.37e-07       22045.2
     4.38e-07       22039.9
     4.39e-07       22034.7
      4.4e-07       22029.5
     4.41e-07       22024.3
     4.42e-07         22019
     4.43e-07       22013.8
     4.44e-07       22008.6
     4.45e-07       22003.4
     4.46e-07       21998.2
     4.47e-07         21993
     4.48e-07       21987.9
     4.49e-07       21982.7
      4.5e-07       21977.5
     4.51e-07       21972.3
     4.52e-07       21967.2
     4.53e-07         21962
     4.54e-07       21956.8
     4.55e-07       21951.7
     4.56e-07       21946.5
     4.57e-07       21941.4
     4.58e-07       21936.2
     4.59e-07       21931.1
      4.6e-07         21926
     4.61e-07       21920.8
     4.62e-07       21915.7
     4.63e-07       21910.6
     4.64e-07       21905.5
     4.65e-07       21900.4
     4.66e-07       21895.3
     4.67e-07       21890.2
     4.68e-07       21885.1
     4.69e-07         21880
      4.7e-07       21874.9
     4.71e-07       21869.8
     4.72e-07       21864.7
     4.73e-07       21859.6
     4.74e-07       21854.6
     4.75e-07       21849.5
     4.76e-07       21844.4
     4.77e-07       21839.4
     4.78e-07       21834.3
     4.79e-07       21829.3
      4.8e-07       21824.2
     4.81e-07       21819.2
     4.82e-07       21814.2
     4.83e-07       21809.1
     4.84e-07       21804.1
     4.85e-07       21799.1
     4.86e-07       21794.1
     4.87e-07       21789.1
     4.88e-07       21784.1
     4.89e-07       21779.1
      4.9e-07       21774.1
     4.91e-07       21769.1
     4.92e-07       21764.1
     4.93e-07       21759.1
     4.94e-07       21754.1
     4.95e-07       21749.1
     4.96e-07       21744.2
     4.97e-07       21739.2
     4.98e-07       21734.2
     4.99e-07       21729.3
        5e-07       21724.3
     5.01e-07       21719.4
     5.02e-07       21714.4
     5.03e-07       21709.5
     5.04e-07       21704.5
     5.05e-07       21699.6
     5.06e-07       21694.7
     5.07e-07       21689.8
     5.08e-07       21684.8
     5.09e-07       21679.9
      5.1e-07         21675
     5.11e-07       21670.1
     5.12e-07       21665.2
     5.13e-07       21660.3
     5.14e-07       21655.4
     5.15e-07       21650.5
     5.16e-07       21645.6
     5.17e-07       21640.8
     5.18e-07       21635.9
     5.19e-07         21631
      5.2e-07       21626.1
     5.21e-07       21621.3
     5.22e-07       21616.4
     5.23e-07       21611.6
     5.24e-07       21606.7
     5.25e-07       21601.9
     5.26e-07         21597
     5.27e-07       21592.2
     5.28e-07       21587.4
     5.29e-07       21582.5
      5.3e-07       21577.7
     5.31e-07       21572.9
     5.32e-07       21568.1
     5.33e-07       21563.3
     5.34e-07       21558.5
     5.35e-07       21553.7
     5.36e-07       21548.9
     5.37e-07       21544.1
     5.38e-07       21539.3
     5.39e-07       21534.5
      5.4e-07       21529.7
     5.41e-07         21525
     5.42e-07       21520.2
     5.43e-07       21515.4
     5.44e-07       21510.7
     5.45e-07       21505.9
     5.46e-07       21501.1
     5.47e-07       21496.4
     5.48e-07       21491.6
     5.49e-07       21486.9
      5.5e-07       21482.2
     5.51e-07       21477.4
     5.52e-07       21472.7
     5.53e-07         21468
     5.54e-07       21463.3
     5.55e-07       21458.6
     5.56e-07       21453.8
     5.57e-07       21449.1
     5.58e-07       21444.4
     5.59e-07       21439.7
      5.6e-07         21435
     5.61e-07       21430.4
     5.62e-07       21425.7
     5.63e-07         21421
     5.64e-07       21416.3
     5.65e-07       21411.6
     5.66e-07         21407
     5.67e-07       21402.3
     5.68e-07       21397.6
     5.69e-07         21393
      5.7e-07       21388.3
     5.71e-07       21383.7
     5.72e-07       21379.1
     5.73e-07       21374.4
     5.74e-07       21369.8
     5.75e-07       21365.2
     5.76e-07       21360.5
     5.77e-07       21355.9
     5.78e-07       21351.3
     5.79e-07       21346.7
      5.8e-07       21342.1
     5.81e-07       21337.5
     5.82e-07       21332.9
     5.83e-07       21328.3
     5.84e-07       21323.7
     5.85e-07       21319.1
     5.86e-07       21314.5
     5.87e-07       21309.9
     5.88e-07       21305.4
     5.89e-07       21300.8
      5.9e-07       21296.2
     5.91e-07       21291.7
     5.92e-07       21287.1
     5.93e-07       21282.5
     5.94e-07         21278
     5.95e-07       21273.5
     5.96e-07       21268.9
     5.97e-07       21264.4
     5.98e-07       21259.8
     5.99e-07       21255.3
        6e-07       21250.8
     6.01e-07       21246.3
     6.02e-07       21241.7
     6.03e-07       21237.2
     6.04e-07       21232.7
     6.05e-07       21228.2
     6.06e-07       21223.7
     6.07e-07       21219.2
     6.08e-07       21214.7
     6.09e-07       21210.3
      6.1e-07       21205.8
     6.11e-07       21201.3
     6.12e-07       21196.8
     6.13e-07       21192.3
     6.14e-07       21187.9
     6.15e-07       21183.4
     6.16e-07         21179
     6.17e-07       21174.5
     6.18e-07       21170.1
     6.19e-07       21165.6
      6.2e-07       21161.2
     6.21e-07       21156.7
     6.22e-07       21152.3
     6.23e-07       21147.9
     6.24e-07       21143.4
     6.25e-07         21139
     6.26e-07       21134.6
     6.27e-07       21130.2
     6.28e-07       21125.8
     6.29e-07       21121.4
      6.3e-07         21117
     6.31e-07       21112.6
     6.32e-07       21108.2
     6.33e-07       21103.8
     6.34e-07       21099.4
     6.35e-07         21095
     6.36e-07       21090.7
     6.37e-07       21086.3
     6.38e-07       21081.9
     6.39e-07       21077.5
      6.4e-07       21073.2
     6.41e-07       21068.8
     6.42e-07       21064.5
     6.43e-07       21060.1
     6.44e-07       21055.8
     6.45e-07       21051.4
     6.46e-07       21047.1
     6.47e-07       21042.8
     6.48e-07       21038.4
     6.49e-07       21034.1
      6.5e-07       21029.8
     6.51e-07       21025.5
     6.52e-07       21021.2
     6.53e-07       21016.9
     6.54e-07       21012.6
     6.55e-07       21008.3
     6.56e-07         21004
     6.57e-07       20999.7
     6.58e-07       20995.4
     6.59e-07       20991.1
      6.6e-07       20986.8
     6.61e-07       20982.5
     6.62e-07       20978.3
     6.63e-07         20974
     6.64e-07       20969.7
     6.65e-07       20965.5
     6.66e-07       20961.2
     6.67e-07         20957
     6.68e-07       20952.7
     6.69e-07       20948.5
      6.7e-07       20944.2
     6.71e-07         20940
     6.72e-07       20935.8
     6.73e-07       20931.5
     6.74e-07       20927.3
     6.75e-07       20923.1
     6.76e-07       20918.9
     6.77e-07       20914.6
     6.78e-07       20910.4
     6.79e-07       20906.2
      6.8e-07         20902
     6.81e-07       20897.8
     6.82e-07       20893.6
     6.83e-07       20889.4
     6.84e-07       20885.3
     6.85e-07       20881.1
     6.86e-07       20876.9
     6.87e-07       20872.7
     6.88e-07       20868.5
     6.89e-07       20864.4
      6.9e-07       20860.2
     6.91e-07       20856.1
     6.92e-07       20851.9
     6.93e-07       20847.7
     6.94e-07       20843.6
     6.95e-07       20839.5
     6.96e-07       20835.3
     6.97e-07       20831.2
     6.98e-07         20827
     6.99e-07       20822.9
        7e-07       20818.8
     7.01e-07       20814.7
     7.02e-07       20810.6
     7.03e-07       20806.4
     7.04e-07       20802.3
     7.05e-07       20798.2
     7.06e-07       20794.1
     7.07e-07         20790
     7.08e-07       20785.9
     7.09e-07       20781.8
      7.1e-07       20777.7
     7.11e-07       20773.7
     7.12e-07       20769.6
     7.13e-07       20765.5
     7.14e-07       20761.4
     7.15e-07       20757.4
     7.16e-07       20753.3
     7.17e-07       20749.2
     7.18e-07       20745.2
     7.19e-07       20741.1
      7.2e-07       20737.1
     7.21e-07         20733
     7.22e-07         20729
     7.23e-07         20725
     7.24e-07       20720.9
     7.25e-07       20716.9
     7.26e-07       20712.9
     7.27e-07       20708.8
     7.28e-07       20704.8
     7.29e-07       20700.8
      7.3e-07       20696.8
     7.31e-07       20692.8
     7.32e-07       20688.8
     7.33e-07       20684.8
     7.34e-07       20680.8
     7.35e-07       20676.8
     7.36e-07       20672.8
     7.37e-07       20668.8
     7.38e-07       20664.8
     7.39e-07       20660.8
      7.4e-07       20656.9
     7.41e-07       20652.9
     7.42e-07       20648.9
     7.43e-07         20645
     7.44e-07         20641
     7.45e-07       20637.1
     7.46e-07       20633.1
     7.47e-07       20629.1
     7.48e-07       20625.2
     7.49e-07       20621.3
      7.5e-07       20617.3
     7.51e-07       20613.4
     7.52e-07       20609.5
     7.53e-07       20605.5
     7.54e-07       20601.6
     7.55e-07       20597.7
     7.56e-07       20593.8
     7.57e-07       20589.8
     7.58e-07       20585.9
     7.59e-07         20582
      7.6e-07       20578.1
     7.61e-07       20574.2
     7.62e-07       20570.3
     7.63e-07       20566.4
     7.64e-07       20562.6
     7.65e-07       20558.7
     7.66e-07       20554.8
     7.67e-07       20550.9
     7.68e-07         20547
     7.69e-07       20543.2
      7.7e-07       20539.3
     7.71e-07       20535.4
     7.72e-07       20531.6
     7.73e-07       20527.7
     7.74e-07       20523.9
     7.75e-07         20520
     7.76e-07       20516.2
     7.77e-07       20512.3
     7.78e-07       20508.5
     7.79e-07       20504.7
      7.8e-07       20500.8
     7.81e-07         20497
     7.82e-07       20493.2
     7.83e-07       20489.3
     7.84e-07       20485.5
     7.85e-07       20481.7
     7.86e-07       20477.9
     7.87e-07       20474.1
     7.88e-07       20470.3
     7.89e-07       20466.5
      7.9e-07       20462.7
     7.91e-07       20458.9
     7.92e-07       20455.1
     7.93e-07       20451.3
     7.94e-07       20447.5
     7.95e-07       20443.8
     7.96e-07         20440
     7.97e-07       20436.2
     7.98e-07       20432.5
     7.99e-07       20428.7
        8e-07       20424.9
     8.01e-07       20421.2
     8.02e-07       20417.4
     8.03e-07       20413.7
     8.04e-07       20409.9
     8.05e-07       20406.2
     8.06e-07       20402.4
     8.07e-07       20398.7
     8.08e-07         20395
     8.09e-07       20391.2
      8.1e-07       20387.5
     8.11e-07       20383.8
     8.12e-07         20380
     8.13e-07       20376.3
     8.14e-07       20372.6
     8.15e-07       20368.9
     8.16e-07       20365.2
     8.17e-07       20361.5
     8.18e-07       20357.8
     8.19e-07       20354.1
      8.2e-07       20350.4
     8.21e-07       20346.7
     8.22e-07         20343
     8.23e-07       20339.3
     8.24e-07       20335.7
     8.25e-07         20332
     8.26e-07       20328.3
     8.27e-07       20324.6
     8.28e-07         20321
     8.29e-07       20317.3
      8.3e-07       20313.6
     8.31e-07         20310
     8.32e-07       20306.3
     8.33e-07       20302.7
     8.34e-07         20299
     8.35e-07       20295.4
     8.36e-07       20291.8
     8.37e-07       20288.1
     8.38e-07       20284.5
     8.39e-07       20280.9
      8.4e-07       20277.2
     8.41e-07       20273.6
     8.42e-07         20270
     8.43e-07       20266.4
     8.44e-07       20262.8
     8.45e-07       20259.1
     8.46e-07       20255.5
     8.47e-07       20251.9
     8.48e-07       20248.3
     8.49e-07       20244.7
      8.5e-07       20241.1
     8.51e-07       20237.5
     8.52e-07         20234
     8.53e-07       20230.4
     8.54e-07       20226.8
     8.55e-07       20223.2
     8.56e-07       20219.6
     8.57e-07       20216.1
     8.58e-07       20212.5
     8.59e-07       20208.9
      8.6e-07       20205.4
     8.61e-07       20201.8
     8.62e-07       20198.3
     8.63e-07       20194.7
     8.64e-07       20191.2
     8.65e-07       20187.6
     8.66e-07       20184.1
     8.67e-07       20180.5
     8.68e-07         20177
     8.69e-07       20173.5
      8.7e-07       20169.9
     8.71e-07       20166.4
     8.72e-07       20162.9
     8.73e-07       20159.4
     8.74e-07       20155.8
     8.75e-07       20152.3
     8.76e-07       20148.8
     8.77e-07       20145.3
     8.78e-07       20141.8
     8.79e-07       20138.3
      8.8e-07       20134.8
     8.81e-07       20131.3
     8.82e-07       20127.8
     8.83e-07       20124.3
     8.84e-07       20120.9
     8.85e-07       20117.4
     8.86e-07       20113.9
     8.87e-07       20110.4
     8.88e-07       20106.9
     8.89e-07       20103.5
      8.9e-07         20100
     8.91e-07       20096.5
     8.92e-07       20093.1
     8.93e-07       20089.6
     8.94e-07       20086.2
     8.95e-07       20082.7
     8.96e-07       20079.3
     8.97e-07       20075.8
     8.98e-07       20072.4
     8.99e-07       20068.9
        9e-07       20065.5
     9.01e-07       20062.1
     9.02e-07       20058.6
     9.03e-07       20055.2
     9.04e-07       20051.8
     9.05e-07       20048.4
     9.06e-07         20045
     9.07e-07       20041.5
     9.08e-07       20038.1
     9.09e-07       20034.7
      9.1e-07       20031.3
     9.11e-07       20027.9
     9.12e-07       20024.5
     9.13e-07       20021.1
     9.14e-07       20017.7
     9.15e-07       20014.3
     9.16e-07         20011
     9.17e-07       20007.6
     9.18e-07       20004.2
     9.19e-07       20000.8
      9.2e-07       19997.4
     9.21e-07       19994.1
     9.22e-07       19990.7
     9.23e-07       19987.3
     9.24e-07         19984
     9.25e-07       19980.6
     9.26e-07       19977.3
     9.27e-07       19973.9
     9.28e-07       19970.6
     9.29e-07       19967.2
      9.3e-07       19963.9
     9.31e-07       19960.5
     9.32e-07       19957.2
     9.33e-07       19953.8
     9.34e-07       19950.5
     9.35e-07       19947.2
     9.36e-07       19943.9
     9.37e-07       19940.5
     9.38e-07       19937.2
     9.39e-07       19933.9
      9.4e-07       19930.6
     9.41e-07       19927.3
     9.42e-07         19924
     9.43e-07       19920.6
     9.44e-07       19917.3
     9.45e-07         19914
     9.46e-07       19910.7
     9.47e-07       19907.5
     9.48e-07       19904.2
     9.49e-07       19900.9
      9.5e-07       19897.6
     9.51e-07       19894.3
     9.52e-07         19891
     9.53e-07       19887.7
     9.54e-07       19884.5
     9.55e-07       19881.2
     9.56e-07       19877.9
     9.57e-07       19874.7
     9.58e-07       19871.4
     9.59e-07       19868.1
      9.6e-07       19864.9
     9.61e-07       19861.6
     9.62e-07       19858.4
     9.63e-07       19855.1
     9.64e-07       19851.9
     9.65e-07       19848.7
     9.66e-07       19845.4
     9.67e-07       19842.2
     9.68e-07       19838.9
     9.69e-07       19835.7
      9.7e-07       19832.5
     9.71e-07       19829.3
     9.72e-07         19826
     9.73e-07       19822.8
     9.74e-07       19819.6
     9.75e-07       19816.4
     9.76e-07       19813.2
     9.77e-07         19810
     9.78e-07       19806.8
     9.79e-07       19803.6
      9.8e-07       19800.4
     9.81e-07       19797.2
     9.82e-07         19794
     9.83e-07       19790.8
     9.84e-07       19787.6
     9.85e-07       19784.4
     9.86e-07       19781.2
     9.87e-07         19778
     9.88e-07       19774.9
     9.89e-07       19771.7
      9.9e-07       19768.5
     9.91e-07       19765.3
     9.92e-07       19762.2
     9.93e-07         19759
     9.94e-07       19755.9
     9.95e-07       19752.7
     9.96e-07       19749.5
     9.97e-07       19746.4
     9.98e-07       19743.2
     9.99e-07       19740.1
        1e-06       19736.9
    1.001e-06       19733.8
    1.002e-06       19730.7
    1.003e-06       19727.5
    1.004e-06       19724.4
    1.005e-06       19721.3
    1.006e-06       19718.1
    1.007e-06         19715
    1.008e-06       19711.9
    1.009e-06       19708.8
     1.01e-06       19705.7
    1.011e-06       19702.5
    1.012e-06       19699.4
    1.013e-06       19696.3
    1.014e-06       19693.2
    1.015e-06       19690.1
    1.016e-06         19687
    1.017e-06       19683.9
    1.018e-06       19680.8
    1.019e-06       19677.7
     1.02e-06       19674.6
    1.021e-06       19671.5
    1.022e-06       19668.5
    1.023e-06       19665.4
    1.024e-06       19662.3
    1.025e-06       19659.2
    1.026e-06       19656.2
    1.027e-06       19653.1
    1.028e-06         19650
    1.029e-06       19646.9
     1.03e-06       19643.9
    1.031e-06       19640.8
    1.032e-06       19637.8
    1.033e-06       19634.7
    1.034e-06       19631.7
    1.035e-06       19628.6
    1.036e-06       19625.6
    1.037e-06       19622.5
    1.038e-06       19619.5
    1.039e-06       19616.4
     1.04e-06       19613.4
    1.041e-06       19610.4
    1.042e-06       19607.3
    1.043e-06       19604.3
    1.044e-06       19601.3
    1.045e-06       19598.3
    1.046e-06       19595.2
    1.047e-06       19592.2
    1.048e-06       19589.2
    1.049e-06       19586.2
     1.05e-06       19583.2
    1.051e-06       19580.2
    1.052e-06       19577.2
    1.053e-06       19574.2
    1.054e-06       19571.2
    1.055e-06       19568.2
    1.056e-06       19565.2
    1.057e-06       19562.2
    1.058e-06       19559.2
    1.059e-06       19556.2
     1.06e-06       19553.2
    1.061e-06       19550.2
    1.062e-06       19547.2
    1.063e-06       19544.3
    1.064e-06       19541.3
    1.065e-06       19538.3
    1.066e-06       19535.4
    1.067e-06       19532.4
    1.068e-06       19529.4