# Probe 0 (5e-06 5e-06 5e-06)
#       Probe             0
#        Time
        1e-09       29657.6
        2e-09       29331.7
        3e-09       29020.9
        4e-09       28724.4
        5e-09       28440.9
        6e-09       28169.8
        7e-09         27910
        8e-09       27660.9
        9e-09       27421.8
        1e-08       27192.1
      1.1e-08       26971.2
      1.2e-08       26758.5
      1.3e-08       26553.7
      1.4e-08       26356.1
      1.5e-08       26165.5
      1.6e-08       25981.4
      1.7e-08       25803.5
      1.8e-08       25631.5
      1.9e-08         25465
        2e-08       25303.7
      2.1e-08       25147.5
      2.2e-08         24996
      2.3e-08       24849.1
      2.4e-08       24706.5
      2.5e-08         24568
      2.6e-08       24433.4
      2.7e-08       24302.5
      2.8e-08       24175.3
      2.9e-08       24051.4
        3e-08       23930.9
      3.1e-08       23813.4
      3.2e-08         23699
      3.3e-08       23587.5
      3.4e-08       23478.7
      3.5e-08       23372.6
      3.6e-08       23269.1
      3.7e-08         23168
      3.8e-08       23069.2
      3.9e-08       22972.8
        4e-08       22878.5
      4.1e-08       22786.4
      4.2e-08       22696.2
      4.3e-08       22608.1
      4.4e-08       22521.8
      4.5e-08       22437.4
      4.6e-08       22354.7
      4.7e-08       22273.8
      4.8e-08       22194.5
      4.9e-08       22116.7
        5e-08       22040.6
      5.1e-08       21965.9
      5.2e-08       21892.7
      5.3e-08       21820.9
      5.4e-08       21750.4
      5.5e-08       21681.3
      5.6e-08       21613.4
      5.7e-08       21546.8
      5.8e-08       21481.3
      5.9e-08       21417.1
        6e-08         21354
      6.1e-08       21291.9
      6.2e-08         21231
      6.3e-08       21171.1
      6.4e-08       21112.2
      6.5e-08       21054.3
      6.6e-08       20997.3
      6.7e-08       20941.3
      6.8e-08       20886.2
      6.9e-08       20831.9
        7e-08       20778.6
      7.1e-08         20726
      7.2e-08       20674.3
      7.3e-08       20623.4
      7.4e-08       20573.2
      7.5e-08       20523.8
      7.6e-08       20475.2
      7.7e-08       20427.2
      7.8e-08         20380
      7.9e-08       20333.5
        8e-08       20287.6
      8.1e-08       20242.4
      8.2e-08       20197.8
      8.3e-08       20153.8
      8.4e-08       20110.5
      8.5e-08       20067.7
      8.6e-08       20025.5
      8.7e-08       19983.9
      8.8e-08       19942.9
      8.9e-08       19902.4
        9e-08       19862.4
      9.1e-08         19823
      9.2e-08         19784
      9.3e-08       19745.6
      9.4e-08       19707.6
      9.5e-08       19670.1
      9.6e-08       19633.1
      9.7e-08       19596.6
      9.8e-08       19560.5
      9.9e-08       19524.8
        1e-07       19489.6
     1.01e-07       19454.8
     1.02e-07       19420.4
     1.03e-07       19386.4
     1.04e-07       19352.8
     1.05e-07       19319.6
     1.06e-07       19286.8
     1.07e-07       19254.4
     1.08e-07       19222.3
     1.09e-07       19190.6
      1.1e-07       19159.2
     1.11e-07       19128.2
     1.12e-07       19097.6
     1.13e-07       19067.2
     1.14e-07       19037.2
     1.15e-07       19007.6
     1.16e-07       18978.2
     1.17e-07       18949.2
     1.18e-07       18920.4
     1.19e-07         18892
      1.2e-07       18863.8
     1.21e-07         18836
     1.22e-07       18808.4
     1.23e-07       18781.1
     1.24e-07       18754.1
     1.25e-07       18727.4
     1.26e-07       18700.9
     1.27e-07       18674.7
     1.28e-07       18648.8
     1.29e-07       18623.1
      1.3e-07       18597.6
     1.31e-07       18572.4
     1.32e-07       18547.4
     1.33e-07       18522.7
     1.34e-07       18498.2
     1.35e-07         18474
     1.36e-07       18449.9
     1.37e-07       18426.1
     1.38e-07       18402.5
     1.39e-07       18379.2
      1.4e-07         18356
     1.41e-07       18333.1
     1.42e-07       18310.3
     1.43e-07       18287.8
     1.44e-07       18265.4
     1.45e-07       18243.3
     1.46e-07       18221.3
     1.47e-07       18199.6
     1.48e-07         18178
     1.49e-07       18156.6
      1.5e-07       18135.4
     1.51e-07       18114.4
     1.52e-07       18093.6
     1.53e-07       18072.9
     1.54e-07       18052.4
     1.55e-07       18032.1
     1.56e-07       18011.9
     1.57e-07       17991.9
     1.58e-07       17972.1
     1.59e-07       17952.4
      1.6e-07       17932.9
     1.61e-07       17913.6
     1.62e-07       17894.4
     1.63e-07       17875.4
     1.64e-07       17856.5
     1.65e-07       17837.7
     1.66e-07       17819.1
     1.67e-07       17800.7
     1.68e-07       17782.4
     1.69e-07       17764.2
      1.7e-07       17746.2
     1.71e-07       17728.3
     1.72e-07       17710.5
     1.73e-07       17692.9
     1.74e-07       17675.4
     1.75e-07         17658
     1.76e-07       17640.8
     1.77e-07       17623.7
     1.78e-07       17606.7
     1.79e-07       17589.9
      1.8e-07       17573.1
     1.81e-07       17556.5
     1.82e-07         17540
     1.83e-07       17523.7
     1.84e-07       17507.4
     1.85e-07       17491.3
     1.86e-07       17475.2
     1.87e-07       17459.3
     1.88e-07       17443.5
     1.89e-07       17427.8
      1.9e-07       17412.2
     1.91e-07       17396.7
     1.92e-07       17381.4
     1.93e-07       17366.1
     1.94e-07       17350.9
     1.95e-07       17335.9
     1.96e-07       17320.9
     1.97e-07         17306
     1.98e-07       17291.3
     1.99e-07       17276.6
        2e-07         17262
     2.01e-07       17247.5
     2.02e-07       17233.2
     2.03e-07       17218.9
     2.04e-07       17204.7
     2.05e-07       17190.6
     2.06e-07       17176.5
     2.07e-07       17162.6
     2.08e-07       17148.8
     2.09e-07         17135
      2.1e-07       17121.4
     2.11e-07       17107.8
     2.12e-07       17094.3
     2.13e-07       17080.9
     2.14e-07       17067.6
     2.15e-07       17054.3
     2.16e-07       17041.2
     2.17e-07       17028.1
     2.18e-07       17015.1
     2.19e-07       17002.1
      2.2e-07       16989.3
     2.21e-07       16976.5
     2.22e-07       16963.8
     2.23e-07       16951.2
     2.24e-07       16938.7
     2.25e-07       16926.2
     2.26e-07       16913.8
     2.27e-07       16901.5
     2.28e-07       16889.2
     2.29e-07         16877
      2.3e-07       16864.9
     2.31e-07       16852.9
     2.32e-07       16840.9
     2.33e-07         16829
     2.34e-07       16817.1
     2.35e-07       16805.4
     2.36e-07       16793.7
     2.37e-07         16782
     2.38e-07       16770.4
     2.39e-07       16758.9
      2.4e-07       16747.5
     2.41e-07       16736.1
     2.42e-07       16724.8
     2.43e-07       16713.5
     2.44e-07       16702.3
     2.45e-07       16691.2
     2.46e-07       16680.1
     2.47e-07       16669.1
     2.48e-07       16658.1
     2.49e-07       16647.2
      2.5e-07       16636.4
     2.51e-07       16625.6
     2.52e-07       16614.8
     2.53e-07       16604.2
     2.54e-07       16593.5
     2.55e-07         16583
     2.56e-07       16572.5
     2.57e-07         16562
     2.58e-07       16551.6
     2.59e-07       16541.3
      2.6e-07         16531
     2.61e-07       16520.8
     2.62e-07       16510.6
     2.63e-07       16500.4
     2.64e-07       16490.3
     2.65e-07       16480.3
     2.66e-07       16470.3
     2.67e-07       16460.4
     2.68e-07       16450.5
     2.69e-07       16440.7
      2.7e-07       16430.9
     2.71e-07       16421.1
     2.72e-07       16411.4
     2.73e-07       16401.8
     2.74e-07       16392.2
     2.75e-07       16382.7
     2.76e-07       16373.1
     2.77e-07       16363.7
     2.78e-07       16354.3
     2.79e-07       16344.9
      2.8e-07       16335.6
     2.81e-07       16326.3
     2.82e-07       16317.1
     2.83e-07       16307.9
     2.84e-07       16298.7
     2.85e-07       16289.6
     2.86e-07       16280.5
     2.87e-07       16271.5
     2.88e-07       16262.5
     2.89e-07       16253.6
      2.9e-07       16244.7
     2.91e-07       16235.9
     2.92e-07         16227
     2.93e-07       16218.3
     2.94e-07       16209.5
     2.95e-07       16200.8
     2.96e-07       16192.2
     2.97e-07       16183.5
     2.98e-07         16175
     2.99e-07       16166.4
        3e-07       16157.9
     3.01e-07       16149.5
     3.02e-07         16141
     3.03e-07       16132.6
     3.04e-07       16124.3
     3.05e-07         16116
     3.06e-07       16107.7
     3.07e-07       16099.4
     3.08e-07       16091.2
     3.09e-07         16083
      3.1e-07       16074.9
     3.11e-07       16066.8
     3.12e-07       16058.7
     3.13e-07       16050.7
     3.14e-07       16042.7
     3.15e-07       16034.7
     3.16e-07       16026.8
     3.17e-07       16018.9
     3.18e-07         16011
     3.19e-07       16003.2
      3.2e-07       15995.4
     3.21e-07       15987.6
     3.22e-07       15979.9
     3.23e-07       15972.2
     3.24e-07       15964.5
     3.25e-07       15956.9
     3.26e-07       15949.3
     3.27e-07       15941.7
     3.28e-07       15934.1
     3.29e-07       15926.6
      3.3e-07       15919.1
     3.31e-07       15911.7
     3.32e-07       15904.2
     3.33e-07       15896.8
     3.34e-07       15889.5
     3.35e-07       15882.1
     3.36e-07       15874.8
     3.37e-07       15867.6
     3.38e-07       15860.3
     3.39e-07       15853.1
      3.4e-07       15845.9
     3.41e-07       15838.7
     3.42e-07       15831.6
     3.43e-07       15824.5
     3.44e-07       15817.4
     3.45e-07       15810.3
     3.46e-07       15803.3
     3.47e-07       15796.3
     3.48e-07       15789.3
     3.49e-07       15782.4
      3.5e-07       15775.5
     3.51e-07       15768.6
     3.52e-07       15761.7
     3.53e-07       15754.9
     3.54e-07       15748.1
     3.55e-07       15741.3
     3.56e-07       15734.5
     3.57e-07       15727.8
     3.58e-07         15721
     3.59e-07       15714.4
      3.6e-07       15707.7
     3.61e-07         15701
     3.62e-07       15694.4
     3.63e-07       15687.8
     3.64e-07       15681.3
     3.65e-07       15674.7
     3.66e-07       15668.2
     3.67e-07       15661.7
     3.68e-07       15655.2
     3.69e-07       15648.8
      3.7e-07       15642.4
     3.71e-07         15636
     3.72e-07       15629.6
     3.73e-07       15623.2
     3.74e-07       15616.9
     3.75e-07       15610.6
     3.76e-07       15604.3
     3.77e-07         15598
     3.78e-07       15591.8
     3.79e-07       15585.6
      3.8e-07       15579.4
     3.81e-07       15573.2
     3.82e-07       15567.1
     3.83e-07       15560.9
     3.84e-07       15554.8
     3.85e-07       15548.7
     3.86e-07       15542.6
     3.87e-07       15536.6
     3.88e-07       15530.6
     3.89e-07       15524.6
      3.9e-07       15518.6
     3.91e-07       15512.6
     3.92e-07       15506.7
     3.93e-07       15500.7
     3.94e-07       15494.8
     3.95e-07       15488.9
     3.96e-07       15483.1
     3.97e-07       15477.2
     3.98e-07       15471.4
     3.99e-07       15465.6
        4e-07       15459.8
     4.01e-07         15454
     4.02e-07       15448.3
     4.03e-07       15442.6
     4.04e-07       15436.8
     4.05e-07       15431.1
     4.06e-07       15425.5
     4.07e-07       15419.8
     4.08e-07       15414.2
     4.09e-07       15408.6
      4.1e-07         15403
     4.11e-07       15397.4
     4.12e-07       15391.8
     4.13e-07       15386.3
     4.14e-07       15380.7
     4.15e-07       15375.2
     4.16e-07       15369.7
     4.17e-07       15364.3
     4.18e-07       15358.8
     4.19e-07       15353.4
      4.2e-07         15348
     4.21e-07       15342.5
     4.22e-07       15337.2
     4.23e-07       15331.8
     4.24e-07       15326.4
     4.25e-07       15321.1
     4.26e-07       15315.8
     4.27e-07       15310.5
     4.28e-07       15305.2
     4.29e-07       15299.9
      4.3e-07       15294.7
     4.31e-07       15289.4
     4.32e-07       15284.2
     4.33e-07         15279
     4.34e-07       15273.8
     4.35e-07       15268.6
     4.36e-07       15263.5
     4.37e-07       15258.3
     4.38e-07       15253.2
     4.39e-07       15248.1
      4.4e-07         15243
     4.41e-07       15237.9
     4.42e-07       15232.9
     4.43e-07       15227.8
     4.44e-07       15222.8
     4.45e-07       15217.8
     4.46e-07       15212.8
     4.47e-07       15207.8
     4.48e-07       15202.8
     4.49e-07       15197.8
      4.5e-07       15192.9
     4.51e-07         15188
     4.52e-07       15183.1
     4.53e-07       15178.2
     4.54e-07       15173.3
     4.55e-07       15168.4
     4.56e-07       15163.5
     4.57e-07       15158.7
     4.58e-07       15153.9
     4.59e-07       15149.1
      4.6e-07       15144.3
     4.61e-07       15139.5
     4.62e-07       15134.7
     4.63e-07       15129.9
     4.64e-07       15125.2
     4.65e-07       15120.5
     4.66e-07       15115.7
     4.67e-07         15111
     4.68e-07       15106.3
     4.69e-07       15101.7
      4.7e-07         15097
     4.71e-07       15092.3
     4.72e-07       15087.7
     4.73e-07       15083.1
     4.74e-07       15078.5
     4.75e-07       15073.9
     4.76e-07       15069.3
     4.77e-07       15064.7
     4.78e-07       15060.2
     4.79e-07       15055.6
      4.8e-07       15051.1
     4.81e-07       15046.5
     4.82e-07         15042
     4.83e-07       15037.5
     4.84e-07       15033.1
     4.85e-07       15028.6
     4.86e-07       15024.1
     4.87e-07       15019.7
     4.88e-07       15015.2
     4.89e-07       15010.8
      4.9e-07       15006.4
     4.91e-07         15002
     4.92e-07       14997.6
     4.93e-07       14993.2
     4.94e-07       14988.9
     4.95e-07       14984.5
     4.96e-07       14980.2
     4.97e-07       14975.9
     4.98e-07       14971.5
     4.99e-07       14967.2
        5e-07       14962.9
     5.01e-07       14958.7
     5.02e-07       14954.4
     5.03e-07       14950.1
     5.04e-07       14945.9
     5.05e-07       14941.6
     5.06e-07       14937.4
     5.07e-07       14933.2
     5.08e-07         14929
     5.09e-07       14924.8
      5.1e-07       14920.6
     5.11e-07       14916.4
     5.12e-07       14912.3
     5.13e-07       14908.1
     5.14e-07         14904
     5.15e-07       14899.9
     5.16e-07       14895.8
     5.17e-07       14891.6
     5.18e-07       14887.5
     5.19e-07       14883.5
      5.2e-07       14879.4
     5.21e-07       14875.3
     5.22e-07       14871.3
     5.23e-07       14867.2
     5.24e-07       14863.2
     5.25e-07       14859.2
     5.26e-07       14855.2
     5.27e-07       14851.2
     5.28e-07       14847.2
     5.29e-07       14843.2
      5.3e-07       14839.2
     5.31e-07       14835.2
     5.32e-07       14831.3
     5.33e-07       14827.3
     5.34e-07       14823.4
     5.35e-07       14819.5
     5.36e-07       14815.6
     5.37e-07       14811.7
     5.38e-07       14807.8
     5.39e-07       14803.9
      5.4e-07         14800
     5.41e-07       14796.2
     5.42e-07       14792.3
     5.43e-07       14788.5
     5.44e-07       14784.6
     5.45e-07       14780.8
     5.46e-07         14777
     5.47e-07       14773.2
     5.48e-07       14769.4
     5.49e-07       14765.6
      5.5e-07       14761.8
     5.51e-07         14758
     5.52e-07       14754.3
     5.53e-07       14750.5
     5.54e-07       14746.8
     5.55e-07         14743
     5.56e-07       14739.3
     5.57e-07       14735.6
     5.58e-07       14731.9
     5.59e-07       14728.2
      5.6e-07       14724.5
     5.61e-07       14720.8
     5.62e-07       14717.1
     5.63e-07       14713.5
     5.64e-07       14709.8
     5.65e-07       14706.2
     5.66e-07       14702.5
     5.67e-07       14698.9
     5.68e-07       14695.3
     5.69e-07       14691.7
      5.7e-07       14688.1
     5.71e-07       14684.5
     5.72e-07       14680.9
     5.73e-07       14677.3
     5.74e-07       14673.7
     5.75e-07       14670.2
     5.76e-07       14666.6
     5.77e-07       14663.1
     5.78e-07       14659.5
     5.79e-07         14656
      5.8e-07       14652.5
     5.81e-07         14649
     5.82e-07       14645.5
     5.83e-07         14642
     5.84e-07       14638.5
     5.85e-07         14635
     5.86e-07       14631.5
     5.87e-07         14628
     5.88e-07       14624.6
     5.89e-07       14621.1
      5.9e-07       14617.7
     5.91e-07       14614.3
     5.92e-07       14610.8
     5.93e-07       14607.4
     5.94e-07         14604
     5.95e-07       14600.6
     5.96e-07       14597.2
     5.97e-07       14593.8
     5.98e-07       14590.4
     5.99e-07       14587.1
        6e-07       14583.7
     6.01e-07       14580.3
     6.02e-07         14577
     6.03e-07       14573.6
     6.04e-07       14570.3
     6.05e-07         14567
     6.06e-07       14563.7
     6.07e-07       14560.3
     6.08e-07         14557
     6.09e-07       14553.7
      6.1e-07       14550.4
     6.11e-07       14547.2
     6.12e-07       14543.9
     6.13e-07       14540.6
     6.14e-07       14537.3
     6.15e-07       14534.1
     6.16e-07       14530.8
     6.17e-07       14527.6
     6.18e-07       14524.4
     6.19e-07       14521.1
      6.2e-07       14517.9
     6.21e-07       14514.7
     6.22e-07       14511.5
     6.23e-07       14508.3
     6.24e-07       14505.1
     6.25e-07       14501.9
     6.26e-07       14498.7
     6.27e-07       14495.5
     6.28e-07       14492.4
     6.29e-07       14489.2
      6.3e-07       14486.1
     6.31e-07       14482.9
     6.32e-07       14479.8
     6.33e-07       14476.6
     6.34e-07       14473.5
     6.35e-07       14470.4
     6.36e-07       14467.3
     6.37e-07       14464.2
     6.38e-07       14461.1
     6.39e-07         14458
      6.4e-07       14454.9
     6.41e-07       14451.8
     6.42e-07       14448.7
     6.43e-07       14445.7
     6.44e-07       14442.6
     6.45e-07       14439.5
     6.46e-07       14436.5
     6.47e-07       14433.4
     6.48e-07       14430.4
     6.49e-07       14427.4
      6.5e-07       14424.4
     6.51e-07       14421.3
     6.52e-07       14418.3
     6.53e-07       14415.3
     6.54e-07       14412.3
     6.55e-07       14409.3
     6.56e-07       14406.3
     6.57e-07       14403.4
     6.58e-07       14400.4
     6.59e-07       14397.4
      6.6e-07       14394.4
     6.61e-07       14391.5
     6.62e-07       14388.5
     6.63e-07       14385.6
     6.64e-07       14382.6
     6.65e-07       14379.7
     6.66e-07       14376.8
     6.67e-07       14373.9
     6.68e-07       14370.9
     6.69e-07         14368
      6.7e-07       14365.1
     6.71e-07       14362.2
     6.72e-07       14359.3
     6.73e-07       14356.4
     6.74e-07       14353.6
     6.75e-07       14350.7
     6.76e-07       14347.8
     6.77e-07       14344.9
     6.78e-07       14342.1
     6.79e-07       14339.2
      6.8e-07       14336.4
     6.81e-07       14333.5
     6.82e-07       14330.7
     6.83e-07       14327.9
     6.84e-07         14325
     6.85e-07       14322.2
     6.86e-07       14319.4
     6.87e-07       14316.6
     6.88e-07       14313.8
     6.89e-07         14311
      6.9e-07       14308.2
     6.91e-07       14305.4
     6.92e-07       14302.6
     6.93e-07       14299.9
     6.94e-07       14297.1
     6.95e-07       14294.3
     6.96e-07       14291.6
     6.97e-07       14288.8
     6.98e-07         14286
     6.99e-07       14283.3
        7e-07       14280.6
     7.01e-07       14277.8
     7.02e-07       14275.1
     7.03e-07       14272.4
     7.04e-07       14269.7
     7.05e-07       14266.9
     7.06e-07       14264.2
     7.07e-07       14261.5
     7.08e-07       14258.8
     7.09e-07       14256.1
      7.1e-07       14253.4
     7.11e-07       14250.8
     7.12e-07       14248.1
     7.13e-07       14245.4
     7.14e-07       14242.7
     7.15e-07       14240.1
     7.16e-07       14237.4
     7.17e-07       14234.8
     7.18e-07       14232.1
     7.19e-07       14229.5
      7.2e-07       14226.8
     7.21e-07       14224.2
     7.22e-07       14221.6
     7.23e-07       14218.9
     7.24e-07       14216.3
     7.25e-07       14213.7
     7.26e-07       14211.1
     7.27e-07       14208.5
     7.28e-07       14205.9
     7.29e-07       14203.3
      7.3e-07       14200.7
     7.31e-07       14198.1
     7.32e-07       14195.5
     7.33e-07       14192.9
     7.34e-07       14190.4
     7.35e-07       14187.8
     7.36e-07       14185.2
     7.37e-07       14182.7
     7.38e-07       14180.1
     7.39e-07       14177.6
      7.4e-07         14175
     7.41e-07       14172.5
     7.42e-07         14170
     7.43e-07       14167.4
     7.44e-07       14164.9
     7.45e-07       14162.4
     7.46e-07       14159.9
     7.47e-07       14157.3
     7.48e-07       14154.8
     7.49e-07       14152.3
      7.5e-07       14149.8
     7.51e-07       14147.3
     7.52e-07       14144.8
     7.53e-07       14142.4
     7.54e-07       14139.9
     7.55e-07       14137.4
     7.56e-07       14134.9
     7.57e-07       14132.5
     7.58e-07         14130
     7.59e-07       14127.5
      7.6e-07       14125.1
     7.61e-07       14122.6
     7.62e-07       14120.2
     7.63e-07       14117.7
     7.64e-07       14115.3
     7.65e-07       14112.9
     7.66e-07       14110.4
     7.67e-07         14108
     7.68e-07       14105.6
     7.69e-07       14103.2
      7.7e-07       14100.7
     7.71e-07       14098.3
     7.72e-07       14095.9
     7.73e-07       14093.5
     7.74e-07       14091.1
     7.75e-07       14088.7
     7.76e-07       14086.4
     7.77e-07         14084
     7.78e-07       14081.6
     7.79e-07       14079.2
      7.8e-07       14076.8
     7.81e-07       14074.5
     7.82e-07       14072.1
     7.83e-07       14069.7
     7.84e-07       14067.4
     7.85e-07         14065
     7.86e-07       14062.7
     7.87e-07       14060.3
     7.88e-07         14058
     7.89e-07       14055.7
      7.9e-07       14053.3
     7.91e-07         14051
     7.92e-07       14048.7
     7.93e-07       14046.4
     7.94e-07         14044
     7.95e-07       14041.7
     7.96e-07       14039.4
     7.97e-07       14037.1
     7.98e-07       14034.8
     7.99e-07       14032.5
        8e-07       14030.2
     8.01e-07       14027.9
     8.02e-07       14025.6
     8.03e-07       14023.4
     8.04e-07       14021.1
     8.05e-07       14018.8
     8.06e-07       14016.5
     8.07e-07       14014.3
     8.08e-07         14012
     8.09e-07       14009.7
      8.1e-07       14007.5
     8.11e-07       14005.2
     8.12e-07         14003
     8.13e-07       14000.7
     8.14e-07       13998.5
     8.15e-07       13996.2
     8.16e-07         13994
     8.17e-07       13991.8
     8.18e-07       13989.6
     8.19e-07       13987.3
      8.2e-07       13985.1
     8.21e-07       13982.9
     8.22e-07       13980.7
     8.23e-07       13978.5
     8.24e-07       13976.3
     8.25e-07       13974.1
     8.26e-07       13971.9
     8.27e-07       13969.7
     8.28e-07       13967.5
     8.29e-07       13965.3
      8.3e-07       13963.1
     8.31e-07       13960.9
     8.32e-07       13958.7
     8.33e-07       13956.6
     8.34e-07       13954.4
     8.35e-07       13952.2
     8.36e-07       13950.1
     8.37e-07       13947.9
     8.38e-07       13945.8
     8.39e-07       13943.6
      8.4e-07       13941.5
     8.41e-07       13939.3
     8.42e-07       13937.2
     8.43e-07         13935
     8.44e-07       13932.9
     8.45e-07       13930.8
     8.46e-07       13928.6
     8.47e-07       13926.5
     8.48e-07       13924.4
     8.49e-07       13922.3
      8.5e-07       13920.1
     8.51e-07         13918
     8.52e-07       13915.9
     8.53e-07       13913.8
     8.54e-07       13911.7
     8.55e-07       13909.6
     8.56e-07       13907.5
     8.57e-07       13905.4
     8.58e-07       13903.3
     8.59e-07       13901.2
      8.6e-07       13899.2
     8.61e-07       13897.1
     8.62e-07         13895
     8.63e-07       13892.9
     8.64e-07       13890.8
     8.65e-07       13888.8
     8.66e-07       13886.7
     8.67e-07       13884.7
     8.68e-07       13882.6
     8.69e-07       13880.5
      8.7e-07       13878.5
     8.71e-07       13876.4
     8.72e-07       13874.4
     8.73e-07       13872.4
     8.74e-07       13870.3
     8.75e-07       13868.3
     8.76e-07       13866.2
     8.77e-07       13864.2
     8.78e-07       13862.2
     8.79e-07       13860.2
      8.8e-07       13858.1
     8.81e-07       13856.1
     8.82e-07       13854.1
     8.83e-07       13852.1
     8.84e-07       13850.1
     8.85e-07       13848.1
     8.86e-07       13846.1
     8.87e-07       13844.1
     8.88e-07       13842.1
     8.89e-07       13840.1
      8.9e-07       13838.1
     8.91e-07       13836.1
     8.92e-07       13834.1
     8.93e-07       13832.1
     8.94e-07       13830.2
     8.95e-07       13828.2
     8.96e-07       13826.2
     8.97e-07       13824.2
     8.98e-07       13822.3
     8.99e-07       13820.3
        9e-07       13818.3
     9.01e-07       13816.4
     9.02e-07       13814.4
     9.03e-07       13812.5
     9.04e-07       13810.5
     9.05e-07       13808.6
     9.06e-07       13806.6
     9.07e-07       13804.7
     9.08e-07       13802.8
     9.09e-07       13800.8
      9.1e-07       13798.9
     9.11e-07         13797
     9.12e-07         13795
     9.13e-07       13793.1
     9.14e-07       13791.2
     9.15e-07       13789.3
     9.16e-07       13787.3
     9.17e-07       13785.4
     9.18e-07       13783.5
     9.19e-07       13781.6
      9.2e-07       13779.7
     9.21e-07       13777.8
     9.22e-07       13775.9
     9.23e-07         13774
     9.24e-07       13772.1
     9.25e-07       13770.2
     9.26e-07       13768.3
     9.27e-07       13766.4
     9.28e-07       13764.6
     9.29e-07       13762.7
      9.3e-07       13760.8
     9.31e-07       13758.9
     9.32e-07       13757.1
     9.33e-07       13755.2
     9.34e-07       13753.3
     9.35e-07       13751.5
     9.36e-07       13749.6
     9.37e-07       13747.7
     9.38e-07       13745.9
     9.39e-07         13744
      9.4e-07       13742.2
     9.41e-07       13740.3
     9.42e-07       13738.5
     9.43e-07       13736.6
     9.44e-07       13734.8
     9.45e-07         13733
     9.46e-07       13731.1
     9.47e-07       13729.3
     9.48e-07       13727.5
     9.49e-07       13725.6
      9.5e-07       13723.8
     9.51e-07         13722
     9.52e-07       13720.2
     9.53e-07       13718.3
     9.54e-07       13716.5
     9.55e-07       13714.7
     9.56e-07       13712.9
     9.57e-07       13711.1
     9.58e-07       13709.3
     9.59e-07       13707.5
      9.6e-07       13705.7
     9.61e-07       13703.9
     9.62e-07       13702.1
     9.63e-07       13700.3
     9.64e-07       13698.5
     9.65e-07       13696.7
     9.66e-07       13694.9
     9.67e-07       13693.1
     9.68e-07       13691.4
     9.69e-07       13689.6
      9.7e-07       13687.8
     9.71e-07         13686
     9.72e-07       13684.3
     9.73e-07       13682.5
     9.74e-07       13680.7
     9.75e-07         13679
     9.76e-07       13677.2
     9.77e-07       13675.4
     9.78e-07       13673.7
     9.79e-07       13671.9
      9.8e-07       13670.2
     9.81e-07       13668.4
     9.82e-07       13666.7
     9.83e-07       13664.9
     9.84e-07       13663.2
     9.85e-07       13661.5
     9.86e-07       13659.7
     9.87e-07         13658
     9.88e-07       13656.3
     9.89e-07       13654.5
      9.9e-07       13652.8
     9.91e-07       13651.1
     9.92e-07       13649.3
     9.93e-07       13647.6
     9.94e-07       13645.9
     9.95e-07       13644.2
     9.96e-07       13642.5
     9.97e-07       13640.8
     9.98e-07         13639
     9.99e-07       13637.3
        1e-06       13635.6
    1.001e-06       13633.9
    1.002e-06       13632.2
    1.003e-06       13630.5
    1.004e-06       13628.8
    1.005e-06       13627.1
    1.006e-06       13625.4
    1.007e-06       13623.8
    1.008e-06       13622.1
    1.009e-06       13620.4
     1.01e-06       13618.7
    1.011e-06         13617
    1.012e-06       13615.3
    1.013e-06       13613.7
    1.014e-06         13612
    1.015e-06       13610.3
    1.016e-06       13608.6
    1.017e-06         13607
    1.018e-06       13605.3
    1.019e-06       13603.7
     1.02e-06         13602
    1.021e-06       13600.3
    1.022e-06       13598.7
    1.023e-06         13597
    1.024e-06       13595.4
    1.025e-06       13593.7
    1.026e-06       13592.1
    1.027e-06       13590.4
    1.028e-06       13588.8
    1.029e-06       13587.1
     1.03e-06       13585.5
    1.031e-06       13583.9
    1.032e-06       13582.2
    1.033e-06       13580.6
    1.034e-06         13579
    1.035e-06       13577.3
    1.036e-06       13575.7
    1.037e-06       13574.1
    1.038e-06       13572.5
    1.039e-06       13570.8
     1.04e-06       13569.2
    1.041e-06       13567.6
    1.042e-06         13566
    1.043e-06       13564.4
    1.044e-06       13562.8
    1.045e-06       13561.1
    1.046e-06       13559.5
    1.047e-06       13557.9
    1.048e-06       13556.3
    1.049e-06       13554.7
     1.05e-06       13553.1
    1.051e-06       13551.5
    1.052e-06       13549.9
    1.053e-06       13548.3
    1.054e-06       13546.8
    1.055e-06       13545.2
    1.056e-06       13543.6
    1.057e-06         13542
    1.058e-06       13540.4
    1.059e-06       13538.8
     1.06e-06       13537.3
    1.061e-06       13535.7
    1.062e-06       13534.1
    1.063e-06       13532.5
    1.064e-06         13531
    1.065e-06       13529.4
    1.066e-06       13527.8
    1.067e-06       13526.3
    1.068e-06       13524.7