# Probe 0 (5e-06 5e-06 5e-06)
#       Probe             0
#        Time
        1e-09       29977.2
        2e-09       29954.3
        3e-09       29931.5
        4e-09       29908.7
        5e-09       29885.8
        6e-09         29863
        7e-09       29840.2
        8e-09       29817.4
        9e-09       29794.6
        1e-08       29771.8
      1.1e-08         29749
      1.2e-08       29726.2
      1.3e-08       29703.4
      1.4e-08       29680.6
      1.5e-08       29657.8
      1.6e-08         29635
      1.7e-08       29612.3
      1.8e-08       29589.5
      1.9e-08       29566.7
        2e-08       29543.9
      2.1e-08       29521.2
      2.2e-08       29498.4
      2.3e-08       29475.6
      2.4e-08       29452.8
      2.5e-08       29430.1
      2.6e-08       29407.3
      2.7e-08       29384.6
      2.8e-08       29361.8
      2.9e-08       29339.1
        3e-08       29316.4
      3.1e-08       29293.6
      3.2e-08       29270.9
      3.3e-08       29248.2
      3.4e-08       29225.5
      3.5e-08       29202.8
      3.6e-08       29180.1
      3.7e-08       29157.4
      3.8e-08       29134.7
      3.9e-08       29112.1
        4e-08       29089.4
      4.1e-08       29066.8
      4.2e-08       29044.1
      4.3e-08       29021.5
      4.4e-08       28998.9
      4.5e-08       28976.3
      4.6e-08       28953.7
      4.7e-08       28931.1
      4.8e-08       28908.6
      4.9e-08         28886
        5e-08       28863.5
      5.1e-08         28841
      5.2e-08       28818.5
      5.3e-08         28796
      5.4e-08       28773.6
      5.5e-08       28751.1
      5.6e-08       28728.7
      5.7e-08       28706.3
      5.8e-08       28683.9
      5.9e-08       28661.5
        6e-08       28639.2
      6.1e-08       28616.8
      6.2e-08       28594.5
      6.3e-08       28572.2
      6.4e-08       28549.9
      6.5e-08       28527.7
      6.6e-08       28505.5
      6.7e-08       28483.3
      6.8e-08       28461.1
      6.9e-08       28438.9
        7e-08       28416.8
      7.1e-08       28394.7
      7.2e-08       28372.6
      7.3e-08       28350.5
      7.4e-08       28328.5
      7.5e-08       28306.5
      7.6e-08       28284.5
      7.7e-08       28262.6
      7.8e-08       28240.6
      7.9e-08       28218.7
        8e-08       28196.8
      8.1e-08         28175
      8.2e-08       28153.2
      8.3e-08       28131.4
      8.4e-08       28109.6
      8.5e-08       28087.9
      8.6e-08       28066.2
      8.7e-08       28044.5
      8.8e-08       28022.9
      8.9e-08       28001.3
        9e-08       27979.7
      9.1e-08       27958.1
      9.2e-08       27936.6
      9.3e-08       27915.1
      9.4e-08       27893.7
      9.5e-08       27872.3
      9.6e-08       27850.9
      9.7e-08       27829.5
      9.8e-08       27808.2
      9.9e-08       27786.9
        1e-07       27765.7
     1.01e-07       27744.4
     1.02e-07       27723.2
     1.03e-07       27702.1
     1.04e-07         27681
     1.05e-07       27659.9
     1.06e-07       27638.8
     1.07e-07       27617.8
     1.08e-07       27596.9
     1.09e-07       27575.9
      1.1e-07         27555
     1.11e-07       27534.1
     1.12e-07       27513.3
     1.13e-07       27492.5
     1.14e-07       27471.8
     1.15e-07         27451
     1.16e-07       27430.4
     1.17e-07       27409.7
     1.18e-07       27389.1
     1.19e-07       27368.5
      1.2e-07         27348
     1.21e-07       27327.5
     1.22e-07         27307
     1.23e-07       27286.6
     1.24e-07       27266.2
     1.25e-07       27245.9
     1.26e-07       27225.6
     1.27e-07       27205.3
     1.28e-07       27185.1
     1.29e-07       27164.9
      1.3e-07       27144.8
     1.31e-07       27124.7
     1.32e-07       27104.6
     1.33e-07       27084.6
     1.34e-07       27064.6
     1.35e-07       27044.7
     1.36e-07       27024.8
     1.37e-07       27004.9
     1.38e-07       26985.1
     1.39e-07       26965.3
      1.4e-07       26945.6
     1.41e-07       26925.9
     1.42e-07       26906.2
     1.43e-07       26886.6
     1.44e-07         26867
     1.45e-07       26847.5
     1.46e-07         26828
     1.47e-07       26808.5
     1.48e-07       26789.1
     1.49e-07       26769.7
      1.5e-07       26750.4
     1.51e-07       26731.1
     1.52e-07       26711.9
     1.53e-07       26692.7
     1.54e-07       26673.5
     1.55e-07       26654.4
     1.56e-07       26635.3
     1.57e-07       26616.3
     1.58e-07       26597.3
     1.59e-07       26578.3
      1.6e-07       26559.4
     1.61e-07       26540.6
     1.62e-07       26521.7
     1.63e-07       26502.9
     1.64e-07       26484.2
     1.65e-07       26465.5
     1.66e-07       26446.9
     1.67e-07       26428.2
     1.68e-07       26409.7
     1.69e-07       26391.1
      1.7e-07       26372.7
     1.71e-07       26354.2
     1.72e-07       26335.8
     1.73e-07       26317.5
     1.74e-07       26299.1
     1.75e-07       26280.9
     1.76e-07       26262.6
     1.77e-07       26244.5
     1.78e-07       26226.3
     1.79e-07       26208.2
      1.8e-07       26190.2
     1.81e-07       26172.1
     1.82e-07       26154.2
     1.83e-07       26136.2
     1.84e-07       26118.4
     1.85e-07       26100.5
     1.86e-07       26082.7
     1.87e-07       26064.9
     1.88e-07       26047.2
     1.89e-07       26029.6
      1.9e-07       26011.9
     1.91e-07       25994.3
     1.92e-07       25976.8
     1.93e-07       25959.3
     1.94e-07       25941.8
     1.95e-07       25924.4
     1.96e-07         25907
     1.97e-07       25889.7
     1.98e-07       25872.4
     1.99e-07       25855.2
        2e-07         25838
     2.01e-07       25820.8
     2.02e-07       25803.7
     2.03e-07       25786.6
     2.04e-07       25769.6
     2.05e-07       25752.6
     2.06e-07       25735.6
     2.07e-07       25718.7
     2.08e-07       25701.8
     2.09e-07         25685
      2.1e-07       25668.2
     2.11e-07       25651.5
     2.12e-07       25634.8
     2.13e-07       25618.1
     2.14e-07       25601.5
     2.15e-07       25584.9
     2.16e-07       25568.4
     2.17e-07       25551.9
     2.18e-07       25535.5
     2.19e-07       25519.1
      2.2e-07       25502.7
     2.21e-07       25486.4
     2.22e-07       25470.1
     2.23e-07       25453.9
     2.24e-07       25437.7
     2.25e-07       25421.5
     2.26e-07       25405.4
     2.27e-07       25389.3
     2.28e-07       25373.3
     2.29e-07       25357.3
      2.3e-07       25341.3
     2.31e-07       25325.4
     2.32e-07       25309.5
     2.33e-07       25293.7
     2.34e-07       25277.9
     2.35e-07       25262.2
     2.36e-07       25246.5
     2.37e-07       25230.8
     2.38e-07       25215.2
     2.39e-07       25199.6
      2.4e-07         25184
     2.41e-07       25168.5
     2.42e-07       25153.1
     2.43e-07       25137.6
     2.44e-07       25122.2
     2.45e-07       25106.9
     2.46e-07       25091.6
     2.47e-07       25076.3
     2.48e-07       25061.1
     2.49e-07       25045.9
      2.5e-07       25030.8
     2.51e-07       25015.7
     2.52e-07       25000.6
     2.53e-07       24985.6
     2.54e-07       24970.6
     2.55e-07       24955.6
     2.56e-07       24940.7
     2.57e-07       24925.8
     2.58e-07         24911
     2.59e-07       24896.2
      2.6e-07       24881.5
     2.61e-07       24866.7
     2.62e-07       24852.1
     2.63e-07       24837.4
     2.64e-07       24822.8
     2.65e-07       24808.2
     2.66e-07       24793.7
     2.67e-07       24779.2
     2.68e-07       24764.8
     2.69e-07       24750.4
      2.7e-07         24736
     2.71e-07       24721.7
     2.72e-07       24707.4
     2.73e-07       24693.1
     2.74e-07       24678.9
     2.75e-07       24664.7
     2.76e-07       24650.5
     2.77e-07       24636.4
     2.78e-07       24622.4
     2.79e-07       24608.3
      2.8e-07       24594.3
     2.81e-07       24580.4
     2.82e-07       24566.4
     2.83e-07       24552.6
     2.84e-07       24538.7
     2.85e-07       24524.9
     2.86e-07       24511.1
     2.87e-07       24497.4
     2.88e-07       24483.7
     2.89e-07         24470
      2.9e-07       24456.3
     2.91e-07       24442.8
     2.92e-07       24429.2
     2.93e-07       24415.7
     2.94e-07       24402.2
     2.95e-07       24388.7
     2.96e-07       24375.3
     2.97e-07       24361.9
     2.98e-07       24348.6
     2.99e-07       24335.2
        3e-07         24322
     3.01e-07       24308.7
     3.02e-07       24295.5
     3.03e-07       24282.3
     3.04e-07       24269.2
     3.05e-07       24256.1
     3.06e-07         24243
     3.07e-07         24230
     3.08e-07         24217
     3.09e-07         24204
      3.1e-07       24191.1
     3.11e-07       24178.2
     3.12e-07       24165.3
     3.13e-07       24152.5
     3.14e-07       24139.7
     3.15e-07       24126.9
     3.16e-07       24114.2
     3.17e-07       24101.5
     3.18e-07       24088.9
     3.19e-07       24076.2
      3.2e-07       24063.6
     3.21e-07       24051.1
     3.22e-07       24038.5
     3.23e-07         24026
     3.24e-07       24013.6
     3.25e-07       24001.1
     3.26e-07       23988.7
     3.27e-07       23976.4
     3.28e-07         23964
     3.29e-07       23951.7
      3.3e-07       23939.5
     3.31e-07       23927.2
     3.32e-07         23915
     3.33e-07       23902.9
     3.34e-07       23890.7
     3.35e-07       23878.6
     3.36e-07       23866.5
     3.37e-07       23854.5
     3.38e-07       23842.5
     3.39e-07       23830.5
      3.4e-07       23818.5
     3.41e-07       23806.6
     3.42e-07       23794.7
     3.43e-07       23782.9
     3.44e-07       23771.1
     3.45e-07       23759.3
     3.46e-07       23747.5
     3.47e-07       23735.8
     3.48e-07       23724.1
     3.49e-07       23712.4
      3.5e-07       23700.7
     3.51e-07       23689.1
     3.52e-07       23677.5
     3.53e-07         23666
     3.54e-07       23654.5
     3.55e-07         23643
     3.56e-07       23631.5
     3.57e-07       23620.1
     3.58e-07       23608.7
     3.59e-07       23597.3
      3.6e-07         23586
     3.61e-07       23574.7
     3.62e-07       23563.4
     3.63e-07       23552.1
     3.64e-07       23540.9
     3.65e-07       23529.7
     3.66e-07       23518.5
     3.67e-07       23507.4
     3.68e-07       23496.3
     3.69e-07       23485.2
      3.7e-07       23474.1
     3.71e-07       23463.1
     3.72e-07       23452.1
     3.73e-07       23441.1
     3.74e-07       23430.2
     3.75e-07       23419.3
     3.76e-07       23408.4
     3.77e-07       23397.5
     3.78e-07       23386.7
     3.79e-07       23375.9
      3.8e-07       23365.1
     3.81e-07       23354.4
     3.82e-07       23343.7
     3.83e-07         23333
     3.84e-07       23322.3
     3.85e-07       23311.7
     3.86e-07       23301.1
     3.87e-07       23290.5
     3.88e-07       23279.9
     3.89e-07       23269.4
      3.9e-07       23258.9
     3.91e-07       23248.4
     3.92e-07         23238
     3.93e-07       23227.6
     3.94e-07       23217.2
     3.95e-07       23206.8
     3.96e-07       23196.4
     3.97e-07       23186.1
     3.98e-07       23175.8
     3.99e-07       23165.6
        4e-07       23155.3
     4.01e-07       23145.1
     4.02e-07       23134.9
     4.03e-07       23124.8
     4.04e-07       23114.6
     4.05e-07       23104.5
     4.06e-07       23094.4
     4.07e-07       23084.4
     4.08e-07       23074.3
     4.09e-07       23064.3
      4.1e-07       23054.3
     4.11e-07       23044.4
     4.12e-07       23034.5
     4.13e-07       23024.5
     4.14e-07       23014.7
     4.15e-07       23004.8
     4.16e-07         22995
     4.17e-07       22985.1
     4.18e-07       22975.4
     4.19e-07       22965.6
      4.2e-07       22955.9
     4.21e-07       22946.1
     4.22e-07       22936.4
     4.23e-07       22926.8
     4.24e-07       22917.1
     4.25e-07       22907.5
     4.26e-07       22897.9
     4.27e-07       22888.4
     4.28e-07       22878.8
     4.29e-07       22869.3
      4.3e-07       22859.8
     4.31e-07       22850.3
     4.32e-07       22840.8
     4.33e-07       22831.4
     4.34e-07         22822
     4.35e-07       22812.6
     4.36e-07       22803.3
     4.37e-07       22793.9
     4.38e-07       22784.6
     4.39e-07       22775.3
      4.4e-07         22766
     4.41e-07       22756.8
     4.42e-07       22747.6
     4.43e-07       22738.4
     4.44e-07       22729.2
     4.45e-07         22720
     4.46e-07       22710.9
     4.47e-07       22701.8
     4.48e-07       22692.7
     4.49e-07       22683.6
      4.5e-07       22674.6
     4.51e-07       22665.5
     4.52e-07       22656.5
     4.53e-07       22647.5
     4.54e-07       22638.6
     4.55e-07       22629.6
     4.56e-07       22620.7
     4.57e-07       22611.8
     4.58e-07         22603
     4.59e-07       22594.1
      4.6e-07       22585.3
     4.61e-07       22576.5
     4.62e-07       22567.7
     4.63e-07       22558.9
     4.64e-07       22550.1
     4.65e-07       22541.4
     4.66e-07       22532.7
     4.67e-07         22524
     4.68e-07       22515.3
     4.69e-07       22506.7
      4.7e-07       22498.1
     4.71e-07       22489.5
     4.72e-07       22480.9
     4.73e-07       22472.3
     4.74e-07       22463.8
     4.75e-07       22455.3
     4.76e-07       22446.7
     4.77e-07       22438.3
     4.78e-07       22429.8
     4.79e-07       22421.4
      4.8e-07       22412.9
     4.81e-07       22404.5
     4.82e-07       22396.1
     4.83e-07       22387.8
     4.84e-07       22379.4
     4.85e-07       22371.1
     4.86e-07       22362.8
     4.87e-07       22354.5
     4.88e-07       22346.2
     4.89e-07         22338
      4.9e-07       22329.8
     4.91e-07       22321.5
     4.92e-07       22313.4
     4.93e-07       22305.2
     4.94e-07         22297
     4.95e-07       22288.9
     4.96e-07       22280.8
     4.97e-07       22272.7
     4.98e-07       22264.6
     4.99e-07       22256.5
        5e-07       22248.5
     5.01e-07       22240.5
     5.02e-07       22232.5
     5.03e-07       22224.5
     5.04e-07       22216.5
     5.05e-07       22208.6
     5.06e-07       22200.6
     5.07e-07       22192.7
     5.08e-07       22184.8
     5.09e-07       22176.9
      5.1e-07       22169.1
     5.11e-07       22161.2
     5.12e-07       22153.4
     5.13e-07       22145.6
     5.14e-07       22137.8
     5.15e-07         22130
     5.16e-07       22122.3
     5.17e-07       22114.5
     5.18e-07       22106.8
     5.19e-07       22099.1
      5.2e-07       22091.4
     5.21e-07       22083.8
     5.22e-07       22076.1
     5.23e-07       22068.5
     5.24e-07       22060.8
     5.25e-07       22053.2
     5.26e-07       22045.7
     5.27e-07       22038.1
     5.28e-07       22030.5
     5.29e-07         22023
      5.3e-07       22015.5
     5.31e-07         22008
     5.32e-07       22000.5
     5.33e-07         21993
     5.34e-07       21985.6
     5.35e-07       21978.2
     5.36e-07       21970.7
     5.37e-07       21963.3
     5.38e-07         21956
     5.39e-07       21948.6
      5.4e-07       21941.2
     5.41e-07       21933.9
     5.42e-07       21926.6
     5.43e-07       21919.3
     5.44e-07         21912
     5.45e-07       21904.7
     5.46e-07       21897.5
     5.47e-07       21890.2
     5.48e-07         21883
     5.49e-07       21875.8
      5.5e-07       21868.6
     5.51e-07       21861.4
     5.52e-07       21854.3
     5.53e-07       21847.1
     5.54e-07         21840
     5.55e-07       21832.9
     5.56e-07       21825.8
     5.57e-07       21818.7
     5.58e-07       21811.6
     5.59e-07       21804.5
      5.6e-07       21797.5
     5.61e-07       21790.5
     5.62e-07       21783.5
     5.63e-07       21776.5
     5.64e-07       21769.5
     5.65e-07       21762.5
     5.66e-07       21755.6
     5.67e-07       21748.6
     5.68e-07       21741.7
     5.69e-07       21734.8
      5.7e-07       21727.9
     5.71e-07         21721
     5.72e-07       21714.2
     5.73e-07       21707.3
     5.74e-07       21700.5
     5.75e-07       21693.7
     5.76e-07       21686.9
     5.77e-07       21680.1
     5.78e-07       21673.3
     5.79e-07       21666.5
      5.8e-07       21659.8
     5.81e-07       21653.1
     5.82e-07       21646.3
     5.83e-07       21639.6
     5.84e-07       21632.9
     5.85e-07       21626.3
     5.86e-07       21619.6
     5.87e-07       21612.9
     5.88e-07       21606.3
     5.89e-07       21599.7
      5.9e-07       21593.1
     5.91e-07       21586.5
     5.92e-07       21579.9
     5.93e-07       21573.3
     5.94e-07       21566.8
     5.95e-07       21560.2
     5.96e-07       21553.7
     5.97e-07       21547.2
     5.98e-07       21540.7
     5.99e-07       21534.2
        6e-07       21527.7
     6.01e-07       21521.2
     6.02e-07       21514.8
     6.03e-07       21508.4
     6.04e-07       21501.9
     6.05e-07       21495.5
     6.06e-07       21489.1
     6.07e-07       21482.7
     6.08e-07       21476.4
     6.09e-07         21470
      6.1e-07       21463.7
     6.11e-07       21457.3
     6.12e-07         21451
     6.13e-07       21444.7
     6.14e-07       21438.4
     6.15e-07       21432.1
     6.16e-07       21425.9
     6.17e-07       21419.6
     6.18e-07       21413.4
     6.19e-07       21407.1
      6.2e-07       21400.9
     6.21e-07       21394.7
     6.22e-07       21388.5
     6.23e-07       21382.3
     6.24e-07       21376.2
     6.25e-07         21370
     6.26e-07       21363.8
     6.27e-07       21357.7
     6.28e-07       21351.6
     6.29e-07       21345.5
      6.3e-07       21339.4
     6.31e-07       21333.3
     6.32e-07       21327.2
     6.33e-07       21321.2
     6.34e-07       21315.1
     6.35e-07       21309.1
     6.36e-07         21303
     6.37e-07         21297
     6.38e-07         21291
     6.39e-07         21285
      6.4e-07       21279.1
     6.41e-07       21273.1
     6.42e-07       21267.1
     6.43e-07       21261.2
     6.44e-07       21255.2
     6.45e-07       21249.3
     6.46e-07       21243.4
     6.47e-07       21237.5
     6.48e-07       21231.6
     6.49e-07       21225.7
      6.5e-07       21219.9
     6.51e-07         21214
     6.52e-07       21208.2
     6.53e-07       21202.3
     6.54e-07       21196.5
     6.55e-07       21190.7
     6.56e-07       21184.9
     6.57e-07       21179.1
     6.58e-07       21173.4
     6.59e-07       21167.6
      6.6e-07       21161.8
     6.61e-07       21156.1
     6.62e-07       21150.4
     6.63e-07       21144.6
     6.64e-07       21138.9
     6.65e-07       21133.2
     6.66e-07       21127.5
     6.67e-07       21121.8
     6.68e-07       21116.2
     6.69e-07       21110.5
      6.7e-07       21104.9
     6.71e-07       21099.2
     6.72e-07       21093.6
     6.73e-07         21088
     6.74e-07       21082.4
     6.75e-07       21076.8
     6.76e-07       21071.2
     6.77e-07       21065.6
     6.78e-07       21060.1
     6.79e-07       21054.5
      6.8e-07         21049
     6.81e-07       21043.4
     6.82e-07       21037.9
     6.83e-07       21032.4
     6.84e-07       21026.9
     6.85e-07       21021.4
     6.86e-07       21015.9
     6.87e-07       21010.4
     6.88e-07         21005
     6.89e-07       20999.5
      6.9e-07       20994.1
     6.91e-07       20988.6
     6.92e-07       20983.2
     6.93e-07       20977.8
     6.94e-07       20972.4
     6.95e-07         20967
     6.96e-07       20961.6
     6.97e-07       20956.3
     6.98e-07       20950.9
     6.99e-07       20945.5
        7e-07       20940.2
     7.01e-07       20934.9
     7.02e-07       20929.5
     7.03e-07       20924.2
     7.04e-07       20918.9
     7.05e-07       20913.6
     7.06e-07       20908.3
     7.07e-07         20903
     7.08e-07       20897.8
     7.09e-07       20892.5
      7.1e-07       20887.3
     7.11e-07         20882
     7.12e-07       20876.8
     7.13e-07       20871.6
     7.14e-07       20866.3
     7.15e-07       20861.1
     7.16e-07       20855.9
     7.17e-07       20850.8
     7.18e-07       20845.6
     7.19e-07       20840.4
      7.2e-07       20835.3
     7.21e-07       20830.1
     7.22e-07         20825
     7.23e-07       20819.8
     7.24e-07       20814.7
     7.25e-07       20809.6
     7.26e-07       20804.5
     7.27e-07       20799.4
     7.28e-07       20794.3
     7.29e-07       20789.2
      7.3e-07       20784.2
     7.31e-07       20779.1
     7.32e-07         20774
     7.33e-07         20769
     7.34e-07         20764
     7.35e-07       20758.9
     7.36e-07       20753.9
     7.37e-07       20748.9
     7.38e-07       20743.9
     7.39e-07       20738.9
      7.4e-07       20733.9
     7.41e-07         20729
     7.42e-07         20724
     7.43e-07         20719
     7.44e-07       20714.1
     7.45e-07       20709.1
     7.46e-07       20704.2
     7.47e-07       20699.3
     7.48e-07       20694.4
     7.49e-07       20689.5
      7.5e-07       20684.6
     7.51e-07       20679.7
     7.52e-07       20674.8
     7.53e-07       20669.9
     7.54e-07       20665.1
     7.55e-07       20660.2
     7.56e-07       20655.3
     7.57e-07       20650.5
     7.58e-07       20645.7
     7.59e-07       20640.8
      7.6e-07         20636
     7.61e-07       20631.2
     7.62e-07       20626.4
     7.63e-07       20621.6
     7.64e-07       20616.8
     7.65e-07       20612.1
     7.66e-07       20607.3
     7.67e-07       20602.5
     7.68e-07       20597.8
     7.69e-07         20593
      7.7e-07       20588.3
     7.71e-07       20583.6
     7.72e-07       20578.8
     7.73e-07       20574.1
     7.74e-07       20569.4
     7.75e-07       20564.7
     7.76e-07         20560
     7.77e-07       20555.3
     7.78e-07       20550.7
     7.79e-07         20546
      7.8e-07       20541.3
     7.81e-07       20536.7
     7.82e-07         20532
     7.83e-07       20527.4
     7.84e-07       20522.8
     7.85e-07       20518.1
     7.86e-07       20513.5
     7.87e-07       20508.9
     7.88e-07       20504.3
     7.89e-07       20499.7
      7.9e-07       20495.1
     7.91e-07       20490.6
     7.92e-07         20486
     7.93e-07       20481.4
     7.94e-07       20476.9
     7.95e-07       20472.3
     7.96e-07       20467.8
     7.97e-07       20463.2
     7.98e-07       20458.7
     7.99e-07       20454.2
        8e-07       20449.7
     8.01e-07       20445.2
     8.02e-07       20440.7
     8.03e-07       20436.2
     8.04e-07       20431.7
     8.05e-07       20427.2
     8.06e-07       20422.7
     8.07e-07       20418.3
     8.08e-07       20413.8
     8.09e-07       20409.4
      8.1e-07       20404.9
     8.11e-07       20400.5
     8.12e-07       20396.1
     8.13e-07       20391.6
     8.14e-07       20387.2
     8.15e-07       20382.8
     8.16e-07       20378.4
     8.17e-07         20374
     8.18e-07       20369.6
     8.19e-07       20365.2
      8.2e-07       20360.9
     8.21e-07       20356.5
     8.22e-07       20352.1
     8.23e-07       20347.8
     8.24e-07       20343.4
     8.25e-07       20339.1
     8.26e-07       20334.8
     8.27e-07       20330.4
     8.28e-07       20326.1
     8.29e-07       20321.8
      8.3e-07       20317.5
     8.31e-07       20313.2
     8.32e-07       20308.9
     8.33e-07       20304.6
     8.34e-07       20300.3
     8.35e-07       20296.1
     8.36e-07       20291.8
     8.37e-07       20287.5
     8.38e-07       20283.3
     8.39e-07         20279
      8.4e-07       20274.8
     8.41e-07       20270.5
     8.42e-07       20266.3
     8.43e-07       20262.1
     8.44e-07       20257.9
     8.45e-07       20253.7
     8.46e-07       20249.5
     8.47e-07       20245.3
     8.48e-07       20241.1
     8.49e-07       20236.9
      8.5e-07       20232.7
     8.51e-07       20228.5
     8.52e-07       20224.4
     8.53e-07       20220.2
     8.54e-07         20216
     8.55e-07       20211.9
     8.56e-07       20207.8
     8.57e-07       20203.6
     8.58e-07       20199.5
     8.59e-07       20195.4
      8.6e-07       20191.2
     8.61e-07       20187.1
     8.62e-07         20183
     8.63e-07       20178.9
     8.64e-07       20174.8
     8.65e-07       20170.7
     8.66e-07       20166.7
     8.67e-07       20162.6
     8.68e-07       20158.5
     8.69e-07       20154.5
      8.7e-07       20150.4
     8.71e-07       20146.3
     8.72e-07       20142.3
     8.73e-07       20138.3
     8.74e-07       20134.2
     8.75e-07       20130.2
     8.76e-07       20126.2
     8.77e-07       20122.2
     8.78e-07       20118.2
     8.79e-07       20114.1
      8.8e-07       20110.1
     8.81e-07       20106.2
     8.82e-07       20102.2
     8.83e-07       20098.2
     8.84e-07       20094.2
     8.85e-07       20090.2
     8.86e-07       20086.3
     8.87e-07       20082.3
     8.88e-07       20078.4
     8.89e-07       20074.4
      8.9e-07       20070.5
     8.91e-07       20066.5
     8.92e-07       20062.6
     8.93e-07       20058.7
     8.94e-07       20054.8
     8.95e-07       20050.8
     8.96e-07       20046.9
     8.97e-07         20043
     8.98e-07       20039.1
     8.99e-07       20035.2
        9e-07       20031.4
     9.01e-07       20027.5
     9.02e-07       20023.6
     9.03e-07       20019.7
     9.04e-07       20015.9
     9.05e-07         20012
     9.06e-07       20008.1
     9.07e-07       20004.3
     9.08e-07       20000.5
     9.09e-07       19996.6
      9.1e-07       19992.8
     9.11e-07         19989
     9.12e-07       19985.1
     9.13e-07       19981.3
     9.14e-07       19977.5
     9.15e-07       19973.7
     9.16e-07       19969.9
     9.17e-07       19966.1
     9.18e-07       19962.3
     9.19e-07       19958.5
      9.2e-07       19954.7
     9.21e-07         19951
     9.22e-07       19947.2
     9.23e-07       19943.4
     9.24e-07       19939.7
     9.25e-07       19935.9
     9.26e-07       19932.2
     9.27e-07       19928.4
     9.28e-07       19924.7
     9.29e-07         19921
      9.3e-07       19917.2
     9.31e-07       19913.5
     9.32e-07       19909.8
     9.33e-07       19906.1
     9.34e-07       19902.4
     9.35e-07       19898.7
     9.36e-07         19895
     9.37e-07       19891.3
     9.38e-07       19887.6
     9.39e-07       19883.9
      9.4e-07       19880.2
     9.41e-07       19876.5
     9.42e-07       19872.9
     9.43e-07       19869.2
     9.44e-07       19865.5
     9.45e-07       19861.9
     9.46e-07       19858.2
     9.47e-07       19854.6
     9.48e-07         19851
     9.49e-07       19847.3
      9.5e-07       19843.7
     9.51e-07       19840.1
     9.52e-07       19836.4
     9.53e-07       19832.8
     9.54e-07       19829.2
     9.55e-07       19825.6
     9.56e-07         19822
     9.57e-07       19818.4
     9.58e-07       19814.8
     9.59e-07       19811.2
      9.6e-07       19807.7
     9.61e-07       19804.1
     9.62e-07       19800.5
     9.63e-07       19796.9
     9.64e-07       19793.4
     9.65e-07       19789.8
     9.66e-07       19786.3
     9.67e-07       19782.7
     9.68e-07       19779.2
     9.69e-07       19775.6
      9.7e-07       19772.1
     9.71e-07       19768.6
     9.72e-07         19765
     9.73e-07       19761.5
     9.74e-07         19758
     9.75e-07       19754.5
     9.76e-07         19751
     9.77e-07       19747.5
     9.78e-07         19744
     9.79e-07       19740.5
      9.8e-07         19737
     9.81e-07       19733.5
     9.82e-07         19730
     9.83e-07       19726.5
     9.84e-07       19723.1
     9.85e-07       19719.6
     9.86e-07       19716.1
     9.87e-07       19712.7
     9.88e-07       19709.2
     9.89e-07       19705.8
      9.9e-07       19702.3
     9.91e-07       19698.9
     9.92e-07       19695.4
     9.93e-07         19692
     9.94e-07       19688.6
     9.95e-07       19685.2
     9.96e-07       19681.7
     9.97e-07       19678.3
     9.98e-07       19674.9
     9.99e-07       19671.5
        1e-06       19668.1
    1.001e-06       19664.7
    1.002e-06       19661.3
    1.003e-06       19657.9
    1.004e-06       19654.5
    1.005e-06       19651.2
    1.006e-06       19647.8
    1.007e-06       19644.4
    1.008e-06         19641
    1.009e-06       19637.7
     1.01e-06       19634.3
    1.011e-06         19631
    1.012e-06       19627.6
    1.013e-06       19624.3
    1.014e-06       19620.9
    1.015e-06       19617.6
    1.016e-06       19614.2
    1.017e-06       19610.9
    1.018e-06       19607.6
    1.019e-06       19604.3
     1.02e-06       19600.9
    1.021e-06       19597.6
    1.022e-06       19594.3
    1.023e-06         19591
    1.024e-06       19587.7
    1.025e-06       19584.4
    1.026e-06       19581.1
    1.027e-06       19577.8
    1.028e-06       19574.5
    1.029e-06       19571.2
     1.03e-06         19568
    1.031e-06       19564.7
    1.032e-06       19561.4
    1.033e-06       19558.2
    1.034e-06       19554.9
    1.035e-06       19551.6
    1.036e-06       19548.4
    1.037e-06       19545.1
    1.038e-06       19541.9
    1.039e-06       19538.6
     1.04e-06       19535.4
    1.041e-06       19532.2
    1.042e-06       19528.9
    1.043e-06       19525.7
    1.044e-06       19522.5
    1.045e-06       19519.3
    1.046e-06         19516
    1.047e-06       19512.8
    1.048e-06       19509.6
    1.049e-06       19506.4
     1.05e-06       19503.2
    1.051e-06         19500
    1.052e-06       19496.8
    1.053e-06       19493.6
    1.054e-06       19490.5
    1.055e-06       19487.3
    1.056e-06       19484.1
    1.057e-06       19480.9
    1.058e-06       19477.7
    1.059e-06       19474.6
     1.06e-06       19471.4
    1.061e-06       19468.3
    1.062e-06       19465.1
    1.063e-06         19462
    1.064e-06       19458.8
    1.065e-06       19455.7
    1.066e-06       19452.5
    1.067e-06       19449.4
    1.068e-06       19446.2