# Probe 0 (5e-06 5e-06 5e-06)
#       Probe             0
#        Time
        1e-09       29982.6
        2e-09       29965.2
        3e-09       29947.8
        4e-09       29930.4
        5e-09       29912.9
        6e-09       29895.5
        7e-09         29878
        8e-09       29860.5
        9e-09         29843
        1e-08       29825.5
      1.1e-08         29808
      1.2e-08       29790.5
      1.3e-08         29773
      1.4e-08       29755.4
      1.5e-08       29737.9
      1.6e-08       29720.3
      1.7e-08       29702.7
      1.8e-08       29685.1
      1.9e-08       29667.5
        2e-08       29649.9
      2.1e-08       29632.2
      2.2e-08       29614.6
      2.3e-08       29596.9
      2.4e-08       29579.2
      2.5e-08       29561.5
      2.6e-08       29543.8
      2.7e-08       29526.1
      2.8e-08       29508.4
      2.9e-08       29490.6
        3e-08       29472.9
      3.1e-08       29455.1
      3.2e-08       29437.3
      3.3e-08       29419.5
      3.4e-08       29401.7
      3.5e-08       29383.9
      3.6e-08       29366.1
      3.7e-08       29348.3
      3.8e-08       29330.5
      3.9e-08       29312.6
        4e-08       29294.7
      4.1e-08       29276.9
      4.2e-08         29259
      4.3e-08       29241.1
      4.4e-08       29223.2
      4.5e-08       29205.3
      4.6e-08       29187.4
      4.7e-08       29169.5
      4.8e-08       29151.6
      4.9e-08       29133.7
        5e-08       29115.7
      5.1e-08       29097.8
      5.2e-08       29079.9
      5.3e-08       29061.9
      5.4e-08         29044
      5.5e-08         29026
      5.6e-08         29008
      5.7e-08       28990.1
      5.8e-08       28972.1
      5.9e-08       28954.1
        6e-08       28936.2
      6.1e-08       28918.2
      6.2e-08       28900.2
      6.3e-08       28882.2
      6.4e-08       28864.2
      6.5e-08       28846.3
      6.6e-08       28828.3
      6.7e-08       28810.3
      6.8e-08       28792.3
      6.9e-08       28774.3
        7e-08       28756.3
      7.1e-08       28738.4
      7.2e-08       28720.4
      7.3e-08       28702.4
      7.4e-08       28684.4
      7.5e-08       28666.4
      7.6e-08       28648.5
      7.7e-08       28630.5
      7.8e-08       28612.5
      7.9e-08       28594.6
        8e-08       28576.6
      8.1e-08       28558.6
      8.2e-08       28540.7
      8.3e-08       28522.7
      8.4e-08       28504.8
      8.5e-08       28486.9
      8.6e-08       28468.9
      8.7e-08         28451
      8.8e-08       28433.1
      8.9e-08       28415.2
        9e-08       28397.2
      9.1e-08       28379.3
      9.2e-08       28361.5
      9.3e-08       28343.6
      9.4e-08       28325.7
      9.5e-08       28307.8
      9.6e-08         28290
      9.7e-08       28272.1
      9.8e-08       28254.3
      9.9e-08       28236.4
        1e-07       28218.6
     1.01e-07       28200.8
     1.02e-07         28183
     1.03e-07       28165.2
     1.04e-07       28147.4
     1.05e-07       28129.6
     1.06e-07       28111.8
     1.07e-07       28094.1
     1.08e-07       28076.3
     1.09e-07       28058.6
      1.1e-07       28040.9
     1.11e-07       28023.2
     1.12e-07       28005.5
     1.13e-07       27987.8
     1.14e-07       27970.1
     1.15e-07       27952.5
     1.16e-07       27934.8
     1.17e-07       27917.2
     1.18e-07       27899.6
     1.19e-07         27882
      1.2e-07       27864.4
     1.21e-07       27846.8
     1.22e-07       27829.2
     1.23e-07       27811.7
     1.24e-07       27794.2
     1.25e-07       27776.6
     1.26e-07       27759.1
     1.27e-07       27741.7
     1.28e-07       27724.2
     1.29e-07       27706.7
      1.3e-07       27689.3
     1.31e-07       27671.9
     1.32e-07       27654.5
     1.33e-07       27637.1
     1.34e-07       27619.7
     1.35e-07       27602.3
     1.36e-07         27585
     1.37e-07       27567.7
     1.38e-07       27550.4
     1.39e-07       27533.1
      1.4e-07       27515.8
     1.41e-07       27498.6
     1.42e-07       27481.3
     1.43e-07       27464.1
     1.44e-07       27446.9
     1.45e-07       27429.8
     1.46e-07       27412.6
     1.47e-07       27395.5
     1.48e-07       27378.3
     1.49e-07       27361.2
      1.5e-07       27344.2
     1.51e-07       27327.1
     1.52e-07         27310
     1.53e-07         27293
     1.54e-07         27276
     1.55e-07         27259
     1.56e-07       27242.1
     1.57e-07       27225.1
     1.58e-07       27208.2
     1.59e-07       27191.3
      1.6e-07       27174.4
     1.61e-07       27157.6
     1.62e-07       27140.7
     1.63e-07       27123.9
     1.64e-07       27107.1
     1.65e-07       27090.3
     1.66e-07       27073.6
     1.67e-07       27056.9
     1.68e-07       27040.1
     1.69e-07       27023.5
      1.7e-07       27006.8
     1.71e-07       26990.1
     1.72e-07       26973.5
     1.73e-07       26956.9
     1.74e-07       26940.3
     1.75e-07       26923.8
     1.76e-07       26907.3
     1.77e-07       26890.7
     1.78e-07       26874.3
     1.79e-07       26857.8
      1.8e-07       26841.4
     1.81e-07       26824.9
     1.82e-07       26808.5
     1.83e-07       26792.2
     1.84e-07       26775.8
     1.85e-07       26759.5
     1.86e-07       26743.2
     1.87e-07       26726.9
     1.88e-07       26710.7
     1.89e-07       26694.4
      1.9e-07       26678.2
     1.91e-07         26662
     1.92e-07       26645.9
     1.93e-07       26629.7
     1.94e-07       26613.6
     1.95e-07       26597.5
     1.96e-07       26581.5
     1.97e-07       26565.4
     1.98e-07       26549.4
     1.99e-07       26533.4
        2e-07       26517.5
     2.01e-07       26501.5
     2.02e-07       26485.6
     2.03e-07       26469.7
     2.04e-07       26453.9
     2.05e-07         26438
     2.06e-07       26422.2
     2.07e-07       26406.4
     2.08e-07       26390.6
     2.09e-07       26374.9
      2.1e-07       26359.2
     2.11e-07       26343.5
     2.12e-07       26327.8
     2.13e-07       26312.2
     2.14e-07       26296.6
     2.15e-07         26281
     2.16e-07       26265.4
     2.17e-07       26249.9
     2.18e-07       26234.4
     2.19e-07       26218.9
      2.2e-07       26203.4
     2.21e-07         26188
     2.22e-07       26172.6
     2.23e-07       26157.2
     2.24e-07       26141.8
     2.25e-07       26126.5
     2.26e-07       26111.2
     2.27e-07       26095.9
     2.28e-07       26080.6
     2.29e-07       26065.4
      2.3e-07       26050.2
     2.31e-07         26035
     2.32e-07       26019.9
     2.33e-07       26004.7
     2.34e-07       25989.6
     2.35e-07       25974.6
     2.36e-07       25959.5
     2.37e-07       25944.5
     2.38e-07       25929.5
     2.39e-07       25914.5
      2.4e-07       25899.6
     2.41e-07       25884.7
     2.42e-07       25869.8
     2.43e-07       25854.9
     2.44e-07       25840.1
     2.45e-07       25825.3
     2.46e-07       25810.5
     2.47e-07       25795.7
     2.48e-07         25781
     2.49e-07       25766.3
      2.5e-07       25751.6
     2.51e-07       25736.9
     2.52e-07       25722.3
     2.53e-07       25707.7
     2.54e-07       25693.1
     2.55e-07       25678.6
     2.56e-07         25664
     2.57e-07       25649.5
     2.58e-07       25635.1
     2.59e-07       25620.6
      2.6e-07       25606.2
     2.61e-07       25591.8
     2.62e-07       25577.5
     2.63e-07       25563.1
     2.64e-07       25548.8
     2.65e-07       25534.5
     2.66e-07       25520.3
     2.67e-07         25506
     2.68e-07       25491.8
     2.69e-07       25477.6
      2.7e-07       25463.5
     2.71e-07       25449.4
     2.72e-07       25435.3
     2.73e-07       25421.2
     2.74e-07       25407.1
     2.75e-07       25393.1
     2.76e-07       25379.1
     2.77e-07       25365.1
     2.78e-07       25351.2
     2.79e-07       25337.3
      2.8e-07       25323.4
     2.81e-07       25309.5
     2.82e-07       25295.7
     2.83e-07       25281.9
     2.84e-07       25268.1
     2.85e-07       25254.3
     2.86e-07       25240.6
     2.87e-07       25226.9
     2.88e-07       25213.2
     2.89e-07       25199.6
      2.9e-07       25185.9
     2.91e-07       25172.3
     2.92e-07       25158.8
     2.93e-07       25145.2
     2.94e-07       25131.7
     2.95e-07       25118.2
     2.96e-07       25104.7
     2.97e-07       25091.3
     2.98e-07       25077.9
     2.99e-07       25064.5
        3e-07       25051.1
     3.01e-07       25037.8
     3.02e-07       25024.5
     3.03e-07       25011.2
     3.04e-07       24997.9
     3.05e-07       24984.7
     3.06e-07       24971.5
     3.07e-07       24958.3
     3.08e-07       24945.1
     3.09e-07         24932
      3.1e-07       24918.9
     3.11e-07       24905.8
     3.12e-07       24892.8
     3.13e-07       24879.7
     3.14e-07       24866.7
     3.15e-07       24853.7
     3.16e-07       24840.8
     3.17e-07       24827.9
     3.18e-07         24815
     3.19e-07       24802.1
      3.2e-07       24789.2
     3.21e-07       24776.4
     3.22e-07       24763.6
     3.23e-07       24750.9
     3.24e-07       24738.1
     3.25e-07       24725.4
     3.26e-07       24712.7
     3.27e-07         24700
     3.28e-07       24687.4
     3.29e-07       24674.8
      3.3e-07       24662.2
     3.31e-07       24649.6
     3.32e-07         24637
     3.33e-07       24624.5
     3.34e-07         24612
     3.35e-07       24599.6
     3.36e-07       24587.1
     3.37e-07       24574.7
     3.38e-07       24562.3
     3.39e-07       24549.9
      3.4e-07       24537.6
     3.41e-07       24525.3
     3.42e-07         24513
     3.43e-07       24500.7
     3.44e-07       24488.5
     3.45e-07       24476.3
     3.46e-07       24464.1
     3.47e-07       24451.9
     3.48e-07       24439.7
     3.49e-07       24427.6
      3.5e-07       24415.5
     3.51e-07       24403.5
     3.52e-07       24391.4
     3.53e-07       24379.4
     3.54e-07       24367.4
     3.55e-07       24355.4
     3.56e-07       24343.5
     3.57e-07       24331.5
     3.58e-07       24319.6
     3.59e-07       24307.8
      3.6e-07       24295.9
     3.61e-07       24284.1
     3.62e-07       24272.3
     3.63e-07       24260.5
     3.64e-07       24248.8
     3.65e-07         24237
     3.66e-07       24225.3
     3.67e-07       24213.6
     3.68e-07         24202
     3.69e-07       24190.3
      3.7e-07       24178.7
     3.71e-07       24167.1
     3.72e-07       24155.6
     3.73e-07         24144
     3.74e-07       24132.5
     3.75e-07         24121
     3.76e-07       24109.6
     3.77e-07       24098.1
     3.78e-07       24086.7
     3.79e-07       24075.3
      3.8e-07       24063.9
     3.81e-07       24052.6
     3.82e-07       24041.2
     3.83e-07       24029.9
     3.84e-07       24018.6
     3.85e-07       24007.4
     3.86e-07       23996.2
     3.87e-07       23984.9
     3.88e-07       23973.7
     3.89e-07       23962.6
      3.9e-07       23951.4
     3.91e-07       23940.3
     3.92e-07       23929.2
     3.93e-07       23918.1
     3.94e-07       23907.1
     3.95e-07       23896.1
     3.96e-07       23885.1
     3.97e-07       23874.1
     3.98e-07       23863.1
     3.99e-07       23852.2
        4e-07       23841.3
     4.01e-07       23830.4
     4.02e-07       23819.5
     4.03e-07       23808.7
     4.04e-07       23797.8
     4.05e-07         23787
     4.06e-07       23776.2
     4.07e-07       23765.5
     4.08e-07       23754.7
     4.09e-07         23744
      4.1e-07       23733.3
     4.11e-07       23722.7
     4.12e-07         23712
     4.13e-07       23701.4
     4.14e-07       23690.8
     4.15e-07       23680.2
     4.16e-07       23669.6
     4.17e-07       23659.1
     4.18e-07       23648.6
     4.19e-07       23638.1
      4.2e-07       23627.6
     4.21e-07       23617.2
     4.22e-07       23606.7
     4.23e-07       23596.3
     4.24e-07       23585.9
     4.25e-07       23575.6
     4.26e-07       23565.2
     4.27e-07       23554.9
     4.28e-07       23544.6
     4.29e-07       23534.3
      4.3e-07       23524.1
     4.31e-07       23513.8
     4.32e-07       23503.6
     4.33e-07       23493.4
     4.34e-07       23483.2
     4.35e-07       23473.1
     4.36e-07         23463
     4.37e-07       23452.8
     4.38e-07       23442.8
     4.39e-07       23432.7
      4.4e-07       23422.6
     4.41e-07       23412.6
     4.42e-07       23402.6
     4.43e-07       23392.6
     4.44e-07       23382.6
     4.45e-07       23372.7
     4.46e-07       23362.8
     4.47e-07       23352.9
     4.48e-07         23343
     4.49e-07       23333.1
      4.5e-07       23323.3
     4.51e-07       23313.4
     4.52e-07       23303.6
     4.53e-07       23293.9
     4.54e-07       23284.1
     4.55e-07       23274.3
     4.56e-07       23264.6
     4.57e-07       23254.9
     4.58e-07       23245.2
     4.59e-07       23235.6
      4.6e-07       23225.9
     4.61e-07       23216.3
     4.62e-07       23206.7
     4.63e-07       23197.1
     4.64e-07       23187.6
     4.65e-07         23178
     4.66e-07       23168.5
     4.67e-07         23159
     4.68e-07       23149.5
     4.69e-07         23140
      4.7e-07       23130.6
     4.71e-07       23121.1
     4.72e-07       23111.7
     4.73e-07       23102.3
     4.74e-07         23093
     4.75e-07       23083.6
     4.76e-07       23074.3
     4.77e-07         23065
     4.78e-07       23055.7
     4.79e-07       23046.4
      4.8e-07       23037.1
     4.81e-07       23027.9
     4.82e-07       23018.7
     4.83e-07       23009.5
     4.84e-07       23000.3
     4.85e-07       22991.1
     4.86e-07         22982
     4.87e-07       22972.9
     4.88e-07       22963.8
     4.89e-07       22954.7
      4.9e-07       22945.6
     4.91e-07       22936.6
     4.92e-07       22927.5
     4.93e-07       22918.5
     4.94e-07       22909.5
     4.95e-07       22900.5
     4.96e-07       22891.6
     4.97e-07       22882.6
     4.98e-07       22873.7
     4.99e-07       22864.8
        5e-07       22855.9
     5.01e-07       22847.1
     5.02e-07       22838.2
     5.03e-07       22829.4
     5.04e-07       22820.6
     5.05e-07       22811.8
     5.06e-07         22803
     5.07e-07       22794.2
     5.08e-07       22785.5
     5.09e-07       22776.7
      5.1e-07         22768
     5.11e-07       22759.3
     5.12e-07       22750.7
     5.13e-07         22742
     5.14e-07       22733.4
     5.15e-07       22724.8
     5.16e-07       22716.2
     5.17e-07       22707.6
     5.18e-07         22699
     5.19e-07       22690.4
      5.2e-07       22681.9
     5.21e-07       22673.4
     5.22e-07       22664.9
     5.23e-07       22656.4
     5.24e-07       22647.9
     5.25e-07       22639.5
     5.26e-07       22631.1
     5.27e-07       22622.6
     5.28e-07       22614.2
     5.29e-07       22605.9
      5.3e-07       22597.5
     5.31e-07       22589.1
     5.32e-07       22580.8
     5.33e-07       22572.5
     5.34e-07       22564.2
     5.35e-07       22555.9
     5.36e-07       22547.6
     5.37e-07       22539.4
     5.38e-07       22531.2
     5.39e-07       22522.9
      5.4e-07       22514.7
     5.41e-07       22506.6
     5.42e-07       22498.4
     5.43e-07       22490.2
     5.44e-07       22482.1
     5.45e-07         22474
     5.46e-07       22465.9
     5.47e-07       22457.8
     5.48e-07       22449.7
     5.49e-07       22441.7
      5.5e-07       22433.6
     5.51e-07       22425.6
     5.52e-07       22417.6
     5.53e-07       22409.6
     5.54e-07       22401.6
     5.55e-07       22393.7
     5.56e-07       22385.7
     5.57e-07       22377.8
     5.58e-07       22369.9
     5.59e-07         22362
      5.6e-07       22354.1
     5.61e-07       22346.2
     5.62e-07       22338.4
     5.63e-07       22330.5
     5.64e-07       22322.7
     5.65e-07       22314.9
     5.66e-07       22307.1
     5.67e-07       22299.4
     5.68e-07       22291.6
     5.69e-07       22283.9
      5.7e-07       22276.1
     5.71e-07       22268.4
     5.72e-07       22260.7
     5.73e-07         22253
     5.74e-07       22245.4
     5.75e-07       22237.7
     5.76e-07       22230.1
     5.77e-07       22222.4
     5.78e-07       22214.8
     5.79e-07       22207.2
      5.8e-07       22199.7
     5.81e-07       22192.1
     5.82e-07       22184.5
     5.83e-07         22177
     5.84e-07       22169.5
     5.85e-07         22162
     5.86e-07       22154.5
     5.87e-07         22147
     5.88e-07       22139.5
     5.89e-07       22132.1
      5.9e-07       22124.7
     5.91e-07       22117.2
     5.92e-07       22109.8
     5.93e-07       22102.4
     5.94e-07       22095.1
     5.95e-07       22087.7
     5.96e-07       22080.3
     5.97e-07         22073
     5.98e-07       22065.7
     5.99e-07       22058.4
        6e-07       22051.1
     6.01e-07       22043.8
     6.02e-07       22036.5
     6.03e-07       22029.3
     6.04e-07       22022.1
     6.05e-07       22014.8
     6.06e-07       22007.6
     6.07e-07       22000.4
     6.08e-07       21993.2
     6.09e-07       21986.1
      6.1e-07       21978.9
     6.11e-07       21971.8
     6.12e-07       21964.7
     6.13e-07       21957.5
     6.14e-07       21950.4
     6.15e-07       21943.3
     6.16e-07       21936.3
     6.17e-07       21929.2
     6.18e-07       21922.2
     6.19e-07       21915.1
      6.2e-07       21908.1
     6.21e-07       21901.1
     6.22e-07       21894.1
     6.23e-07       21887.1
     6.24e-07       21880.2
     6.25e-07       21873.2
     6.26e-07       21866.3
     6.27e-07       21859.3
     6.28e-07       21852.4
     6.29e-07       21845.5
      6.3e-07       21838.6
     6.31e-07       21831.7
     6.32e-07       21824.9
     6.33e-07         21818
     6.34e-07       21811.2
     6.35e-07       21804.4
     6.36e-07       21797.6
     6.37e-07       21790.8
     6.38e-07         21784
     6.39e-07       21777.2
      6.4e-07       21770.4
     6.41e-07       21763.7
     6.42e-07       21756.9
     6.43e-07       21750.2
     6.44e-07       21743.5
     6.45e-07       21736.8
     6.46e-07       21730.1
     6.47e-07       21723.4
     6.48e-07       21716.8
     6.49e-07       21710.1
      6.5e-07       21703.5
     6.51e-07       21696.9
     6.52e-07       21690.3
     6.53e-07       21683.7
     6.54e-07       21677.1
     6.55e-07       21670.5
     6.56e-07       21663.9
     6.57e-07       21657.4
     6.58e-07       21650.8
     6.59e-07       21644.3
      6.6e-07       21637.8
     6.61e-07       21631.3
     6.62e-07       21624.8
     6.63e-07       21618.3
     6.64e-07       21611.8
     6.65e-07       21605.4
     6.66e-07       21598.9
     6.67e-07       21592.5
     6.68e-07       21586.1
     6.69e-07       21579.7
      6.7e-07       21573.3
     6.71e-07       21566.9
     6.72e-07       21560.5
     6.73e-07       21554.1
     6.74e-07       21547.8
     6.75e-07       21541.4
     6.76e-07       21535.1
     6.77e-07       21528.8
     6.78e-07       21522.5
     6.79e-07       21516.2
      6.8e-07       21509.9
     6.81e-07       21503.6
     6.82e-07       21497.4
     6.83e-07       21491.1
     6.84e-07       21484.9
     6.85e-07       21478.6
     6.86e-07       21472.4
     6.87e-07       21466.2
     6.88e-07         21460
     6.89e-07       21453.8
      6.9e-07       21447.7
     6.91e-07       21441.5
     6.92e-07       21435.4
     6.93e-07       21429.2
     6.94e-07       21423.1
     6.95e-07         21417
     6.96e-07       21410.9
     6.97e-07       21404.8
     6.98e-07       21398.7
     6.99e-07       21392.6
        7e-07       21386.5
     7.01e-07       21380.5
     7.02e-07       21374.4
     7.03e-07       21368.4
     7.04e-07       21362.4
     7.05e-07       21356.4
     7.06e-07       21350.4
     7.07e-07       21344.4
     7.08e-07       21338.4
     7.09e-07       21332.4
      7.1e-07       21326.5
     7.11e-07       21320.5
     7.12e-07       21314.6
     7.13e-07       21308.7
     7.14e-07       21302.8
     7.15e-07       21296.9
     7.16e-07         21291
     7.17e-07       21285.1
     7.18e-07       21279.2
     7.19e-07       21273.3
      7.2e-07       21267.5
     7.21e-07       21261.6
     7.22e-07       21255.8
     7.23e-07         21250
     7.24e-07       21244.2
     7.25e-07       21238.4
     7.26e-07       21232.6
     7.27e-07       21226.8
     7.28e-07         21221
     7.29e-07       21215.2
      7.3e-07       21209.5
     7.31e-07       21203.7
     7.32e-07         21198
     7.33e-07       21192.3
     7.34e-07       21186.6
     7.35e-07       21180.9
     7.36e-07       21175.2
     7.37e-07       21169.5
     7.38e-07       21163.8
     7.39e-07       21158.1
      7.4e-07       21152.5
     7.41e-07       21146.8
     7.42e-07       21141.2
     7.43e-07       21135.6
     7.44e-07         21130
     7.45e-07       21124.4
     7.46e-07       21118.8
     7.47e-07       21113.2
     7.48e-07       21107.6
     7.49e-07         21102
      7.5e-07       21096.5
     7.51e-07       21090.9
     7.52e-07       21085.4
     7.53e-07       21079.8
     7.54e-07       21074.3
     7.55e-07       21068.8
     7.56e-07       21063.3
     7.57e-07       21057.8
     7.58e-07       21052.3
     7.59e-07       21046.8
      7.6e-07       21041.4
     7.61e-07       21035.9
     7.62e-07       21030.5
     7.63e-07         21025
     7.64e-07       21019.6
     7.65e-07       21014.2
     7.66e-07       21008.8
     7.67e-07       21003.4
     7.68e-07         20998
     7.69e-07       20992.6
      7.7e-07       20987.2
     7.71e-07       20981.8
     7.72e-07       20976.5
     7.73e-07       20971.1
     7.74e-07       20965.8
     7.75e-07       20960.5
     7.76e-07       20955.1
     7.77e-07       20949.8
     7.78e-07       20944.5
     7.79e-07       20939.2
      7.8e-07       20933.9
     7.81e-07       20928.7
     7.82e-07       20923.4
     7.83e-07       20918.1
     7.84e-07       20912.9
     7.85e-07       20907.6
     7.86e-07       20902.4
     7.87e-07       20897.2
     7.88e-07       20891.9
     7.89e-07       20886.7
      7.9e-07       20881.5
     7.91e-07       20876.3
     7.92e-07       20871.2
     7.93e-07         20866
     7.94e-07       20860.8
     7.95e-07       20855.7
     7.96e-07       20850.5
     7.97e-07       20845.4
     7.98e-07       20840.2
     7.99e-07       20835.1
        8e-07         20830
     8.01e-07       20824.9
     8.02e-07       20819.8
     8.03e-07       20814.7
     8.04e-07       20809.6
     8.05e-07       20804.5
     8.06e-07       20799.5
     8.07e-07       20794.4
     8.08e-07       20789.3
     8.09e-07       20784.3
      8.1e-07       20779.3
     8.11e-07       20774.2
     8.12e-07       20769.2
     8.13e-07       20764.2
     8.14e-07       20759.2
     8.15e-07       20754.2
     8.16e-07       20749.2
     8.17e-07       20744.2
     8.18e-07       20739.3
     8.19e-07       20734.3
      8.2e-07       20729.3
     8.21e-07       20724.4
     8.22e-07       20719.5
     8.23e-07       20714.5
     8.24e-07       20709.6
     8.25e-07       20704.7
     8.26e-07       20699.8
     8.27e-07       20694.9
     8.28e-07         20690
     8.29e-07       20685.1
      8.3e-07       20680.2
     8.31e-07       20675.4
     8.32e-07       20670.5
     8.33e-07       20665.6
     8.34e-07       20660.8
     8.35e-07       20655.9
     8.36e-07       20651.1
     8.37e-07       20646.3
     8.38e-07       20641.5
     8.39e-07       20636.7
      8.4e-07       20631.9
     8.41e-07       20627.1
     8.42e-07       20622.3
     8.43e-07       20617.5
     8.44e-07       20612.7
     8.45e-07         20608
     8.46e-07       20603.2
     8.47e-07       20598.5
     8.48e-07       20593.7
     8.49e-07         20589
      8.5e-07       20584.3
     8.51e-07       20579.5
     8.52e-07       20574.8
     8.53e-07       20570.1
     8.54e-07       20565.4
     8.55e-07       20560.7
     8.56e-07         20556
     8.57e-07       20551.4
     8.58e-07       20546.7
     8.59e-07         20542
      8.6e-07       20537.4
     8.61e-07       20532.7
     8.62e-07       20528.1
     8.63e-07       20523.5
     8.64e-07       20518.8
     8.65e-07       20514.2
     8.66e-07       20509.6
     8.67e-07         20505
     8.68e-07       20500.4
     8.69e-07       20495.8
      8.7e-07       20491.2
     8.71e-07       20486.6
     8.72e-07       20482.1
     8.73e-07       20477.5
     8.74e-07       20472.9
     8.75e-07       20468.4
     8.76e-07       20463.8
     8.77e-07       20459.3
     8.78e-07       20454.8
     8.79e-07       20450.3
      8.8e-07       20445.7
     8.81e-07       20441.2
     8.82e-07       20436.7
     8.83e-07       20432.2
     8.84e-07       20427.7
     8.85e-07       20423.3
     8.86e-07       20418.8
     8.87e-07       20414.3
     8.88e-07       20409.9
     8.89e-07       20405.4
      8.9e-07         20401
     8.91e-07       20396.5
     8.92e-07       20392.1
     8.93e-07       20387.6
     8.94e-07       20383.2
     8.95e-07       20378.8
     8.96e-07       20374.4
     8.97e-07         20370
     8.98e-07       20365.6
     8.99e-07       20361.2
        9e-07       20356.8
     9.01e-07       20352.4
     9.02e-07       20348.1
     9.03e-07       20343.7
     9.04e-07       20339.4
     9.05e-07         20335
     9.06e-07       20330.7
     9.07e-07       20326.3
     9.08e-07         20322
     9.09e-07       20317.7
      9.1e-07       20313.3
     9.11e-07         20309
     9.12e-07       20304.7
     9.13e-07       20300.4
     9.14e-07       20296.1
     9.15e-07       20291.8
     9.16e-07       20287.6
     9.17e-07       20283.3
     9.18e-07         20279
     9.19e-07       20274.7
      9.2e-07       20270.5
     9.21e-07       20266.2
     9.22e-07         20262
     9.23e-07       20257.8
     9.24e-07       20253.5
     9.25e-07       20249.3
     9.26e-07       20245.1
     9.27e-07       20240.9
     9.28e-07       20236.7
     9.29e-07       20232.5
      9.3e-07       20228.3
     9.31e-07       20224.1
     9.32e-07       20219.9
     9.33e-07       20215.7
     9.34e-07       20211.5
     9.35e-07       20207.4
     9.36e-07       20203.2
     9.37e-07         20199
     9.38e-07       20194.9
     9.39e-07       20190.8
      9.4e-07       20186.6
     9.41e-07       20182.5
     9.42e-07       20178.4
     9.43e-07       20174.2
     9.44e-07       20170.1
     9.45e-07         20166
     9.46e-07       20161.9
     9.47e-07       20157.8
     9.48e-07       20153.7
     9.49e-07       20149.7
      9.5e-07       20145.6
     9.51e-07       20141.5
     9.52e-07       20137.4
     9.53e-07       20133.4
     9.54e-07       20129.3
     9.55e-07       20125.3
     9.56e-07       20121.2
     9.57e-07       20117.2
     9.58e-07       20113.1
     9.59e-07       20109.1
      9.6e-07       20105.1
     9.61e-07       20101.1
     9.62e-07       20097.1
     9.63e-07       20093.1
     9.64e-07       20089.1
     9.65e-07       20085.1
     9.66e-07       20081.1
     9.67e-07       20077.1
     9.68e-07       20073.1
     9.69e-07       20069.2
      9.7e-07       20065.2
     9.71e-07       20061.2
     9.72e-07       20057.3
     9.73e-07       20053.3
     9.74e-07       20049.4
     9.75e-07       20045.4
     9.76e-07       20041.5
     9.77e-07       20037.6
     9.78e-07       20033.7
     9.79e-07       20029.7
      9.8e-07       20025.8
     9.81e-07       20021.9
     9.82e-07         20018
     9.83e-07       20014.1
     9.84e-07       20010.2
     9.85e-07       20006.3
     9.86e-07       20002.5
     9.87e-07       19998.6
     9.88e-07       19994.7
     9.89e-07       19990.8
      9.9e-07         19987
     9.91e-07       19983.1
     9.92e-07       19979.3
     9.93e-07       19975.4
     9.94e-07       19971.6
     9.95e-07       19967.8
     9.96e-07       19963.9
     9.97e-07       19960.1
     9.98e-07       19956.3
     9.99e-07       19952.5
        1e-06       19948.7
    1.001e-06       19944.9
    1.002e-06       19941.1
    1.003e-06       19937.3
    1.004e-06       19933.5
    1.005e-06       19929.7
    1.006e-06       19925.9
    1.007e-06       19922.2
    1.008e-06       19918.4
    1.009e-06       19914.6
     1.01e-06       19910.9
    1.011e-06       19907.1
    1.012e-06       19903.4
    1.013e-06       19899.6
    1.014e-06       19895.9
    1.015e-06       19892.2
    1.016e-06       19888.4
    1.017e-06       19884.7
    1.018e-06         19881
    1.019e-06       19877.3
     1.02e-06       19873.6
    1.021e-06       19869.9
    1.022e-06       19866.2
    1.023e-06       19862.5
    1.024e-06       19858.8
    1.025e-06       19855.1
    1.026e-06       19851.4
    1.027e-06       19847.8
    1.028e-06       19844.1
    1.029e-06       19840.4
     1.03e-06       19836.8
    1.031e-06       19833.1
    1.032e-06       19829.5
    1.033e-06       19825.8
    1.034e-06       19822.2
    1.035e-06       19818.5
    1.036e-06       19814.9
    1.037e-06       19811.3
    1.038e-06       19807.7
    1.039e-06         19804
     1.04e-06       19800.4
    1.041e-06       19796.8
    1.042e-06       19793.2
    1.043e-06       19789.6
    1.044e-06         19786
    1.045e-06       19782.4
    1.046e-06       19778.9
    1.047e-06       19775.3
    1.048e-06       19771.7
    1.049e-06       19768.1
     1.05e-06       19764.6
    1.051e-06         19761
    1.052e-06       19757.5
    1.053e-06       19753.9
    1.054e-06       19750.3
    1.055e-06       19746.8
    1.056e-06       19743.3
    1.057e-06       19739.7
    1.058e-06       19736.2
    1.059e-06       19732.7
     1.06e-06       19729.2
    1.061e-06       19725.6
    1.062e-06       19722.1
    1.063e-06       19718.6
    1.064e-06       19715.1
    1.065e-06       19711.6
    1.066e-06       19708.1
    1.067e-06       19704.6
    1.068e-06       19701.1