# Probe 0 (5e-06 5e-06 5e-06)
#       Probe             0
#        Time
        1e-09       1147.77
        2e-09       1273.89
        3e-09       1387.54
        4e-09       1492.94
        5e-09       1592.39
        6e-09       1687.31
        7e-09       1778.65
        8e-09       1867.07
        9e-09       1953.04
        1e-08       2036.94
      1.1e-08       2119.03
      1.2e-08       2199.54
      1.3e-08       2278.64
      1.4e-08       2356.49
      1.5e-08        2433.2
      1.6e-08       2508.88
      1.7e-08        2583.6
      1.8e-08       2657.44
      1.9e-08       2730.46
        2e-08       2802.73
      2.1e-08       2874.27
      2.2e-08       2945.14
      2.3e-08       3015.38
      2.4e-08       3085.01
      2.5e-08       3154.07
      2.6e-08       3222.58
      2.7e-08       3290.56
      2.8e-08       3358.04
      2.9e-08       3425.03
        3e-08       3491.56
      3.1e-08       3557.63
      3.2e-08       3623.27
      3.3e-08       3688.49
      3.4e-08       3753.29
      3.5e-08        3817.7
      3.6e-08       3881.72
      3.7e-08       3945.36
      3.8e-08       4008.64
      3.9e-08       4071.55
        4e-08       4134.11
      4.1e-08       4196.33
      4.2e-08       4258.21
      4.3e-08       4319.76
      4.4e-08       4380.98
      4.5e-08       4441.89
      4.6e-08       4502.48
      4.7e-08       4562.76
      4.8e-08       4622.75
      4.9e-08       4682.43
        5e-08       4741.83
      5.1e-08       4800.93
      5.2e-08       4859.75
      5.3e-08       4918.29
      5.4e-08       4976.55
      5.5e-08       5034.54
      5.6e-08       5092.26
      5.7e-08       5149.71
      5.8e-08       5206.91
      5.9e-08       5263.84
        6e-08       5320.51
      6.1e-08       5376.93
      6.2e-08        5433.1
      6.3e-08       5489.02
      6.4e-08       5544.69
      6.5e-08       5600.12
      6.6e-08       5655.31
      6.7e-08       5710.26
      6.8e-08       5764.97
      6.9e-08       5819.45
        7e-08        5873.7
      7.1e-08       5927.71
      7.2e-08        5981.5
      7.3e-08       6035.07
      7.4e-08        6088.4
      7.5e-08       6141.52
      7.6e-08       6194.42
      7.7e-08       6247.09
      7.8e-08       6299.55
      7.9e-08        6351.8
        8e-08       6403.83
      8.1e-08       6455.65
      8.2e-08       6507.26
      8.3e-08       6558.66
      8.4e-08       6609.85
      8.5e-08       6660.83
      8.6e-08       6711.62
      8.7e-08       6762.19
      8.8e-08       6812.57
      8.9e-08       6862.75
        9e-08       6912.72
      9.1e-08        6962.5
      9.2e-08       7012.09
      9.3e-08       7061.48
      9.4e-08       7110.67
      9.5e-08       7159.67
      9.6e-08       7208.48
      9.7e-08        7257.1
      9.8e-08       7305.53
      9.9e-08       7353.77
        1e-07       7401.83
     1.01e-07        7449.7
     1.02e-07       7497.38
     1.03e-07       7544.88
     1.04e-07        7592.2
     1.05e-07       7639.34
     1.06e-07       7686.29
     1.07e-07       7733.07
     1.08e-07       7779.67
     1.09e-07       7826.09
      1.1e-07       7872.33
     1.11e-07        7918.4
     1.12e-07       7964.29
     1.13e-07       8010.01
     1.14e-07       8055.55
     1.15e-07       8100.93
     1.16e-07       8146.13
     1.17e-07       8191.16
     1.18e-07       8236.02
     1.19e-07       8280.72
      1.2e-07       8325.24
     1.21e-07        8369.6
     1.22e-07       8413.79
     1.23e-07       8457.82
     1.24e-07       8501.68
     1.25e-07       8545.38
     1.26e-07       8588.92
     1.27e-07       8632.29
     1.28e-07        8675.5
     1.29e-07       8718.55
      1.3e-07       8761.45
     1.31e-07       8804.18
     1.32e-07       8846.75
     1.33e-07       8889.16
     1.34e-07       8931.42
     1.35e-07       8973.52
     1.36e-07       9015.47
     1.37e-07       9057.26
     1.38e-07        9098.9
     1.39e-07       9140.38
      1.4e-07       9181.71
     1.41e-07       9222.89
     1.42e-07       9263.91
     1.43e-07       9304.79
     1.44e-07       9345.51
     1.45e-07       9386.09
     1.46e-07       9426.51
     1.47e-07       9466.79
     1.48e-07       9506.92
     1.49e-07        9546.9
      1.5e-07       9586.73
     1.51e-07       9626.42
     1.52e-07       9665.96
     1.53e-07       9705.36
     1.54e-07       9744.62
     1.55e-07       9783.73
     1.56e-07       9822.69
     1.57e-07       9861.52
     1.58e-07        9900.2
     1.59e-07       9938.74
      1.6e-07       9977.14
     1.61e-07       10015.4
     1.62e-07       10053.5
     1.63e-07       10091.5
     1.64e-07       10129.3
     1.65e-07         10167
     1.66e-07       10204.6
     1.67e-07         10242
     1.68e-07       10279.3
     1.69e-07       10316.5
      1.7e-07       10353.5
     1.71e-07       10390.4
     1.72e-07       10427.1
     1.73e-07       10463.8
     1.74e-07       10500.2
     1.75e-07       10536.6
     1.76e-07       10572.8
     1.77e-07       10608.9
     1.78e-07       10644.8
     1.79e-07       10680.7
      1.8e-07       10716.4
     1.81e-07       10751.9
     1.82e-07       10787.3
     1.83e-07       10822.6
     1.84e-07       10857.8
     1.85e-07       10892.9
     1.86e-07       10927.8
     1.87e-07       10962.6
     1.88e-07       10997.2
     1.89e-07       11031.8
      1.9e-07       11066.2
     1.91e-07       11100.5
     1.92e-07       11134.6
     1.93e-07       11168.7
     1.94e-07       11202.6
     1.95e-07       11236.3
     1.96e-07         11270
     1.97e-07       11303.5
     1.98e-07         11337
     1.99e-07       11370.3
        2e-07       11403.4
     2.01e-07       11436.5
     2.02e-07       11469.4
     2.03e-07       11502.2
     2.04e-07       11534.9
     2.05e-07       11567.5
     2.06e-07       11599.9
     2.07e-07       11632.3
     2.08e-07       11664.5
     2.09e-07       11696.6
      2.1e-07       11728.5
     2.11e-07       11760.4
     2.12e-07       11792.1
     2.13e-07       11823.8
     2.14e-07       11855.3
     2.15e-07       11886.7
     2.16e-07         11918
     2.17e-07       11949.1
     2.18e-07       11980.2
     2.19e-07       12011.1
      2.2e-07       12041.9
     2.21e-07       12072.6
     2.22e-07       12103.2
     2.23e-07       12133.7
     2.24e-07       12164.1
     2.25e-07       12194.3
     2.26e-07       12224.5
     2.27e-07       12254.5
     2.28e-07       12284.4
     2.29e-07       12314.2
      2.3e-07       12343.9
     2.31e-07       12373.5
     2.32e-07         12403
     2.33e-07       12432.4
     2.34e-07       12461.7
     2.35e-07       12490.8
     2.36e-07       12519.9
     2.37e-07       12548.8
     2.38e-07       12577.6
     2.39e-07       12606.4
      2.4e-07         12635
     2.41e-07       12663.5
     2.42e-07       12691.9
     2.43e-07       12720.2
     2.44e-07       12748.4
     2.45e-07       12776.5
     2.46e-07       12804.5
     2.47e-07       12832.4
     2.48e-07       12860.1
     2.49e-07       12887.8
      2.5e-07       12915.4
     2.51e-07       12942.9
     2.52e-07       12970.2
     2.53e-07       12997.5
     2.54e-07       13024.6
     2.55e-07       13051.7
     2.56e-07       13078.7
     2.57e-07       13105.5
     2.58e-07       13132.3
     2.59e-07       13158.9
      2.6e-07       13185.5
     2.61e-07       13211.9
     2.62e-07       13238.3
     2.63e-07       13264.6
     2.64e-07       13290.7
     2.65e-07       13316.8
     2.66e-07       13342.7
     2.67e-07       13368.6
     2.68e-07       13394.4
     2.69e-07         13420
      2.7e-07       13445.6
     2.71e-07       13471.1
     2.72e-07       13496.5
     2.73e-07       13521.7
     2.74e-07       13546.9
     2.75e-07         13572
     2.76e-07         13597
     2.77e-07       13621.9
     2.78e-07       13646.7
     2.79e-07       13671.4
      2.8e-07       13696.1
     2.81e-07       13720.6
     2.82e-07         13745
     2.83e-07       13769.3
     2.84e-07       13793.6
     2.85e-07       13817.7
     2.86e-07       13841.8
     2.87e-07       13865.8
     2.88e-07       13889.6
     2.89e-07       13913.4
      2.9e-07       13937.1
     2.91e-07       13960.7
     2.92e-07       13984.2
     2.93e-07       14007.7
     2.94e-07         14031
     2.95e-07       14054.2
     2.96e-07       14077.4
     2.97e-07       14100.5
     2.98e-07       14123.4
     2.99e-07       14146.3
        3e-07       14169.1
     3.01e-07       14191.8
     3.02e-07       14214.5
     3.03e-07         14237
     3.04e-07       14259.4
     3.05e-07       14281.8
     3.06e-07       14304.1
     3.07e-07       14326.3
     3.08e-07       14348.4
     3.09e-07       14370.4
      3.1e-07       14392.3
     3.11e-07       14414.2
     3.12e-07       14435.9
     3.13e-07       14457.6
     3.14e-07       14479.2
     3.15e-07       14500.7
     3.16e-07       14522.1
     3.17e-07       14543.5
     3.18e-07       14564.7
     3.19e-07       14585.9
      3.2e-07         14607
     3.21e-07         14628
     3.22e-07       14648.9
     3.23e-07       14669.8
     3.24e-07       14690.5
     3.25e-07       14711.2
     3.26e-07       14731.8
     3.27e-07       14752.3
     3.28e-07       14772.7
     3.29e-07       14793.1
      3.3e-07       14813.4
     3.31e-07       14833.6
     3.32e-07       14853.7
     3.33e-07       14873.7
     3.34e-07       14893.7
     3.35e-07       14913.6
     3.36e-07       14933.4
     3.37e-07       14953.1
     3.38e-07       14972.7
     3.39e-07       14992.3
      3.4e-07       15011.8
     3.41e-07       15031.2
     3.42e-07       15050.5
     3.43e-07       15069.8
     3.44e-07       15088.9
     3.45e-07         15108
     3.46e-07       15127.1
     3.47e-07         15146
     3.48e-07       15164.9
     3.49e-07       15183.7
      3.5e-07       15202.4
     3.51e-07       15221.1
     3.52e-07       15239.6
     3.53e-07       15258.1
     3.54e-07       15276.6
     3.55e-07       15294.9
     3.56e-07       15313.2
     3.57e-07       15331.4
     3.58e-07       15349.5
     3.59e-07       15367.6
      3.6e-07       15385.5
     3.61e-07       15403.5
     3.62e-07       15421.3
     3.63e-07       15439.1
     3.64e-07       15456.7
     3.65e-07       15474.4
     3.66e-07       15491.9
     3.67e-07       15509.4
     3.68e-07       15526.8
     3.69e-07       15544.1
      3.7e-07       15561.4
     3.71e-07       15578.6
     3.72e-07       15595.7
     3.73e-07       15612.8
     3.74e-07       15629.8
     3.75e-07       15646.7
     3.76e-07       15663.5
     3.77e-07       15680.3
     3.78e-07         15697
     3.79e-07       15713.6
      3.8e-07       15730.2
     3.81e-07       15746.7
     3.82e-07       15763.2
     3.83e-07       15779.5
     3.84e-07       15795.8
     3.85e-07       15812.1
     3.86e-07       15828.2
     3.87e-07       15844.3
     3.88e-07       15860.4
     3.89e-07       15876.3
      3.9e-07       15892.2
     3.91e-07       15908.1
     3.92e-07       15923.8
     3.93e-07       15939.5
     3.94e-07       15955.2
     3.95e-07       15970.7
     3.96e-07       15986.2
     3.97e-07       16001.7
     3.98e-07       16017.1
     3.99e-07       16032.4
        4e-07       16047.6
     4.01e-07       16062.8
     4.02e-07       16077.9
     4.03e-07         16093
     4.04e-07         16108
     4.05e-07       16122.9
     4.06e-07       16137.8
     4.07e-07       16152.6
     4.08e-07       16167.3
     4.09e-07         16182
      4.1e-07       16196.6
     4.11e-07       16211.2
     4.12e-07       16225.7
     4.13e-07       16240.1
     4.14e-07       16254.5
     4.15e-07       16268.8
     4.16e-07       16283.1
     4.17e-07       16297.3
     4.18e-07       16311.4
     4.19e-07       16325.5
      4.2e-07       16339.5
     4.21e-07       16353.4
     4.22e-07       16367.3
     4.23e-07       16381.2
     4.24e-07       16394.9
     4.25e-07       16408.7
     4.26e-07       16422.3
     4.27e-07       16435.9
     4.28e-07       16449.4
     4.29e-07       16462.9
      4.3e-07       16476.4
     4.31e-07       16489.7
     4.32e-07         16503
     4.33e-07       16516.3
     4.34e-07       16529.5
     4.35e-07       16542.6
     4.36e-07       16555.7
     4.37e-07       16568.7
     4.38e-07       16581.7
     4.39e-07       16594.6
      4.4e-07       16607.4
     4.41e-07       16620.2
     4.42e-07         16633
     4.43e-07       16645.7
     4.44e-07       16658.3
     4.45e-07       16670.9
     4.46e-07       16683.4
     4.47e-07       16695.9
     4.48e-07       16708.3
     4.49e-07       16720.7
      4.5e-07         16733
     4.51e-07       16745.2
     4.52e-07       16757.4
     4.53e-07       16769.6
     4.54e-07       16781.6
     4.55e-07       16793.7
     4.56e-07       16805.7
     4.57e-07       16817.6
     4.58e-07       16829.5
     4.59e-07       16841.3
      4.6e-07       16853.1
     4.61e-07       16864.8
     4.62e-07       16876.5
     4.63e-07       16888.1
     4.64e-07       16899.6
     4.65e-07       16911.2
     4.66e-07       16922.6
     4.67e-07         16934
     4.68e-07       16945.4
     4.69e-07       16956.7
      4.7e-07         16968
     4.71e-07       16979.2
     4.72e-07       16990.3
     4.73e-07       17001.5
     4.74e-07       17012.5
     4.75e-07       17023.5
     4.76e-07       17034.5
     4.77e-07       17045.4
     4.78e-07       17056.3
     4.79e-07       17067.1
      4.8e-07       17077.8
     4.81e-07       17088.5
     4.82e-07       17099.2
     4.83e-07       17109.8
     4.84e-07       17120.4
     4.85e-07       17130.9
     4.86e-07       17141.4
     4.87e-07       17151.8
     4.88e-07       17162.2
     4.89e-07       17172.5
      4.9e-07       17182.8
     4.91e-07       17193.1
     4.92e-07       17203.3
     4.93e-07       17213.4
     4.94e-07       17223.5
     4.95e-07       17233.5
     4.96e-07       17243.6
     4.97e-07       17253.5
     4.98e-07       17263.4
     4.99e-07       17273.3
        5e-07       17283.1
     5.01e-07       17292.9
     5.02e-07       17302.6
     5.03e-07       17312.3
     5.04e-07         17322
     5.05e-07       17331.6
     5.06e-07       17341.1
     5.07e-07       17350.6
     5.08e-07       17360.1
     5.09e-07       17369.5
      5.1e-07       17378.9
     5.11e-07       17388.2
     5.12e-07       17397.5
     5.13e-07       17406.7
     5.14e-07       17415.9
     5.15e-07       17425.1
     5.16e-07       17434.2
     5.17e-07       17443.3
     5.18e-07       17452.3
     5.19e-07       17461.3
      5.2e-07       17470.2
     5.21e-07       17479.1
     5.22e-07         17488
     5.23e-07       17496.8
     5.24e-07       17505.6
     5.25e-07       17514.3
     5.26e-07         17523
     5.27e-07       17531.7
     5.28e-07       17540.3
     5.29e-07       17548.9
      5.3e-07       17557.4
     5.31e-07       17565.9
     5.32e-07       17574.3
     5.33e-07       17582.7
     5.34e-07       17591.1
     5.35e-07       17599.4
     5.36e-07       17607.7
     5.37e-07         17616
     5.38e-07       17624.2
     5.39e-07       17632.3
      5.4e-07       17640.5
     5.41e-07       17648.5
     5.42e-07       17656.6
     5.43e-07       17664.6
     5.44e-07       17672.6
     5.45e-07       17680.5
     5.46e-07       17688.4
     5.47e-07       17696.2
     5.48e-07       17704.1
     5.49e-07       17711.8
      5.5e-07       17719.6
     5.51e-07       17727.3
     5.52e-07       17734.9
     5.53e-07       17742.6
     5.54e-07       17750.2
     5.55e-07       17757.7
     5.56e-07       17765.2
     5.57e-07       17772.7
     5.58e-07       17780.1
     5.59e-07       17787.5
      5.6e-07       17794.9
     5.61e-07       17802.2
     5.62e-07       17809.5
     5.63e-07       17816.8
     5.64e-07         17824
     5.65e-07       17831.2
     5.66e-07       17838.3
     5.67e-07       17845.5
     5.68e-07       17852.5
     5.69e-07       17859.6
      5.7e-07       17866.6
     5.71e-07       17873.5
     5.72e-07       17880.5
     5.73e-07       17887.4
     5.74e-07       17894.2
     5.75e-07       17901.1
     5.76e-07       17907.9
     5.77e-07       17914.6
     5.78e-07       17921.4
     5.79e-07         17928
      5.8e-07       17934.7
     5.81e-07       17941.3
     5.82e-07       17947.9
     5.83e-07       17954.5
     5.84e-07         17961
     5.85e-07       17967.5
     5.86e-07       17973.9
     5.87e-07       17980.4
     5.88e-07       17986.8
     5.89e-07       17993.1
      5.9e-07       17999.4
     5.91e-07       18005.7
     5.92e-07         18012
     5.93e-07       18018.2
     5.94e-07       18024.4
     5.95e-07       18030.6
     5.96e-07       18036.7
     5.97e-07       18042.8
     5.98e-07       18048.8
     5.99e-07       18054.9
        6e-07       18060.9
     6.01e-07       18066.8
     6.02e-07       18072.8
     6.03e-07       18078.7
     6.04e-07       18084.6
     6.05e-07       18090.4
     6.06e-07       18096.2
     6.07e-07         18102
     6.08e-07       18107.8
     6.09e-07       18113.5
      6.1e-07       18119.2
     6.11e-07       18124.8
     6.12e-07       18130.4
     6.13e-07         18136
     6.14e-07       18141.6
     6.15e-07       18147.2
     6.16e-07       18152.7
     6.17e-07       18158.1
     6.18e-07       18163.6
     6.19e-07         18169
      6.2e-07       18174.4
     6.21e-07       18179.8
     6.22e-07       18185.1
     6.23e-07       18190.4
     6.24e-07       18195.7
     6.25e-07       18200.9
     6.26e-07       18206.1
     6.27e-07       18211.3
     6.28e-07       18216.5
     6.29e-07       18221.6
      6.3e-07       18226.7
     6.31e-07       18231.8
     6.32e-07       18236.8
     6.33e-07       18241.8
     6.34e-07       18246.8
     6.35e-07       18251.8
     6.36e-07       18256.7
     6.37e-07       18261.6
     6.38e-07       18266.5
     6.39e-07       18271.3
      6.4e-07       18276.1
     6.41e-07       18280.9
     6.42e-07       18285.7
     6.43e-07       18290.5
     6.44e-07       18295.2
     6.45e-07       18299.9
     6.46e-07       18304.5
     6.47e-07       18309.1
     6.48e-07       18313.8
     6.49e-07       18318.3
      6.5e-07       18322.9
     6.51e-07       18327.4
     6.52e-07       18331.9
     6.53e-07       18336.4
     6.54e-07       18340.8
     6.55e-07       18345.3
     6.56e-07       18349.7
     6.57e-07         18354
     6.58e-07       18358.4
     6.59e-07       18362.7
      6.6e-07         18367
     6.61e-07       18371.3
     6.62e-07       18375.5
     6.63e-07       18379.7
     6.64e-07       18383.9
     6.65e-07       18388.1
     6.66e-07       18392.2
     6.67e-07       18396.4
     6.68e-07       18400.5
     6.69e-07       18404.5
      6.7e-07       18408.6
     6.71e-07       18412.6
     6.72e-07       18416.6
     6.73e-07       18420.6
     6.74e-07       18424.5
     6.75e-07       18428.5
     6.76e-07       18432.4
     6.77e-07       18436.2
     6.78e-07       18440.1
     6.79e-07       18443.9
      6.8e-07       18447.7
     6.81e-07       18451.5
     6.82e-07       18455.3
     6.83e-07         18459
     6.84e-07       18462.7
     6.85e-07       18466.4
     6.86e-07       18470.1
     6.87e-07       18473.7
     6.88e-07       18477.4
     6.89e-07         18481
      6.9e-07       18484.5
     6.91e-07       18488.1
     6.92e-07       18491.6
     6.93e-07       18495.1
     6.94e-07       18498.6
     6.95e-07       18502.1
     6.96e-07       18505.5
     6.97e-07       18508.9
     6.98e-07       18512.3
     6.99e-07       18515.7
        7e-07       18519.1
     7.01e-07       18522.4
     7.02e-07       18525.7
     7.03e-07         18529
     7.04e-07       18532.3
     7.05e-07       18535.5
     7.06e-07       18538.8
     7.07e-07         18542
     7.08e-07       18545.2
     7.09e-07       18548.3
      7.1e-07       18551.5
     7.11e-07       18554.6
     7.12e-07       18557.7
     7.13e-07       18560.8
     7.14e-07       18563.8
     7.15e-07       18566.9
     7.16e-07       18569.9
     7.17e-07       18572.9
     7.18e-07       18575.9
     7.19e-07       18578.8
      7.2e-07       18581.7
     7.21e-07       18584.7
     7.22e-07       18587.6
     7.23e-07       18590.4
     7.24e-07       18593.3
     7.25e-07       18596.1
     7.26e-07       18598.9
     7.27e-07       18601.7
     7.28e-07       18604.5
     7.29e-07       18607.3
      7.3e-07         18610
     7.31e-07       18612.7
     7.32e-07       18615.4
     7.33e-07       18618.1
     7.34e-07       18620.8
     7.35e-07       18623.4
     7.36e-07       18626.1
     7.37e-07       18628.7
     7.38e-07       18631.2
     7.39e-07       18633.8
      7.4e-07       18636.4
     7.41e-07       18638.9
     7.42e-07       18641.4
     7.43e-07       18643.9
     7.44e-07       18646.4
     7.45e-07       18648.8
     7.46e-07       18651.3
     7.47e-07       18653.7
     7.48e-07       18656.1
     7.49e-07       18658.5
      7.5e-07       18660.9
     7.51e-07       18663.2
     7.52e-07       18665.5
     7.53e-07       18667.8
     7.54e-07       18670.1
     7.55e-07       18672.4
     7.56e-07       18674.7
     7.57e-07       18676.9
     7.58e-07       18679.1
     7.59e-07       18681.4
      7.6e-07       18683.5
     7.61e-07       18685.7
     7.62e-07       18687.9
     7.63e-07         18690
     7.64e-07       18692.1
     7.65e-07       18694.2
     7.66e-07       18696.3
     7.67e-07       18698.4
     7.68e-07       18700.5
     7.69e-07       18702.5
      7.7e-07       18704.5
     7.71e-07       18706.5
     7.72e-07       18708.5
     7.73e-07       18710.5
     7.74e-07       18712.4
     7.75e-07       18714.4
     7.76e-07       18716.3
     7.77e-07       18718.2
     7.78e-07       18720.1
     7.79e-07         18722
      7.8e-07       18723.8
     7.81e-07       18725.7
     7.82e-07       18727.5
     7.83e-07       18729.3
     7.84e-07       18731.1
     7.85e-07       18732.9
     7.86e-07       18734.7
     7.87e-07       18736.4
     7.88e-07       18738.1
     7.89e-07       18739.9
      7.9e-07       18741.6
     7.91e-07       18743.3
     7.92e-07       18744.9
     7.93e-07       18746.6
     7.94e-07       18748.2
     7.95e-07       18749.9
     7.96e-07       18751.5
     7.97e-07       18753.1
     7.98e-07       18754.7
     7.99e-07       18756.2
        8e-07       18757.8
     8.01e-07       18759.3
     8.02e-07       18760.8
     8.03e-07       18762.3
     8.04e-07       18763.8
     8.05e-07       18765.3
     8.06e-07       18766.8
     8.07e-07       18768.2
     8.08e-07       18769.7
     8.09e-07       18771.1
      8.1e-07       18772.5
     8.11e-07       18773.9
     8.12e-07       18775.3
     8.13e-07       18776.6
     8.14e-07         18778
     8.15e-07       18779.3
     8.16e-07       18780.7
     8.17e-07         18782
     8.18e-07       18783.3
     8.19e-07       18784.6
      8.2e-07       18785.8
     8.21e-07       18787.1
     8.22e-07       18788.3
     8.23e-07       18789.6
     8.24e-07       18790.8
     8.25e-07         18792
     8.26e-07       18793.2
     8.27e-07       18794.3
     8.28e-07       18795.5
     8.29e-07       18796.7
      8.3e-07       18797.8
     8.31e-07       18798.9
     8.32e-07         18800
     8.33e-07       18801.1
     8.34e-07       18802.2
     8.35e-07       18803.3
     8.36e-07       18804.3
     8.37e-07       18805.4
     8.38e-07       18806.4
     8.39e-07       18807.4
      8.4e-07       18808.5
     8.41e-07       18809.4
     8.42e-07       18810.4
     8.43e-07       18811.4
     8.44e-07       18812.4
     8.45e-07       18813.3
     8.46e-07       18814.2
     8.47e-07       18815.2
     8.48e-07       18816.1
     8.49e-07         18817
      8.5e-07       18817.9
     8.51e-07       18818.7
     8.52e-07       18819.6
     8.53e-07       18820.4
     8.54e-07       18821.3
     8.55e-07       18822.1
     8.56e-07       18822.9
     8.57e-07       18823.7
     8.58e-07       18824.5
     8.59e-07       18825.3
      8.6e-07       18826.1
     8.61e-07       18826.8
     8.62e-07       18827.6
     8.63e-07       18828.3
     8.64e-07         18829
     8.65e-07       18829.7
     8.66e-07       18830.4
     8.67e-07       18831.1
     8.68e-07       18831.8
     8.69e-07       18832.5
      8.7e-07       18833.1
     8.71e-07       18833.8
     8.72e-07       18834.4
     8.73e-07         18835
     8.74e-07       18835.6
     8.75e-07       18836.2
     8.76e-07       18836.8
     8.77e-07       18837.4
     8.78e-07         18838
     8.79e-07       18838.5
      8.8e-07       18839.1
     8.81e-07       18839.6
     8.82e-07       18840.1
     8.83e-07       18840.6
     8.84e-07       18841.2
     8.85e-07       18841.6
     8.86e-07       18842.1
     8.87e-07       18842.6
     8.88e-07       18843.1
     8.89e-07       18843.5
      8.9e-07         18844
     8.91e-07       18844.4
     8.92e-07       18844.8
     8.93e-07       18845.2
     8.94e-07       18845.6
     8.95e-07         18846
     8.96e-07       18846.4
     8.97e-07       18846.8
     8.98e-07       18847.1
     8.99e-07       18847.5
        9e-07       18847.8
     9.01e-07       18848.1
     9.02e-07       18848.5
     9.03e-07       18848.8
     9.04e-07       18849.1
     9.05e-07       18849.4
     9.06e-07       18849.7
     9.07e-07       18849.9
     9.08e-07       18850.2
     9.09e-07       18850.5
      9.1e-07       18850.7
     9.11e-07       18850.9
     9.12e-07       18851.2
     9.13e-07       18851.4
     9.14e-07       18851.6
     9.15e-07       18851.8
     9.16e-07         18852
     9.17e-07       18852.2
     9.18e-07       18852.3
     9.19e-07       18852.5
      9.2e-07       18852.6
     9.21e-07       18852.8
     9.22e-07       18852.9
     9.23e-07       18853.1
     9.24e-07       18853.2
     9.25e-07       18853.3
     9.26e-07       18853.4
     9.27e-07       18853.5
     9.28e-07       18853.5
     9.29e-07       18853.6
      9.3e-07       18853.7
     9.31e-07       18853.7
     9.32e-07       18853.8
     9.33e-07       18853.8
     9.34e-07       18853.9
     9.35e-07       18853.9
     9.36e-07       18853.9
     9.37e-07       18853.9
     9.38e-07       18853.9
     9.39e-07       18853.9
      9.4e-07       18853.9
     9.41e-07       18853.8
     9.42e-07       18853.8
     9.43e-07       18853.8
     9.44e-07       18853.7
     9.45e-07       18853.6
     9.46e-07       18853.6
     9.47e-07       18853.5
     9.48e-07       18853.4
     9.49e-07       18853.3
      9.5e-07       18853.2
     9.51e-07       18853.1
     9.52e-07         18853
     9.53e-07       18852.9
     9.54e-07       18852.7
     9.55e-07       18852.6
     9.56e-07       18852.4
     9.57e-07       18852.3
     9.58e-07       18852.1
     9.59e-07       18851.9
      9.6e-07       18851.8
     9.61e-07       18851.6
     9.62e-07       18851.4
     9.63e-07       18851.2
     9.64e-07         18851
     9.65e-07       18850.8
     9.66e-07       18850.5
     9.67e-07       18850.3
     9.68e-07       18850.1
     9.69e-07       18849.8
      9.7e-07       18849.6
     9.71e-07       18849.3
     9.72e-07         18849
     9.73e-07       18848.8
     9.74e-07       18848.5
     9.75e-07       18848.2
     9.76e-07       18847.9
     9.77e-07       18847.6
     9.78e-07       18847.3
     9.79e-07         18847
      9.8e-07       18846.6
     9.81e-07       18846.3
     9.82e-07         18846
     9.83e-07       18845.6
     9.84e-07       18845.3
     9.85e-07       18844.9
     9.86e-07       18844.5
     9.87e-07       18844.2
     9.88e-07       18843.8
     9.89e-07       18843.4
      9.9e-07         18843
     9.91e-07       18842.6
     9.92e-07       18842.2
     9.93e-07       18841.8
     9.94e-07       18841.4
     9.95e-07       18840.9
     9.96e-07       18840.5
     9.97e-07       18840.1
     9.98e-07       18839.6
     9.99e-07       18839.2
        1e-06       18838.7
    1.001e-06       18838.2
    1.002e-06       18837.8
    1.003e-06       18837.3
    1.004e-06       18836.8
    1.005e-06       18836.3
    1.006e-06       18835.8
    1.007e-06       18835.3
    1.008e-06       18834.8
    1.009e-06       18834.3
     1.01e-06       18833.7
    1.011e-06       18833.2
    1.012e-06       18832.7
    1.013e-06       18832.1
    1.014e-06       18831.6
    1.015e-06         18831
    1.016e-06       18830.5
    1.017e-06       18829.9
    1.018e-06       18829.4
    1.019e-06       18828.8
     1.02e-06       18828.2
    1.021e-06       18827.6
    1.022e-06         18827
    1.023e-06       18826.4
    1.024e-06       18825.8
    1.025e-06       18825.2
    1.026e-06       18824.6
    1.027e-06         18824
    1.028e-06       18823.3
    1.029e-06       18822.7
     1.03e-06         18822
    1.031e-06       18821.4
    1.032e-06       18820.8
    1.033e-06       18820.1
    1.034e-06       18819.4
    1.035e-06       18818.8
    1.036e-06       18818.1
    1.037e-06       18817.4
    1.038e-06       18816.7
    1.039e-06         18816
     1.04e-06       18815.3
    1.041e-06       18814.6
    1.042e-06       18813.9
    1.043e-06       18813.2
    1.044e-06       18812.5
    1.045e-06       18811.8
    1.046e-06       18811.1
    1.047e-06       18810.3
    1.048e-06       18809.6
    1.049e-06       18808.9
     1.05e-06       18808.1
    1.051e-06       18807.4
    1.052e-06       18806.6
    1.053e-06       18805.8
    1.054e-06       18805.1
    1.055e-06       18804.3
    1.056e-06       18803.5
    1.057e-06       18802.7
    1.058e-06       18801.9
    1.059e-06       18801.1
     1.06e-06       18800.3
    1.061e-06       18799.5
    1.062e-06       18798.7
    1.063e-06       18797.9
    1.064e-06       18797.1
    1.065e-06       18796.3
    1.066e-06       18795.5
    1.067e-06       18794.6
    1.068e-06       18793.8