# Probe 0 (5e-06 5e-06 5e-06)
#       Probe             0
#        Time
        1e-09       1189.57
        2e-09       1347.24
        3e-09       1488.22
        4e-09       1618.67
        5e-09       1741.75
        6e-09       1859.33
        7e-09       1972.62
        8e-09       2082.43
        9e-09       2189.35
        1e-08       2293.81
      1.1e-08       2396.15
      1.2e-08       2496.63
      1.3e-08       2595.45
      1.4e-08       2692.78
      1.5e-08       2788.76
      1.6e-08        2883.5
      1.7e-08        2977.1
      1.8e-08       3069.64
      1.9e-08       3161.18
        2e-08        3251.8
      2.1e-08       3341.54
      2.2e-08       3430.45
      2.3e-08       3518.56
      2.4e-08       3605.92
      2.5e-08       3692.56
      2.6e-08        3778.5
      2.7e-08       3863.78
      2.8e-08       3948.41
      2.9e-08       4032.41
        3e-08       4115.81
      3.1e-08       4198.63
      3.2e-08       4280.87
      3.3e-08       4362.56
      3.4e-08        4443.7
      3.5e-08       4524.32
      3.6e-08       4604.41
      3.7e-08          4684
      3.8e-08        4763.1
      3.9e-08       4841.71
        4e-08       4919.84
      4.1e-08        4997.5
      4.2e-08        5074.7
      4.3e-08       5151.44
      4.4e-08       5227.74
      4.5e-08        5303.6
      4.6e-08       5379.03
      4.7e-08       5454.02
      4.8e-08        5528.6
      4.9e-08       5602.76
        5e-08       5676.52
      5.1e-08       5749.86
      5.2e-08       5822.81
      5.3e-08       5895.36
      5.4e-08       5967.51
      5.5e-08       6039.29
      5.6e-08       6110.67
      5.7e-08       6181.68
      5.8e-08       6252.32
      5.9e-08       6322.58
        6e-08       6392.48
      6.1e-08       6462.01
      6.2e-08       6531.18
      6.3e-08       6599.99
      6.4e-08       6668.45
      6.5e-08       6736.56
      6.6e-08       6804.32
      6.7e-08       6871.74
      6.8e-08       6938.81
      6.9e-08       7005.55
        7e-08       7071.95
      7.1e-08       7138.01
      7.2e-08       7203.74
      7.3e-08       7269.14
      7.4e-08       7334.22
      7.5e-08       7398.97
      7.6e-08       7463.41
      7.7e-08       7527.52
      7.8e-08       7591.31
      7.9e-08       7654.79
        8e-08       7717.96
      8.1e-08       7780.82
      8.2e-08       7843.37
      8.3e-08       7905.61
      8.4e-08       7967.55
      8.5e-08       8029.19
      8.6e-08       8090.52
      8.7e-08       8151.56
      8.8e-08        8212.3
      8.9e-08       8272.75
        9e-08        8332.9
      9.1e-08       8392.77
      9.2e-08       8452.34
      9.3e-08       8511.63
      9.4e-08       8570.63
      9.5e-08       8629.34
      9.6e-08       8687.78
      9.7e-08       8745.93
      9.8e-08        8803.8
      9.9e-08        8861.4
        1e-07       8918.72
     1.01e-07       8975.76
     1.02e-07       9032.54
     1.03e-07       9089.04
     1.04e-07       9145.27
     1.05e-07       9201.23
     1.06e-07       9256.93
     1.07e-07       9312.36
     1.08e-07       9367.53
     1.09e-07       9422.43
      1.1e-07       9477.07
     1.11e-07       9531.46
     1.12e-07       9585.58
     1.13e-07       9639.45
     1.14e-07       9693.06
     1.15e-07       9746.41
     1.16e-07       9799.51
     1.17e-07       9852.37
     1.18e-07       9904.97
     1.19e-07       9957.32
      1.2e-07       10009.4
     1.21e-07       10061.3
     1.22e-07       10112.9
     1.23e-07       10164.2
     1.24e-07       10215.4
     1.25e-07       10266.2
     1.26e-07       10316.9
     1.27e-07       10367.3
     1.28e-07       10417.4
     1.29e-07       10467.4
      1.3e-07       10517.1
     1.31e-07       10566.5
     1.32e-07       10615.7
     1.33e-07       10664.7
     1.34e-07       10713.5
     1.35e-07         10762
     1.36e-07       10810.3
     1.37e-07       10858.3
     1.38e-07       10906.2
     1.39e-07       10953.8
      1.4e-07       11001.2
     1.41e-07       11048.3
     1.42e-07       11095.2
     1.43e-07         11142
     1.44e-07       11188.4
     1.45e-07       11234.7
     1.46e-07       11280.8
     1.47e-07       11326.6
     1.48e-07       11372.2
     1.49e-07       11417.6
      1.5e-07       11462.8
     1.51e-07       11507.8
     1.52e-07       11552.5
     1.53e-07       11597.1
     1.54e-07       11641.4
     1.55e-07       11685.5
     1.56e-07       11729.4
     1.57e-07       11773.1
     1.58e-07       11816.6
     1.59e-07       11859.9
      1.6e-07         11903
     1.61e-07       11945.8
     1.62e-07       11988.5
     1.63e-07         12031
     1.64e-07       12073.2
     1.65e-07       12115.3
     1.66e-07       12157.2
     1.67e-07       12198.8
     1.68e-07       12240.3
     1.69e-07       12281.6
      1.7e-07       12322.6
     1.71e-07       12363.5
     1.72e-07       12404.2
     1.73e-07       12444.6
     1.74e-07       12484.9
     1.75e-07         12525
     1.76e-07       12564.9
     1.77e-07       12604.6
     1.78e-07       12644.1
     1.79e-07       12683.5
      1.8e-07       12722.6
     1.81e-07       12761.6
     1.82e-07       12800.3
     1.83e-07       12838.9
     1.84e-07       12877.3
     1.85e-07       12915.5
     1.86e-07       12953.5
     1.87e-07       12991.4
     1.88e-07         13029
     1.89e-07       13066.5
      1.9e-07       13103.8
     1.91e-07       13140.9
     1.92e-07       13177.8
     1.93e-07       13214.6
     1.94e-07       13251.1
     1.95e-07       13287.5
     1.96e-07       13323.8
     1.97e-07       13359.8
     1.98e-07       13395.7
     1.99e-07       13431.4
        2e-07       13466.9
     2.01e-07       13502.2
     2.02e-07       13537.4
     2.03e-07       13572.4
     2.04e-07       13607.3
     2.05e-07       13641.9
     2.06e-07       13676.4
     2.07e-07       13710.7
     2.08e-07       13744.9
     2.09e-07       13778.9
      2.1e-07       13812.7
     2.11e-07       13846.4
     2.12e-07       13879.9
     2.13e-07       13913.2
     2.14e-07       13946.4
     2.15e-07       13979.4
     2.16e-07       14012.2
     2.17e-07       14044.9
     2.18e-07       14077.4
     2.19e-07       14109.8
      2.2e-07         14142
     2.21e-07         14174
     2.22e-07       14205.9
     2.23e-07       14237.6
     2.24e-07       14269.2
     2.25e-07       14300.6
     2.26e-07       14331.8
     2.27e-07       14362.9
     2.28e-07       14393.9
     2.29e-07       14424.7
      2.3e-07       14455.3
     2.31e-07       14485.8
     2.32e-07       14516.1
     2.33e-07       14546.3
     2.34e-07       14576.3
     2.35e-07       14606.2
     2.36e-07         14636
     2.37e-07       14665.5
     2.38e-07         14695
     2.39e-07       14724.3
      2.4e-07       14753.4
     2.41e-07       14782.4
     2.42e-07       14811.3
     2.43e-07         14840
     2.44e-07       14868.5
     2.45e-07       14896.9
     2.46e-07       14925.2
     2.47e-07       14953.4
     2.48e-07       14981.4
     2.49e-07       15009.2
      2.5e-07       15036.9
     2.51e-07       15064.5
     2.52e-07       15091.9
     2.53e-07       15119.2
     2.54e-07       15146.4
     2.55e-07       15173.4
     2.56e-07       15200.3
     2.57e-07         15227
     2.58e-07       15253.6
     2.59e-07       15280.1
      2.6e-07       15306.4
     2.61e-07       15332.6
     2.62e-07       15358.7
     2.63e-07       15384.6
     2.64e-07       15410.4
     2.65e-07       15436.1
     2.66e-07       15461.6
     2.67e-07         15487
     2.68e-07       15512.3
     2.69e-07       15537.5
      2.7e-07       15562.5
     2.71e-07       15587.4
     2.72e-07       15612.2
     2.73e-07       15636.8
     2.74e-07       15661.3
     2.75e-07       15685.7
     2.76e-07       15709.9
     2.77e-07       15734.1
     2.78e-07       15758.1
     2.79e-07         15782
      2.8e-07       15805.7
     2.81e-07       15829.4
     2.82e-07       15852.9
     2.83e-07       15876.3
     2.84e-07       15899.6
     2.85e-07       15922.7
     2.86e-07       15945.7
     2.87e-07       15968.6
     2.88e-07       15991.4
     2.89e-07       16014.1
      2.9e-07       16036.7
     2.91e-07       16059.1
     2.92e-07       16081.4
     2.93e-07       16103.6
     2.94e-07       16125.7
     2.95e-07       16147.7
     2.96e-07       16169.5
     2.97e-07       16191.3
     2.98e-07       16212.9
     2.99e-07       16234.4
        3e-07       16255.8
     3.01e-07       16277.1
     3.02e-07       16298.3
     3.03e-07       16319.3
     3.04e-07       16340.3
     3.05e-07       16361.1
     3.06e-07       16381.8
     3.07e-07       16402.5
     3.08e-07         16423
     3.09e-07       16443.4
      3.1e-07       16463.7
     3.11e-07       16483.8
     3.12e-07       16503.9
     3.13e-07       16523.9
     3.14e-07       16543.8
     3.15e-07       16563.5
     3.16e-07       16583.2
     3.17e-07       16602.7
     3.18e-07       16622.1
     3.19e-07       16641.5
      3.2e-07       16660.7
     3.21e-07       16679.8
     3.22e-07       16698.9
     3.23e-07       16717.8
     3.24e-07       16736.6
     3.25e-07       16755.3
     3.26e-07         16774
     3.27e-07       16792.5
     3.28e-07       16810.9
     3.29e-07       16829.2
      3.3e-07       16847.4
     3.31e-07       16865.6
     3.32e-07       16883.6
     3.33e-07       16901.5
     3.34e-07       16919.3
     3.35e-07       16937.1
     3.36e-07       16954.7
     3.37e-07       16972.3
     3.38e-07       16989.7
     3.39e-07         17007
      3.4e-07       17024.3
     3.41e-07       17041.5
     3.42e-07       17058.5
     3.43e-07       17075.5
     3.44e-07       17092.4
     3.45e-07       17109.1
     3.46e-07       17125.8
     3.47e-07       17142.4
     3.48e-07       17158.9
     3.49e-07       17175.4
      3.5e-07       17191.7
     3.51e-07       17207.9
     3.52e-07       17224.1
     3.53e-07       17240.1
     3.54e-07       17256.1
     3.55e-07         17272
     3.56e-07       17287.8
     3.57e-07       17303.5
     3.58e-07       17319.1
     3.59e-07       17334.6
      3.6e-07       17350.1
     3.61e-07       17365.4
     3.62e-07       17380.7
     3.63e-07       17395.9
     3.64e-07         17411
     3.65e-07         17426
     3.66e-07       17440.9
     3.67e-07       17455.7
     3.68e-07       17470.5
     3.69e-07       17485.2
      3.7e-07       17499.8
     3.71e-07       17514.3
     3.72e-07       17528.7
     3.73e-07       17543.1
     3.74e-07       17557.3
     3.75e-07       17571.5
     3.76e-07       17585.6
     3.77e-07       17599.7
     3.78e-07       17613.6
     3.79e-07       17627.5
      3.8e-07       17641.3
     3.81e-07         17655
     3.82e-07       17668.6
     3.83e-07       17682.1
     3.84e-07       17695.6
     3.85e-07         17709
     3.86e-07       17722.3
     3.87e-07       17735.6
     3.88e-07       17748.7
     3.89e-07       17761.8
      3.9e-07       17774.8
     3.91e-07       17787.8
     3.92e-07       17800.6
     3.93e-07       17813.4
     3.94e-07       17826.1
     3.95e-07       17838.8
     3.96e-07       17851.4
     3.97e-07       17863.9
     3.98e-07       17876.3
     3.99e-07       17888.6
        4e-07       17900.9
     4.01e-07       17913.1
     4.02e-07       17925.2
     4.03e-07       17937.3
     4.04e-07       17949.3
     4.05e-07       17961.2
     4.06e-07       17973.1
     4.07e-07       17984.8
     4.08e-07       17996.6
     4.09e-07       18008.2
      4.1e-07       18019.8
     4.11e-07       18031.3
     4.12e-07       18042.7
     4.13e-07       18054.1
     4.14e-07       18065.4
     4.15e-07       18076.6
     4.16e-07       18087.8
     4.17e-07       18098.9
     4.18e-07       18109.9
     4.19e-07       18120.9
      4.2e-07       18131.8
     4.21e-07       18142.6
     4.22e-07       18153.4
     4.23e-07       18164.1
     4.24e-07       18174.7
     4.25e-07       18185.3
     4.26e-07       18195.8
     4.27e-07       18206.3
     4.28e-07       18216.6
     4.29e-07         18227
      4.3e-07       18237.2
     4.31e-07       18247.4
     4.32e-07       18257.6
     4.33e-07       18267.6
     4.34e-07       18277.6
     4.35e-07       18287.6
     4.36e-07       18297.5
     4.37e-07       18307.3
     4.38e-07       18317.1
     4.39e-07       18326.8
      4.4e-07       18336.4
     4.41e-07         18346
     4.42e-07       18355.5
     4.43e-07         18365
     4.44e-07       18374.4
     4.45e-07       18383.8
     4.46e-07       18393.1
     4.47e-07       18402.3
     4.48e-07       18411.5
     4.49e-07       18420.6
      4.5e-07       18429.6
     4.51e-07       18438.7
     4.52e-07       18447.6
     4.53e-07       18456.5
     4.54e-07       18465.3
     4.55e-07       18474.1
     4.56e-07       18482.8
     4.57e-07       18491.5
     4.58e-07       18500.1
     4.59e-07       18508.7
      4.6e-07       18517.2
     4.61e-07       18525.6
     4.62e-07         18534
     4.63e-07       18542.4
     4.64e-07       18550.7
     4.65e-07       18558.9
     4.66e-07       18567.1
     4.67e-07       18575.2
     4.68e-07       18583.3
     4.69e-07       18591.3
      4.7e-07       18599.3
     4.71e-07       18607.2
     4.72e-07       18615.1
     4.73e-07       18622.9
     4.74e-07       18630.7
     4.75e-07       18638.4
     4.76e-07         18646
     4.77e-07       18653.7
     4.78e-07       18661.2
     4.79e-07       18668.7
      4.8e-07       18676.2
     4.81e-07       18683.6
     4.82e-07         18691
     4.83e-07       18698.3
     4.84e-07       18705.6
     4.85e-07       18712.8
     4.86e-07         18720
     4.87e-07       18727.1
     4.88e-07       18734.2
     4.89e-07       18741.2
      4.9e-07       18748.2
     4.91e-07       18755.1
     4.92e-07         18762
     4.93e-07       18768.9
     4.94e-07       18775.7
     4.95e-07       18782.4
     4.96e-07       18789.1
     4.97e-07       18795.8
     4.98e-07       18802.4
     4.99e-07       18808.9
        5e-07       18815.5
     5.01e-07       18821.9
     5.02e-07       18828.4
     5.03e-07       18834.8
     5.04e-07       18841.1
     5.05e-07       18847.4
     5.06e-07       18853.7
     5.07e-07       18859.9
     5.08e-07         18866
     5.09e-07       18872.2
      5.1e-07       18878.3
     5.11e-07       18884.3
     5.12e-07       18890.3
     5.13e-07       18896.2
     5.14e-07       18902.2
     5.15e-07         18908
     5.16e-07       18913.9
     5.17e-07       18919.6
     5.18e-07       18925.4
     5.19e-07       18931.1
      5.2e-07       18936.8
     5.21e-07       18942.4
     5.22e-07         18948
     5.23e-07       18953.5
     5.24e-07         18959
     5.25e-07       18964.5
     5.26e-07       18969.9
     5.27e-07       18975.3
     5.28e-07       18980.6
     5.29e-07       18985.9
      5.3e-07       18991.2
     5.31e-07       18996.4
     5.32e-07       19001.6
     5.33e-07       19006.8
     5.34e-07       19011.9
     5.35e-07       19016.9
     5.36e-07         19022
     5.37e-07         19027
     5.38e-07       19031.9
     5.39e-07       19036.9
      5.4e-07       19041.7
     5.41e-07       19046.6
     5.42e-07       19051.4
     5.43e-07       19056.2
     5.44e-07       19060.9
     5.45e-07       19065.6
     5.46e-07       19070.3
     5.47e-07       19074.9
     5.48e-07       19079.5
     5.49e-07       19084.1
      5.5e-07       19088.6
     5.51e-07       19093.1
     5.52e-07       19097.5
     5.53e-07       19101.9
     5.54e-07       19106.3
     5.55e-07       19110.7
     5.56e-07         19115
     5.57e-07       19119.3
     5.58e-07       19123.5
     5.59e-07       19127.7
      5.6e-07       19131.9
     5.61e-07         19136
     5.62e-07       19140.1
     5.63e-07       19144.2
     5.64e-07       19148.3
     5.65e-07       19152.3
     5.66e-07       19156.3
     5.67e-07       19160.2
     5.68e-07       19164.1
     5.69e-07         19168
      5.7e-07       19171.8
     5.71e-07       19175.7
     5.72e-07       19179.5
     5.73e-07       19183.2
     5.74e-07       19186.9
     5.75e-07       19190.6
     5.76e-07       19194.3
     5.77e-07       19197.9
     5.78e-07       19201.5
     5.79e-07       19205.1
      5.8e-07       19208.6
     5.81e-07       19212.1
     5.82e-07       19215.6
     5.83e-07         19219
     5.84e-07       19222.4
     5.85e-07       19225.8
     5.86e-07       19229.2
     5.87e-07       19232.5
     5.88e-07       19235.8
     5.89e-07       19239.1
      5.9e-07       19242.3
     5.91e-07       19245.5
     5.92e-07       19248.7
     5.93e-07       19251.9
     5.94e-07         19255
     5.95e-07       19258.1
     5.96e-07       19261.1
     5.97e-07       19264.2
     5.98e-07       19267.2
     5.99e-07       19270.2
        6e-07       19273.1
     6.01e-07       19276.1
     6.02e-07         19279
     6.03e-07       19281.8
     6.04e-07       19284.7
     6.05e-07       19287.5
     6.06e-07       19290.3
     6.07e-07         19293
     6.08e-07       19295.8
     6.09e-07       19298.5
      6.1e-07       19301.2
     6.11e-07       19303.8
     6.12e-07       19306.5
     6.13e-07       19309.1
     6.14e-07       19311.6
     6.15e-07       19314.2
     6.16e-07       19316.7
     6.17e-07       19319.2
     6.18e-07       19321.7
     6.19e-07       19324.2
      6.2e-07       19326.6
     6.21e-07         19329
     6.22e-07       19331.4
     6.23e-07       19333.7
     6.24e-07       19336.1
     6.25e-07       19338.4
     6.26e-07       19340.6
     6.27e-07       19342.9
     6.28e-07       19345.1
     6.29e-07       19347.3
      6.3e-07       19349.5
     6.31e-07       19351.7
     6.32e-07       19353.8
     6.33e-07       19355.9
     6.34e-07         19358
     6.35e-07       19360.1
     6.36e-07       19362.1
     6.37e-07       19364.1
     6.38e-07       19366.1
     6.39e-07       19368.1
      6.4e-07         19370
     6.41e-07         19372
     6.42e-07       19373.9
     6.43e-07       19375.8
     6.44e-07       19377.6
     6.45e-07       19379.5
     6.46e-07       19381.3
     6.47e-07       19383.1
     6.48e-07       19384.8
     6.49e-07       19386.6
      6.5e-07       19388.3
     6.51e-07         19390
     6.52e-07       19391.7
     6.53e-07       19393.4
     6.54e-07         19395
     6.55e-07       19396.6
     6.56e-07       19398.2
     6.57e-07       19399.8
     6.58e-07       19401.4
     6.59e-07       19402.9
      6.6e-07       19404.4
     6.61e-07       19405.9
     6.62e-07       19407.4
     6.63e-07       19408.9
     6.64e-07       19410.3
     6.65e-07       19411.7
     6.66e-07       19413.1
     6.67e-07       19414.5
     6.68e-07       19415.9
     6.69e-07       19417.2
      6.7e-07       19418.5
     6.71e-07       19419.8
     6.72e-07       19421.1
     6.73e-07       19422.4
     6.74e-07       19423.6
     6.75e-07       19424.8
     6.76e-07         19426
     6.77e-07       19427.2
     6.78e-07       19428.4
     6.79e-07       19429.5
      6.8e-07       19430.6
     6.81e-07       19431.7
     6.82e-07       19432.8
     6.83e-07       19433.9
     6.84e-07         19435
     6.85e-07         19436
     6.86e-07         19437
     6.87e-07         19438
     6.88e-07         19439
     6.89e-07         19440
      6.9e-07       19440.9
     6.91e-07       19441.8
     6.92e-07       19442.7
     6.93e-07       19443.6
     6.94e-07       19444.5
     6.95e-07       19445.4
     6.96e-07       19446.2
     6.97e-07         19447
     6.98e-07       19447.9
     6.99e-07       19448.6
        7e-07       19449.4
     7.01e-07       19450.2
     7.02e-07       19450.9
     7.03e-07       19451.6
     7.04e-07       19452.3
     7.05e-07         19453
     7.06e-07       19453.7
     7.07e-07       19454.4
     7.08e-07         19455
     7.09e-07       19455.6
      7.1e-07       19456.3
     7.11e-07       19456.8
     7.12e-07       19457.4
     7.13e-07         19458
     7.14e-07       19458.5
     7.15e-07       19459.1
     7.16e-07       19459.6
     7.17e-07       19460.1
     7.18e-07       19460.6
     7.19e-07         19461
      7.2e-07       19461.5
     7.21e-07       19461.9
     7.22e-07       19462.4
     7.23e-07       19462.8
     7.24e-07       19463.2
     7.25e-07       19463.6
     7.26e-07       19463.9
     7.27e-07       19464.3
     7.28e-07       19464.6
     7.29e-07       19464.9
      7.3e-07       19465.2
     7.31e-07       19465.5
     7.32e-07       19465.8
     7.33e-07       19466.1
     7.34e-07       19466.3
     7.35e-07       19466.6
     7.36e-07       19466.8
     7.37e-07         19467
     7.38e-07       19467.2
     7.39e-07       19467.4
      7.4e-07       19467.5
     7.41e-07       19467.7
     7.42e-07       19467.8
     7.43e-07         19468
     7.44e-07       19468.1
     7.45e-07       19468.2
     7.46e-07       19468.3
     7.47e-07       19468.3
     7.48e-07       19468.4
     7.49e-07       19468.4
      7.5e-07       19468.5
     7.51e-07       19468.5
     7.52e-07       19468.5
     7.53e-07       19468.5
     7.54e-07       19468.5
     7.55e-07       19468.5
     7.56e-07       19468.4
     7.57e-07       19468.4
     7.58e-07       19468.3
     7.59e-07       19468.2
      7.6e-07       19468.1
     7.61e-07         19468
     7.62e-07       19467.9
     7.63e-07       19467.8
     7.64e-07       19467.6
     7.65e-07       19467.5
     7.66e-07       19467.3
     7.67e-07       19467.1
     7.68e-07         19467
     7.69e-07       19466.8
      7.7e-07       19466.5
     7.71e-07       19466.3
     7.72e-07       19466.1
     7.73e-07       19465.8
     7.74e-07       19465.6
     7.75e-07       19465.3
     7.76e-07         19465
     7.77e-07       19464.7
     7.78e-07       19464.4
     7.79e-07       19464.1
      7.8e-07       19463.8
     7.81e-07       19463.5
     7.82e-07       19463.1
     7.83e-07       19462.8
     7.84e-07       19462.4
     7.85e-07         19462
     7.86e-07       19461.6
     7.87e-07       19461.2
     7.88e-07       19460.8
     7.89e-07       19460.4
      7.9e-07       19459.9
     7.91e-07       19459.5
     7.92e-07         19459
     7.93e-07       19458.6
     7.94e-07       19458.1
     7.95e-07       19457.6
     7.96e-07       19457.1
     7.97e-07       19456.6
     7.98e-07       19456.1
     7.99e-07       19455.6
        8e-07         19455
     8.01e-07       19454.5
     8.02e-07       19453.9
     8.03e-07       19453.4
     8.04e-07       19452.8
     8.05e-07       19452.2
     8.06e-07       19451.6
     8.07e-07         19451
     8.08e-07       19450.4
     8.09e-07       19449.8
      8.1e-07       19449.2
     8.11e-07       19448.5
     8.12e-07       19447.9
     8.13e-07       19447.2
     8.14e-07       19446.5
     8.15e-07       19445.8
     8.16e-07       19445.2
     8.17e-07       19444.5
     8.18e-07       19443.8
     8.19e-07         19443
      8.2e-07       19442.3
     8.21e-07       19441.6
     8.22e-07       19440.8
     8.23e-07       19440.1
     8.24e-07       19439.3
     8.25e-07       19438.6
     8.26e-07       19437.8
     8.27e-07         19437
     8.28e-07       19436.2
     8.29e-07       19435.4
      8.3e-07       19434.6
     8.31e-07       19433.8
     8.32e-07       19432.9
     8.33e-07       19432.1
     8.34e-07       19431.3
     8.35e-07       19430.4
     8.36e-07       19429.6
     8.37e-07       19428.7
     8.38e-07       19427.8
     8.39e-07       19426.9
      8.4e-07         19426
     8.41e-07       19425.1
     8.42e-07       19424.2
     8.43e-07       19423.3
     8.44e-07       19422.4
     8.45e-07       19421.4
     8.46e-07       19420.5
     8.47e-07       19419.6
     8.48e-07       19418.6
     8.49e-07       19417.6
      8.5e-07       19416.7
     8.51e-07       19415.7
     8.52e-07       19414.7
     8.53e-07       19413.7
     8.54e-07       19412.7
     8.55e-07       19411.7
     8.56e-07       19410.7
     8.57e-07       19409.7
     8.58e-07       19408.6
     8.59e-07       19407.6
      8.6e-07       19406.5
     8.61e-07       19405.5
     8.62e-07       19404.4
     8.63e-07       19403.4
     8.64e-07       19402.3
     8.65e-07       19401.2
     8.66e-07       19400.1
     8.67e-07         19399
     8.68e-07       19397.9
     8.69e-07       19396.8
      8.7e-07       19395.7
     8.71e-07       19394.6
     8.72e-07       19393.5
     8.73e-07       19392.3
     8.74e-07       19391.2
     8.75e-07         19390
     8.76e-07       19388.9
     8.77e-07       19387.7
     8.78e-07       19386.5
     8.79e-07       19385.4
      8.8e-07       19384.2
     8.81e-07         19383
     8.82e-07       19381.8
     8.83e-07       19380.6
     8.84e-07       19379.4
     8.85e-07       19378.2
     8.86e-07         19377
     8.87e-07       19375.8
     8.88e-07       19374.5
     8.89e-07       19373.3
      8.9e-07         19372
     8.91e-07       19370.8
     8.92e-07       19369.5
     8.93e-07       19368.3
     8.94e-07         19367
     8.95e-07       19365.7
     8.96e-07       19364.5
     8.97e-07       19363.2
     8.98e-07       19361.9
     8.99e-07       19360.6
        9e-07       19359.3
     9.01e-07         19358
     9.02e-07       19356.7
     9.03e-07       19355.4
     9.04e-07         19354
     9.05e-07       19352.7
     9.06e-07       19351.4
     9.07e-07         19350
     9.08e-07       19348.7
     9.09e-07       19347.3
      9.1e-07         19346
     9.11e-07       19344.6
     9.12e-07       19343.2
     9.13e-07       19341.9
     9.14e-07       19340.5
     9.15e-07       19339.1
     9.16e-07       19337.7
     9.17e-07       19336.3
     9.18e-07       19334.9
     9.19e-07       19333.5
      9.2e-07       19332.1
     9.21e-07       19330.7
     9.22e-07       19329.3
     9.23e-07       19327.9
     9.24e-07       19326.4
     9.25e-07         19325
     9.26e-07       19323.6
     9.27e-07       19322.1
     9.28e-07       19320.7
     9.29e-07       19319.2
      9.3e-07       19317.8
     9.31e-07       19316.3
     9.32e-07       19314.8
     9.33e-07       19313.4
     9.34e-07       19311.9
     9.35e-07       19310.4
     9.36e-07       19308.9
     9.37e-07       19307.4
     9.38e-07       19305.9
     9.39e-07       19304.4
      9.4e-07       19302.9
     9.41e-07       19301.4
     9.42e-07       19299.9
     9.43e-07       19298.4
     9.44e-07       19296.9
     9.45e-07       19295.3
     9.46e-07       19293.8
     9.47e-07       19292.3
     9.48e-07       19290.7
     9.49e-07       19289.2
      9.5e-07       19287.6
     9.51e-07       19286.1
     9.52e-07       19284.5
     9.53e-07         19283
     9.54e-07       19281.4
     9.55e-07       19279.8
     9.56e-07       19278.3
     9.57e-07       19276.7
     9.58e-07       19275.1
     9.59e-07       19273.5
      9.6e-07       19271.9
     9.61e-07       19270.4
     9.62e-07       19268.8
     9.63e-07       19267.2
     9.64e-07       19265.6
     9.65e-07       19263.9
     9.66e-07       19262.3
     9.67e-07       19260.7
     9.68e-07       19259.1
     9.69e-07       19257.5
      9.7e-07       19255.9
     9.71e-07       19254.2
     9.72e-07       19252.6
     9.73e-07         19251
     9.74e-07       19249.3
     9.75e-07       19247.7
     9.76e-07         19246
     9.77e-07       19244.4
     9.78e-07       19242.7
     9.79e-07       19241.1
      9.8e-07       19239.4
     9.81e-07       19237.7
     9.82e-07       19236.1
     9.83e-07       19234.4
     9.84e-07       19232.7
     9.85e-07         19231
     9.86e-07       19229.3
     9.87e-07       19227.7
     9.88e-07         19226
     9.89e-07       19224.3
      9.9e-07       19222.6
     9.91e-07       19220.9
     9.92e-07       19219.2
     9.93e-07       19217.5
     9.94e-07       19215.8
     9.95e-07         19214
     9.96e-07       19212.3
     9.97e-07       19210.6
     9.98e-07       19208.9
     9.99e-07       19207.2
        1e-06       19205.4
    1.001e-06       19203.7
    1.002e-06         19202
    1.003e-06       19200.2
    1.004e-06       19198.5
    1.005e-06       19196.8
    1.006e-06         19195
    1.007e-06       19193.3
    1.008e-06       19191.5
    1.009e-06       19189.8
     1.01e-06         19188
    1.011e-06       19186.2
    1.012e-06       19184.5
    1.013e-06       19182.7
    1.014e-06       19180.9
    1.015e-06       19179.2
    1.016e-06       19177.4
    1.017e-06       19175.6
    1.018e-06       19173.8
    1.019e-06       19172.1
     1.02e-06       19170.3
    1.021e-06       19168.5
    1.022e-06       19166.7
    1.023e-06       19164.9
    1.024e-06       19163.1
    1.025e-06       19161.3
    1.026e-06       19159.5
    1.027e-06       19157.7
    1.028e-06       19155.9
    1.029e-06       19154.1
     1.03e-06       19152.3
    1.031e-06       19150.5
    1.032e-06       19148.7
    1.033e-06       19146.8
    1.034e-06         19145
    1.035e-06       19143.2
    1.036e-06       19141.4
    1.037e-06       19139.6
    1.038e-06       19137.7
    1.039e-06       19135.9
     1.04e-06       19134.1
    1.041e-06       19132.2
    1.042e-06       19130.4
    1.043e-06       19128.5
    1.044e-06       19126.7
    1.045e-06       19124.9
    1.046e-06         19123
    1.047e-06       19121.2
    1.048e-06       19119.3
    1.049e-06       19117.5
     1.05e-06       19115.6
    1.051e-06       19113.7
    1.052e-06       19111.9
    1.053e-06         19110
    1.054e-06       19108.2
    1.055e-06       19106.3
    1.056e-06       19104.4
    1.057e-06       19102.6
    1.058e-06       19100.7
    1.059e-06       19098.8
     1.06e-06       19096.9
    1.061e-06       19095.1
    1.062e-06       19093.2
    1.063e-06       19091.3
    1.064e-06       19089.4
    1.065e-06       19087.5
    1.066e-06       19085.6
    1.067e-06       19083.7
    1.068e-06       19081.9