# Probe 0 (5e-06 5e-06 5e-06)
#       Probe             0
#        Time
        1e-09       10033.9
        2e-09       10067.8
        3e-09       10101.6
        4e-09       10135.2
        5e-09       10168.5
        6e-09       10201.5
        7e-09       10234.1
        8e-09       10266.3
        9e-09         10298
        1e-08       10329.2
      1.1e-08       10359.9
      1.2e-08         10390
      1.3e-08       10419.5
      1.4e-08       10448.4
      1.5e-08       10476.6
      1.6e-08       10504.2
      1.7e-08       10531.2
      1.8e-08       10557.5
      1.9e-08       10583.1
        2e-08         10608
      2.1e-08       10632.3
      2.2e-08       10655.9
      2.3e-08       10678.9
      2.4e-08       10701.2
      2.5e-08       10722.8
      2.6e-08       10743.8
      2.7e-08       10764.1
      2.8e-08       10783.8
      2.9e-08       10802.9
        3e-08       10821.4
      3.1e-08       10839.3
      3.2e-08       10856.5
      3.3e-08       10873.2
      3.4e-08       10889.4
      3.5e-08       10904.9
      3.6e-08       10919.9
      3.7e-08       10934.4
      3.8e-08       10948.4
      3.9e-08       10961.9
        4e-08       10974.8
      4.1e-08       10987.3
      4.2e-08       10999.3
      4.3e-08       11010.8
      4.4e-08       11021.9
      4.5e-08       11032.6
      4.6e-08       11042.8
      4.7e-08       11052.6
      4.8e-08         11062
      4.9e-08         11071
        5e-08       11079.7
      5.1e-08       11087.9
      5.2e-08       11095.8
      5.3e-08       11103.4
      5.4e-08       11110.6
      5.5e-08       11117.5
      5.6e-08       11124.1
      5.7e-08       11130.3
      5.8e-08       11136.3
      5.9e-08         11142
        6e-08       11147.3
      6.1e-08       11152.5
      6.2e-08       11157.3
      6.3e-08       11161.9
      6.4e-08       11166.2
      6.5e-08       11170.3
      6.6e-08       11174.2
      6.7e-08       11177.8
      6.8e-08       11181.2
      6.9e-08       11184.4
        7e-08       11187.4
      7.1e-08       11190.2
      7.2e-08       11192.8
      7.3e-08       11195.2
      7.4e-08       11197.4
      7.5e-08       11199.5
      7.6e-08       11201.4
      7.7e-08       11203.1
      7.8e-08       11204.7
      7.9e-08       11206.1
        8e-08       11207.3
      8.1e-08       11208.4
      8.2e-08       11209.4
      8.3e-08       11210.2
      8.4e-08         11211
      8.5e-08       11211.5
      8.6e-08         11212
      8.7e-08       11212.3
      8.8e-08       11212.6
      8.9e-08       11212.7
        9e-08       11212.7
      9.1e-08       11212.6
      9.2e-08       11212.4
      9.3e-08       11212.1
      9.4e-08       11211.8
      9.5e-08       11211.3
      9.6e-08       11210.8
      9.7e-08       11210.1
      9.8e-08       11209.4
      9.9e-08       11208.6
        1e-07       11207.7
     1.01e-07       11206.8
     1.02e-07       11205.8
     1.03e-07       11204.7
     1.04e-07       11203.6
     1.05e-07       11202.4
     1.06e-07       11201.1
     1.07e-07       11199.8
     1.08e-07       11198.4
     1.09e-07       11196.9
      1.1e-07       11195.4
     1.11e-07       11193.9
     1.12e-07       11192.3
     1.13e-07       11190.7
     1.14e-07         11189
     1.15e-07       11187.3
     1.16e-07       11185.5
     1.17e-07       11183.7
     1.18e-07       11181.8
     1.19e-07         11180
      1.2e-07         11178
     1.21e-07       11176.1
     1.22e-07       11174.1
     1.23e-07       11172.1
     1.24e-07         11170
     1.25e-07         11168
     1.26e-07       11165.8
     1.27e-07       11163.7
     1.28e-07       11161.6
     1.29e-07       11159.4
      1.3e-07       11157.2
     1.31e-07       11154.9
     1.32e-07       11152.7
     1.33e-07       11150.4
     1.34e-07       11148.1
     1.35e-07       11145.8
     1.36e-07       11143.4
     1.37e-07       11141.1
     1.38e-07       11138.7
     1.39e-07       11136.3
      1.4e-07       11133.9
     1.41e-07       11131.5
     1.42e-07       11129.1
     1.43e-07       11126.7
     1.44e-07       11124.2
     1.45e-07       11121.8
     1.46e-07       11119.3
     1.47e-07       11116.8
     1.48e-07       11114.3
     1.49e-07       11111.8
      1.5e-07       11109.3
     1.51e-07       11106.8
     1.52e-07       11104.2
     1.53e-07       11101.7
     1.54e-07       11099.1
     1.55e-07       11096.6
     1.56e-07         11094
     1.57e-07       11091.5
     1.58e-07       11088.9
     1.59e-07       11086.3
      1.6e-07       11083.8
     1.61e-07       11081.2
     1.62e-07       11078.6
     1.63e-07         11076
     1.64e-07       11073.4
     1.65e-07       11070.8
     1.66e-07       11068.2
     1.67e-07       11065.6
     1.68e-07         11063
     1.69e-07       11060.4
      1.7e-07       11057.9
     1.71e-07       11055.3
     1.72e-07       11052.7
     1.73e-07       11050.1
     1.74e-07       11047.5
     1.75e-07       11044.9
     1.76e-07       11042.3
     1.77e-07       11039.7
     1.78e-07       11037.1
     1.79e-07       11034.5
      1.8e-07       11031.9
     1.81e-07       11029.3
     1.82e-07       11026.7
     1.83e-07       11024.1
     1.84e-07       11021.5
     1.85e-07       11018.9
     1.86e-07       11016.3
     1.87e-07       11013.8
     1.88e-07       11011.2
     1.89e-07       11008.6
      1.9e-07         11006
     1.91e-07       11003.5
     1.92e-07       11000.9
     1.93e-07       10998.4
     1.94e-07       10995.8
     1.95e-07       10993.2
     1.96e-07       10990.7
     1.97e-07       10988.2
     1.98e-07       10985.6
     1.99e-07       10983.1
        2e-07       10980.5
     2.01e-07         10978
     2.02e-07       10975.5
     2.03e-07         10973
     2.04e-07       10970.5
     2.05e-07         10968
     2.06e-07       10965.4
     2.07e-07       10962.9
     2.08e-07       10960.5
     2.09e-07         10958
      2.1e-07       10955.5
     2.11e-07         10953
     2.12e-07       10950.5
     2.13e-07       10948.1
     2.14e-07       10945.6
     2.15e-07       10943.1
     2.16e-07       10940.7
     2.17e-07       10938.2
     2.18e-07       10935.8
     2.19e-07       10933.4
      2.2e-07       10930.9
     2.21e-07       10928.5
     2.22e-07       10926.1
     2.23e-07       10923.7
     2.24e-07       10921.3
     2.25e-07       10918.9
     2.26e-07       10916.5
     2.27e-07       10914.1
     2.28e-07       10911.7
     2.29e-07       10909.3
      2.3e-07         10907
     2.31e-07       10904.6
     2.32e-07       10902.2
     2.33e-07       10899.9
     2.34e-07       10897.5
     2.35e-07       10895.2
     2.36e-07       10892.9
     2.37e-07       10890.5
     2.38e-07       10888.2
     2.39e-07       10885.9
      2.4e-07       10883.6
     2.41e-07       10881.3
     2.42e-07         10879
     2.43e-07       10876.7
     2.44e-07       10874.4
     2.45e-07       10872.1
     2.46e-07       10869.8
     2.47e-07       10867.6
     2.48e-07       10865.3
     2.49e-07       10863.1
      2.5e-07       10860.8
     2.51e-07       10858.6
     2.52e-07       10856.3
     2.53e-07       10854.1
     2.54e-07       10851.9
     2.55e-07       10849.7
     2.56e-07       10847.5
     2.57e-07       10845.2
     2.58e-07         10843
     2.59e-07       10840.9
      2.6e-07       10838.7
     2.61e-07       10836.5
     2.62e-07       10834.3
     2.63e-07       10832.1
     2.64e-07         10830
     2.65e-07       10827.8
     2.66e-07       10825.7
     2.67e-07       10823.5
     2.68e-07       10821.4
     2.69e-07       10819.3
      2.7e-07       10817.1
     2.71e-07         10815
     2.72e-07       10812.9
     2.73e-07       10810.8
     2.74e-07       10808.7
     2.75e-07       10806.6
     2.76e-07       10804.5
     2.77e-07       10802.4
     2.78e-07       10800.3
     2.79e-07       10798.3
      2.8e-07       10796.2
     2.81e-07       10794.1
     2.82e-07       10792.1
     2.83e-07         10790
     2.84e-07         10788
     2.85e-07         10786
     2.86e-07       10783.9
     2.87e-07       10781.9
     2.88e-07       10779.9
     2.89e-07       10777.9
      2.9e-07       10775.9
     2.91e-07       10773.9
     2.92e-07       10771.9
     2.93e-07       10769.9
     2.94e-07       10767.9
     2.95e-07       10765.9
     2.96e-07         10764
     2.97e-07         10762
     2.98e-07         10760
     2.99e-07       10758.1
        3e-07       10756.1
     3.01e-07       10754.2
     3.02e-07       10752.2
     3.03e-07       10750.3
     3.04e-07       10748.4
     3.05e-07       10746.5
     3.06e-07       10744.5
     3.07e-07       10742.6
     3.08e-07       10740.7
     3.09e-07       10738.8
      3.1e-07       10736.9
     3.11e-07         10735
     3.12e-07       10733.2
     3.13e-07       10731.3
     3.14e-07       10729.4
     3.15e-07       10727.5
     3.16e-07       10725.7
     3.17e-07       10723.8
     3.18e-07         10722
     3.19e-07       10720.1
      3.2e-07       10718.3
     3.21e-07       10716.4
     3.22e-07       10714.6
     3.23e-07       10712.8
     3.24e-07         10711
     3.25e-07       10709.2
     3.26e-07       10707.3
     3.27e-07       10705.5
     3.28e-07       10703.7
     3.29e-07       10701.9
      3.3e-07       10700.2
     3.31e-07       10698.4
     3.32e-07       10696.6
     3.33e-07       10694.8
     3.34e-07         10693
     3.35e-07       10691.3
     3.36e-07       10689.5
     3.37e-07       10687.8
     3.38e-07         10686
     3.39e-07       10684.3
      3.4e-07       10682.5
     3.41e-07       10680.8
     3.42e-07       10679.1
     3.43e-07       10677.3
     3.44e-07       10675.6
     3.45e-07       10673.9
     3.46e-07       10672.2
     3.47e-07       10670.5
     3.48e-07       10668.8
     3.49e-07       10667.1
      3.5e-07       10665.4
     3.51e-07       10663.7
     3.52e-07         10662
     3.53e-07       10660.4
     3.54e-07       10658.7
     3.55e-07         10657
     3.56e-07       10655.3
     3.57e-07       10653.7
     3.58e-07         10652
     3.59e-07       10650.4
      3.6e-07       10648.7
     3.61e-07       10647.1
     3.62e-07       10645.5
     3.63e-07       10643.8
     3.64e-07       10642.2
     3.65e-07       10640.6
     3.66e-07       10638.9
     3.67e-07       10637.3
     3.68e-07       10635.7
     3.69e-07       10634.1
      3.7e-07       10632.5
     3.71e-07       10630.9
     3.72e-07       10629.3
     3.73e-07       10627.7
     3.74e-07       10626.1
     3.75e-07       10624.6
     3.76e-07         10623
     3.77e-07       10621.4
     3.78e-07       10619.9
     3.79e-07       10618.3
      3.8e-07       10616.7
     3.81e-07       10615.2
     3.82e-07       10613.6
     3.83e-07       10612.1
     3.84e-07       10610.5
     3.85e-07         10609
     3.86e-07       10607.5
     3.87e-07       10605.9
     3.88e-07       10604.4
     3.89e-07       10602.9
      3.9e-07       10601.4
     3.91e-07       10599.8
     3.92e-07       10598.3
     3.93e-07       10596.8
     3.94e-07       10595.3
     3.95e-07       10593.8
     3.96e-07       10592.3
     3.97e-07       10590.8
     3.98e-07       10589.3
     3.99e-07       10587.9
        4e-07       10586.4
     4.01e-07       10584.9
     4.02e-07       10583.4
     4.03e-07         10582
     4.04e-07       10580.5
     4.05e-07         10579
     4.06e-07       10577.6
     4.07e-07       10576.1
     4.08e-07       10574.7
     4.09e-07       10573.2
      4.1e-07       10571.8
     4.11e-07       10570.3
     4.12e-07       10568.9
     4.13e-07       10567.5
     4.14e-07         10566
     4.15e-07       10564.6
     4.16e-07       10563.2
     4.17e-07       10561.8
     4.18e-07       10560.4
     4.19e-07         10559
      4.2e-07       10557.6
     4.21e-07       10556.1
     4.22e-07       10554.7
     4.23e-07       10553.4
     4.24e-07         10552
     4.25e-07       10550.6
     4.26e-07       10549.2
     4.27e-07       10547.8
     4.28e-07       10546.4
     4.29e-07         10545
      4.3e-07       10543.7
     4.31e-07       10542.3
     4.32e-07       10540.9
     4.33e-07       10539.6
     4.34e-07       10538.2
     4.35e-07       10536.9
     4.36e-07       10535.5
     4.37e-07       10534.2
     4.38e-07       10532.8
     4.39e-07       10531.5
      4.4e-07       10530.1
     4.41e-07       10528.8
     4.42e-07       10527.5
     4.43e-07       10526.1
     4.44e-07       10524.8
     4.45e-07       10523.5
     4.46e-07       10522.2
     4.47e-07       10520.8
     4.48e-07       10519.5
     4.49e-07       10518.2
      4.5e-07       10516.9
     4.51e-07       10515.6
     4.52e-07       10514.3
     4.53e-07         10513
     4.54e-07       10511.7
     4.55e-07       10510.4
     4.56e-07       10509.1
     4.57e-07       10507.9
     4.58e-07       10506.6
     4.59e-07       10505.3
      4.6e-07         10504
     4.61e-07       10502.7
     4.62e-07       10501.5
     4.63e-07       10500.2
     4.64e-07       10498.9
     4.65e-07       10497.7
     4.66e-07       10496.4
     4.67e-07       10495.2
     4.68e-07       10493.9
     4.69e-07       10492.7
      4.7e-07       10491.4
     4.71e-07       10490.2
     4.72e-07       10488.9
     4.73e-07       10487.7
     4.74e-07       10486.4
     4.75e-07       10485.2
     4.76e-07         10484
     4.77e-07       10482.8
     4.78e-07       10481.5
     4.79e-07       10480.3
      4.8e-07       10479.1
     4.81e-07       10477.9
     4.82e-07       10476.7
     4.83e-07       10475.4
     4.84e-07       10474.2
     4.85e-07         10473
     4.86e-07       10471.8
     4.87e-07       10470.6
     4.88e-07       10469.4
     4.89e-07       10468.2
      4.9e-07         10467
     4.91e-07       10465.9
     4.92e-07       10464.7
     4.93e-07       10463.5
     4.94e-07       10462.3
     4.95e-07       10461.1
     4.96e-07         10460
     4.97e-07       10458.8
     4.98e-07       10457.6
     4.99e-07       10456.4
        5e-07       10455.3
     5.01e-07       10454.1
     5.02e-07         10453
     5.03e-07       10451.8
     5.04e-07       10450.6
     5.05e-07       10449.5
     5.06e-07       10448.3
     5.07e-07       10447.2
     5.08e-07         10446
     5.09e-07       10444.9
      5.1e-07       10443.8
     5.11e-07       10442.6
     5.12e-07       10441.5
     5.13e-07       10440.4
     5.14e-07       10439.2
     5.15e-07       10438.1
     5.16e-07         10437
     5.17e-07       10435.8
     5.18e-07       10434.7
     5.19e-07       10433.6
      5.2e-07       10432.5
     5.21e-07       10431.4
     5.22e-07       10430.3
     5.23e-07       10429.2
     5.24e-07         10428
     5.25e-07       10426.9
     5.26e-07       10425.8
     5.27e-07       10424.7
     5.28e-07       10423.6
     5.29e-07       10422.6
      5.3e-07       10421.5
     5.31e-07       10420.4
     5.32e-07       10419.3
     5.33e-07       10418.2
     5.34e-07       10417.1
     5.35e-07         10416
     5.36e-07         10415
     5.37e-07       10413.9
     5.38e-07       10412.8
     5.39e-07       10411.7
      5.4e-07       10410.7
     5.41e-07       10409.6
     5.42e-07       10408.5
     5.43e-07       10407.5
     5.44e-07       10406.4
     5.45e-07       10405.3
     5.46e-07       10404.3
     5.47e-07       10403.2
     5.48e-07       10402.2
     5.49e-07       10401.1
      5.5e-07       10400.1
     5.51e-07         10399
     5.52e-07         10398
     5.53e-07       10396.9
     5.54e-07       10395.9
     5.55e-07       10394.9
     5.56e-07       10393.8
     5.57e-07       10392.8
     5.58e-07       10391.8
     5.59e-07       10390.7
      5.6e-07       10389.7
     5.61e-07       10388.7
     5.62e-07       10387.7
     5.63e-07       10386.6
     5.64e-07       10385.6
     5.65e-07       10384.6
     5.66e-07       10383.6
     5.67e-07       10382.6
     5.68e-07       10381.6
     5.69e-07       10380.6
      5.7e-07       10379.6
     5.71e-07       10378.5
     5.72e-07       10377.5
     5.73e-07       10376.5
     5.74e-07       10375.5
     5.75e-07       10374.5
     5.76e-07       10373.6
     5.77e-07       10372.6
     5.78e-07       10371.6
     5.79e-07       10370.6
      5.8e-07       10369.6
     5.81e-07       10368.6
     5.82e-07       10367.6
     5.83e-07       10366.6
     5.84e-07       10365.7
     5.85e-07       10364.7
     5.86e-07       10363.7
     5.87e-07       10362.7
     5.88e-07       10361.8
     5.89e-07       10360.8
      5.9e-07       10359.8
     5.91e-07       10358.9
     5.92e-07       10357.9
     5.93e-07       10356.9
     5.94e-07         10356
     5.95e-07         10355
     5.96e-07       10354.1
     5.97e-07       10353.1
     5.98e-07       10352.1
     5.99e-07       10351.2
        6e-07       10350.2
     6.01e-07       10349.3
     6.02e-07       10348.3
     6.03e-07       10347.4
     6.04e-07       10346.5
     6.05e-07       10345.5
     6.06e-07       10344.6
     6.07e-07       10343.6
     6.08e-07       10342.7
     6.09e-07       10341.8
      6.1e-07       10340.8
     6.11e-07       10339.9
     6.12e-07         10339
     6.13e-07       10338.1
     6.14e-07       10337.1
     6.15e-07       10336.2
     6.16e-07       10335.3
     6.17e-07       10334.4
     6.18e-07       10333.4
     6.19e-07       10332.5
      6.2e-07       10331.6
     6.21e-07       10330.7
     6.22e-07       10329.8
     6.23e-07       10328.9
     6.24e-07         10328
     6.25e-07       10327.1
     6.26e-07       10326.2
     6.27e-07       10325.3
     6.28e-07       10324.4
     6.29e-07       10323.5
      6.3e-07       10322.6
     6.31e-07       10321.7
     6.32e-07       10320.8
     6.33e-07       10319.9
     6.34e-07         10319
     6.35e-07       10318.1
     6.36e-07       10317.2
     6.37e-07       10316.3
     6.38e-07       10315.4
     6.39e-07       10314.5
      6.4e-07       10313.7
     6.41e-07       10312.8
     6.42e-07       10311.9
     6.43e-07         10311
     6.44e-07       10310.1
     6.45e-07       10309.3
     6.46e-07       10308.4
     6.47e-07       10307.5
     6.48e-07       10306.7
     6.49e-07       10305.8
      6.5e-07       10304.9
     6.51e-07       10304.1
     6.52e-07       10303.2
     6.53e-07       10302.3
     6.54e-07       10301.5
     6.55e-07       10300.6
     6.56e-07       10299.8
     6.57e-07       10298.9
     6.58e-07         10298
     6.59e-07       10297.2
      6.6e-07       10296.3
     6.61e-07       10295.5
     6.62e-07       10294.6
     6.63e-07       10293.8
     6.64e-07       10292.9
     6.65e-07       10292.1
     6.66e-07       10291.3
     6.67e-07       10290.4
     6.68e-07       10289.6
     6.69e-07       10288.7
      6.7e-07       10287.9
     6.71e-07       10287.1
     6.72e-07       10286.2
     6.73e-07       10285.4
     6.74e-07       10284.6
     6.75e-07       10283.7
     6.76e-07       10282.9
     6.77e-07       10282.1
     6.78e-07       10281.3
     6.79e-07       10280.4
      6.8e-07       10279.6
     6.81e-07       10278.8
     6.82e-07         10278
     6.83e-07       10277.1
     6.84e-07       10276.3
     6.85e-07       10275.5
     6.86e-07       10274.7
     6.87e-07       10273.9
     6.88e-07       10273.1
     6.89e-07       10272.3
      6.9e-07       10271.5
     6.91e-07       10270.6
     6.92e-07       10269.8
     6.93e-07         10269
     6.94e-07       10268.2
     6.95e-07       10267.4
     6.96e-07       10266.6
     6.97e-07       10265.8
     6.98e-07         10265
     6.99e-07       10264.2
        7e-07       10263.4
     7.01e-07       10262.6
     7.02e-07       10261.8
     7.03e-07       10261.1
     7.04e-07       10260.3
     7.05e-07       10259.5
     7.06e-07       10258.7
     7.07e-07       10257.9
     7.08e-07       10257.1
     7.09e-07       10256.3
      7.1e-07       10255.5
     7.11e-07       10254.8
     7.12e-07         10254
     7.13e-07       10253.2
     7.14e-07       10252.4
     7.15e-07       10251.7
     7.16e-07       10250.9
     7.17e-07       10250.1
     7.18e-07       10249.3
     7.19e-07       10248.6
      7.2e-07       10247.8
     7.21e-07         10247
     7.22e-07       10246.3
     7.23e-07       10245.5
     7.24e-07       10244.7
     7.25e-07         10244
     7.26e-07       10243.2
     7.27e-07       10242.4
     7.28e-07       10241.7
     7.29e-07       10240.9
      7.3e-07       10240.2
     7.31e-07       10239.4
     7.32e-07       10238.6
     7.33e-07       10237.9
     7.34e-07       10237.1
     7.35e-07       10236.4
     7.36e-07       10235.6
     7.37e-07       10234.9
     7.38e-07       10234.1
     7.39e-07       10233.4
      7.4e-07       10232.6
     7.41e-07       10231.9
     7.42e-07       10231.2
     7.43e-07       10230.4
     7.44e-07       10229.7
     7.45e-07       10228.9
     7.46e-07       10228.2
     7.47e-07       10227.5
     7.48e-07       10226.7
     7.49e-07         10226
      7.5e-07       10225.2
     7.51e-07       10224.5
     7.52e-07       10223.8
     7.53e-07         10223
     7.54e-07       10222.3
     7.55e-07       10221.6
     7.56e-07       10220.9
     7.57e-07       10220.1
     7.58e-07       10219.4
     7.59e-07       10218.7
      7.6e-07         10218
     7.61e-07       10217.2
     7.62e-07       10216.5
     7.63e-07       10215.8
     7.64e-07       10215.1
     7.65e-07       10214.4
     7.66e-07       10213.6
     7.67e-07       10212.9
     7.68e-07       10212.2
     7.69e-07       10211.5
      7.7e-07       10210.8
     7.71e-07       10210.1
     7.72e-07       10209.4
     7.73e-07       10208.7
     7.74e-07       10207.9
     7.75e-07       10207.2
     7.76e-07       10206.5
     7.77e-07       10205.8
     7.78e-07       10205.1
     7.79e-07       10204.4
      7.8e-07       10203.7
     7.81e-07         10203
     7.82e-07       10202.3
     7.83e-07       10201.6
     7.84e-07       10200.9
     7.85e-07       10200.2
     7.86e-07       10199.5
     7.87e-07       10198.8
     7.88e-07       10198.1
     7.89e-07       10197.5
      7.9e-07       10196.8
     7.91e-07       10196.1
     7.92e-07       10195.4
     7.93e-07       10194.7
     7.94e-07         10194
     7.95e-07       10193.3
     7.96e-07       10192.6
     7.97e-07         10192
     7.98e-07       10191.3
     7.99e-07       10190.6
        8e-07       10189.9
     8.01e-07       10189.2
     8.02e-07       10188.5
     8.03e-07       10187.9
     8.04e-07       10187.2
     8.05e-07       10186.5
     8.06e-07       10185.8
     8.07e-07       10185.2
     8.08e-07       10184.5
     8.09e-07       10183.8
      8.1e-07       10183.1
     8.11e-07       10182.5
     8.12e-07       10181.8
     8.13e-07       10181.1
     8.14e-07       10180.5
     8.15e-07       10179.8
     8.16e-07       10179.1
     8.17e-07       10178.5
     8.18e-07       10177.8
     8.19e-07       10177.1
      8.2e-07       10176.5
     8.21e-07       10175.8
     8.22e-07       10175.2
     8.23e-07       10174.5
     8.24e-07       10173.8
     8.25e-07       10173.2
     8.26e-07       10172.5
     8.27e-07       10171.9
     8.28e-07       10171.2
     8.29e-07       10170.6
      8.3e-07       10169.9
     8.31e-07       10169.3
     8.32e-07       10168.6
     8.33e-07         10168
     8.34e-07       10167.3
     8.35e-07       10166.7
     8.36e-07         10166
     8.37e-07       10165.4
     8.38e-07       10164.7
     8.39e-07       10164.1
      8.4e-07       10163.4
     8.41e-07       10162.8
     8.42e-07       10162.2
     8.43e-07       10161.5
     8.44e-07       10160.9
     8.45e-07       10160.2
     8.46e-07       10159.6
     8.47e-07         10159
     8.48e-07       10158.3
     8.49e-07       10157.7
      8.5e-07       10157.1
     8.51e-07       10156.4
     8.52e-07       10155.8
     8.53e-07       10155.2
     8.54e-07       10154.5
     8.55e-07       10153.9
     8.56e-07       10153.3
     8.57e-07       10152.6
     8.58e-07         10152
     8.59e-07       10151.4
      8.6e-07       10150.8
     8.61e-07       10150.1
     8.62e-07       10149.5
     8.63e-07       10148.9
     8.64e-07       10148.3
     8.65e-07       10147.6
     8.66e-07         10147
     8.67e-07       10146.4
     8.68e-07       10145.8
     8.69e-07       10145.2
      8.7e-07       10144.6
     8.71e-07       10143.9
     8.72e-07       10143.3
     8.73e-07       10142.7
     8.74e-07       10142.1
     8.75e-07       10141.5
     8.76e-07       10140.9
     8.77e-07       10140.3
     8.78e-07       10139.6
     8.79e-07         10139
      8.8e-07       10138.4
     8.81e-07       10137.8
     8.82e-07       10137.2
     8.83e-07       10136.6
     8.84e-07         10136
     8.85e-07       10135.4
     8.86e-07       10134.8
     8.87e-07       10134.2
     8.88e-07       10133.6
     8.89e-07         10133
      8.9e-07       10132.4
     8.91e-07       10131.8
     8.92e-07       10131.2
     8.93e-07       10130.6
     8.94e-07         10130
     8.95e-07       10129.4
     8.96e-07       10128.8
     8.97e-07       10128.2
     8.98e-07       10127.6
     8.99e-07         10127
        9e-07       10126.4
     9.01e-07       10125.8
     9.02e-07       10125.2
     9.03e-07       10124.6
     9.04e-07         10124
     9.05e-07       10123.5
     9.06e-07       10122.9
     9.07e-07       10122.3
     9.08e-07       10121.7
     9.09e-07       10121.1
      9.1e-07       10120.5
     9.11e-07       10119.9
     9.12e-07       10119.3
     9.13e-07       10118.8
     9.14e-07       10118.2
     9.15e-07       10117.6
     9.16e-07         10117
     9.17e-07       10116.4
     9.18e-07       10115.9
     9.19e-07       10115.3
      9.2e-07       10114.7
     9.21e-07       10114.1
     9.22e-07       10113.5
     9.23e-07         10113
     9.24e-07       10112.4
     9.25e-07       10111.8
     9.26e-07       10111.2
     9.27e-07       10110.7
     9.28e-07       10110.1
     9.29e-07       10109.5
      9.3e-07         10109
     9.31e-07       10108.4
     9.32e-07       10107.8
     9.33e-07       10107.3
     9.34e-07       10106.7
     9.35e-07       10106.1
     9.36e-07       10105.6
     9.37e-07         10105
     9.38e-07       10104.4
     9.39e-07       10103.9
      9.4e-07       10103.3
     9.41e-07       10102.7
     9.42e-07       10102.2
     9.43e-07       10101.6
     9.44e-07         10101
     9.45e-07       10100.5
     9.46e-07       10099.9
     9.47e-07       10099.4
     9.48e-07       10098.8
     9.49e-07       10098.3
      9.5e-07       10097.7
     9.51e-07       10097.1
     9.52e-07       10096.6
     9.53e-07         10096
     9.54e-07       10095.5
     9.55e-07       10094.9
     9.56e-07       10094.4
     9.57e-07       10093.8
     9.58e-07       10093.3
     9.59e-07       10092.7
      9.6e-07       10092.2
     9.61e-07       10091.6
     9.62e-07       10091.1
     9.63e-07       10090.5
     9.64e-07         10090
     9.65e-07       10089.4
     9.66e-07       10088.9
     9.67e-07       10088.3
     9.68e-07       10087.8
     9.69e-07       10087.2
      9.7e-07       10086.7
     9.71e-07       10086.2
     9.72e-07       10085.6
     9.73e-07       10085.1
     9.74e-07       10084.5
     9.75e-07         10084
     9.76e-07       10083.5
     9.77e-07       10082.9
     9.78e-07       10082.4
     9.79e-07       10081.8
      9.8e-07       10081.3
     9.81e-07       10080.8
     9.82e-07       10080.2
     9.83e-07       10079.7
     9.84e-07       10079.2
     9.85e-07       10078.6
     9.86e-07       10078.1
     9.87e-07       10077.6
     9.88e-07         10077
     9.89e-07       10076.5
      9.9e-07         10076
     9.91e-07       10075.4
     9.92e-07       10074.9
     9.93e-07       10074.4
     9.94e-07       10073.9
     9.95e-07       10073.3
     9.96e-07       10072.8
     9.97e-07       10072.3
     9.98e-07       10071.8
     9.99e-07       10071.2
        1e-06       10070.7
    1.001e-06       10070.2
    1.002e-06       10069.7
    1.003e-06       10069.1
    1.004e-06       10068.6
    1.005e-06       10068.1
    1.006e-06       10067.6
    1.007e-06       10067.1
    1.008e-06       10066.5
    1.009e-06         10066
     1.01e-06       10065.5
    1.011e-06         10065
    1.012e-06       10064.5
    1.013e-06         10064
    1.014e-06       10063.4
    1.015e-06       10062.9
    1.016e-06       10062.4
    1.017e-06       10061.9
    1.018e-06       10061.4
    1.019e-06       10060.9
     1.02e-06       10060.4
    1.021e-06       10059.9
    1.022e-06       10059.3
    1.023e-06       10058.8
    1.024e-06       10058.3
    1.025e-06       10057.8
    1.026e-06       10057.3
    1.027e-06       10056.8
    1.028e-06       10056.3
    1.029e-06       10055.8
     1.03e-06       10055.3
    1.031e-06       10054.8
    1.032e-06       10054.3
    1.033e-06       10053.8
    1.034e-06       10053.3
    1.035e-06       10052.8
    1.036e-06       10052.3
    1.037e-06       10051.8
    1.038e-06       10051.2
    1.039e-06       10050.7
     1.04e-06       10050.2
    1.041e-06       10049.7
    1.042e-06       10049.3
    1.043e-06       10048.8
    1.044e-06       10048.3
    1.045e-06       10047.8
    1.046e-06       10047.3
    1.047e-06       10046.8
    1.048e-06       10046.3
    1.049e-06       10045.8
     1.05e-06       10045.3
    1.051e-06       10044.8
    1.052e-06       10044.3
    1.053e-06       10043.8
    1.054e-06       10043.3
    1.055e-06       10042.8
    1.056e-06       10042.3
    1.057e-06       10041.8
    1.058e-06       10041.3
    1.059e-06       10040.9
     1.06e-06       10040.4
    1.061e-06       10039.9
    1.062e-06       10039.4
    1.063e-06       10038.9
    1.064e-06       10038.4
    1.065e-06       10037.9
    1.066e-06       10037.4
    1.067e-06         10037
    1.068e-06       10036.5