/*--------------------------------*- C++ -*----------------------------------*\
| =========                 |                                                 |
| \\      /  F ield         | OpenFOAM: The Open Source CFD Toolbox           |
|  \\    /   O peration     | Version:  v1612+-hyStrath                       |
|   \\  /    A nd           | Web:      www.OpenFOAM.com                      |
|    \\/     M anipulation  |                                                 |
\*---------------------------------------------------------------------------*/
FoamFile
{
    version     2.0;
    format      ascii;
    class       volScalarField;
    location    "0.015";
    object      kappatr;
}
// * * * * * * * * * * * * * * * * * * * * * * * * * * * * * * * * * * * * * //

dimensions      [1 1 -3 -1 0 0 0];

internalField   nonuniform List<scalar> 
141100
(
0.02657989829
0.02654598934
0.02840515256
0.02651450798
0.02834959732
0.03007668635
0.02657077248
0.02830172307
0.03009792998
0.03170718354
0.0266170757
0.02840623913
0.03011799904
0.03174934427
0.03327789466
0.02662253782
0.02849974603
0.03016514887
0.0317938615
0.03331499748
0.0346935224
0.02657872366
0.0285143406
0.03021561513
0.03183216039
0.03333731334
0.03478096162
0.03608469518
0.02653707711
0.02843309026
0.03023744655
0.03184063092
0.03341456989
0.03484538131
0.03617716248
0.03745408571
0.02654677689
0.02836589263
0.03021666877
0.03187131656
0.0334265855
0.03488430993
0.03625238687
0.03751645408
0.03874258292
0.02660077047
0.02839096096
0.03022326411
0.03190413813
0.03346372389
0.03490552955
0.03629131602
0.03756734586
0.03880438794
0.03995384615
0.02661064836
0.02849565176
0.03026006551
0.03193745965
0.03350339879
0.03494377756
0.0363150237
0.03764305751
0.03885830893
0.04004673102
0.04110820366
0.02662878867
0.0285227763
0.03031450742
0.03198298589
0.03351240793
0.03499308036
0.03635898104
0.03766686078
0.03890710133
0.04009686538
0.04121121797
0.04225535815
0.02668426973
0.02856448148
0.03035669071
0.03203908997
0.03356437607
0.03504995992
0.03641256649
0.03771580029
0.0389334533
0.04012318078
0.04128714316
0.04234905875
0.04334383467
0.02669005233
0.02867703977
0.0304121375
0.032087836
0.03362718512
0.03510766566
0.03648052778
0.03777508544
0.03898196714
0.04017584911
0.04131300091
0.04243009089
0.0434164397
0.04437692344
0.02664111875
0.02869207908
0.0304823608
0.032110759
0.03368383028
0.03513849861
0.03654377355
0.03781348398
0.03905157606
0.04022577082
0.04136575787
0.04247788996
0.04347460047
0.04443607381
0.04536907017
0.02663360834
0.02860116439
0.03050435149
0.03213971653
0.03371095832
0.03520051513
0.03658027747
0.03788239194
0.03911893395
0.04027304024
0.04141754929
0.04250340985
0.04354376125
0.04449261998
0.04542738736
0.04631847548
0.02662514391
0.02858230777
0.03047442821
0.03216721744
0.03374661137
0.03527227879
0.03664435593
0.0379588162
0.03919309806
0.04037061975
0.04146943965
0.0425577255
0.04359113953
0.04455834675
0.04548171671
0.0463858979
0.04721067286
0.02657257456
0.02856392434
0.03044309731
0.03219456519
0.03377930192
0.0353148939
0.03672396222
0.03802119149
0.03927492617
0.04044770151
0.04156483936
0.04263484699
0.04364296773
0.04462589578
0.04554348077
0.04643710463
0.04727426046
0.04804624866
0.02657140283
0.02846335697
0.03037254178
0.03219840096
0.03381162741
0.03535241525
0.03677131109
0.03807585563
0.03933988957
0.04050636822
0.0416206516
0.04271064239
0.04370048039
0.04467661321
0.04560883185
0.0464946986
0.04732140754
0.04809276246
0.04883512857
0.02658725064
0.02846074149
0.03032624039
0.03212435377
0.03381482604
0.03538752969
0.03681279432
0.03812549146
0.03939822632
0.04056922994
0.04168029692
0.04276825152
0.04375639622
0.04471414845
0.0456590059
0.04653961322
0.04737592074
0.04813479894
0.04889190282
0.0495834696
0.02664059182
0.02850374062
0.03037364726
0.03208190084
0.03378449165
0.03534856806
0.03685050271
0.03816991563
0.03944758368
0.04066397965
0.04174401448
0.04282326674
0.04383724045
0.04477224578
0.04569729808
0.04658995089
0.04741959193
0.04818724525
0.04894116748
0.04963435315
0.05028146505
0.02664846635
0.02860586396
0.03038817525
0.0321375219
0.0337373086
0.03528326716
0.03681181477
0.0382117757
0.03949411628
0.0407383425
0.04184071876
0.04289100198
0.04391277533
0.04485173933
0.04575582109
0.04664541655
0.04746668746
0.04824562866
0.04897557543
0.04968023257
0.05032183724
0.05091314172
0.02666223359
0.02862679538
0.03043744246
0.03216556412
0.0337576354
0.03523360121
0.03670606305
0.03817666683
0.03951134618
0.04078744311
0.04194100116
0.04298428284
0.04397838411
0.04494556551
0.0458330761
0.04670284479
0.04752212498
0.04829095474
0.04901880713
0.04971070445
0.05035273522
0.05095707714
0.05149585197
0.02670550936
0.02865706087
0.03046760048
0.03216588788
0.03379849531
0.03526013428
0.0366557949
0.03809789782
0.03948177814
0.04078126686
0.04199301576
0.04306060292
0.04407447434
0.04500977372
0.04592488274
0.04675837506
0.04757787975
0.04832798885
0.04906287582
0.04973835529
0.05039142353
0.05098464915
0.05152956439
0.05203629053
0.02670086721
0.02873319231
0.03050491655
0.03220300113
0.03379972696
0.03530959907
0.03668728222
0.03808369239
0.03942670365
0.04075750376
0.04199209295
0.04311550208
0.04414818477
0.04508413083
0.04598591631
0.04683134153
0.04763107866
0.04838179356
0.04909617099
0.04978253666
0.0504175157
0.05101921304
0.05155376252
0.05206038073
0.0525283392
0.02665550066
0.02866987159
0.03056783367
0.03224111402
0.03383870303
0.03534864396
0.03674492495
0.0381213515
0.03938553733
0.04069285706
0.04197072294
0.04311860982
0.04418313714
0.0451598949
0.04603888554
0.04690706138
0.04769932647
0.04844798067
0.04914764428
0.04982302878
0.0504606312
0.05104367821
0.05158514803
0.05208114872
0.05254952176
0.05296329843
0.02665478698
0.02858897825
0.03049393208
0.03225112853
0.03388124339
0.03538930118
0.0368211328
0.03814504208
0.03942820074
0.04062774291
0.0419030075
0.04309723852
0.04418834029
0.0451969115
0.04609601681
0.04697549191
0.04777125294
0.04852662001
0.04920970936
0.04987193391
0.05050751605
0.05108357145
0.05161762753
0.05210947759
0.05256691844
0.05298178833
0.05335742982
0.02669479018
0.02863884439
0.0304299849
0.03222048296
0.03388236042
0.03539847397
0.0368646515
0.03819106492
0.03948061785
0.04067320041
0.04184149917
0.04303230073
0.04416534305
0.04522249248
0.04615313173
0.04703421971
0.04783936859
0.0485816086
0.04928306937
0.04992922869
0.05055323542
0.05112599433
0.05165223177
0.05213890066
0.05259214994
0.05299597077
0.05337313645
0.05371208255
0.02664630883
0.02870792122
0.03048020258
0.03221166502
0.03380740657
0.03539674156
0.03683969477
0.03823696108
0.03952780806
0.04075175349
0.04188814568
0.04297151286
0.04410743029
0.0451980599
0.04619743219
0.04708939918
0.04789752443
0.04863129942
0.04933754207
0.04998517877
0.05059392257
0.05116811706
0.05168182647
0.05217059304
0.05261012889
0.05301862925
0.05338427646
0.05372473208
0.05401830006
0.0265915724
0.02861133706
0.0305347011
0.03221332916
0.03380856926
0.03531662889
0.03679819887
0.03824736413
0.03957729839
0.04080332913
0.04196327473
0.04301766296
0.04406752435
0.0451495554
0.0461745082
0.04711448464
0.04795084064
0.04868653908
0.04938373943
0.05003941791
0.05063529681
0.05120498155
0.05172021032
0.05219566621
0.05263851952
0.05304073314
0.05340448148
0.05373299575
0.0540330041
0.05428746532
0.0265960855
0.02850871817
0.03043663479
0.03221470929
0.03384972604
0.03531881294
0.03675481789
0.03823613861
0.0395877687
0.04085819966
0.04199142097
0.04309215609
0.04411242375
0.0451289372
0.04613204798
0.04709389609
0.04797436954
0.0487383473
0.04943496606
0.05009380857
0.0506856105
0.05124117301
0.05176295944
0.05223021297
0.05266779334
0.05306433639
0.053423482
0.05375101145
0.05403777086
0.05430024908
0.05452185397
0.02664181721
0.02852042936
0.03033920912
0.03215466965
0.03384310878
0.03536398738
0.03679327065
0.03815973505
0.03957830896
0.04086225448
0.04204826215
0.04312269443
0.04416593802
0.04515072353
0.04611267658
0.04705582952
0.04795620304
0.04877684529
0.04948446
0.05013955454
0.05074994512
0.05127887772
0.05180447031
0.05226851089
0.05269855314
0.05308413191
0.05344404205
0.05376140363
0.05404988082
0.05430265135
0.05452966266
0.05471846756
0.02664137286
0.02860207293
0.03035663997
0.03210510063
0.03377698952
0.03539339677
0.03680435071
0.03816540011
0.03950016624
0.04082638259
0.0420757045
0.04317695764
0.04419796631
0.04518632599
0.04611223273
0.04702229291
0.04790526811
0.04875970529
0.04952255689
0.05018612209
0.05079901921
0.05133893862
0.05183947827
0.05230564872
0.05273212149
0.05311101015
0.05346015695
0.05377876648
0.05406218933
0.05431267761
0.054530095
0.05472792809
0.05488578275
0.02664614383
0.0286022144
0.0304241355
0.03208154459
0.03373223574
0.03531316602
0.03682939196
0.03821134302
0.03950348944
0.04077877105
0.04204283399
0.04320545443
0.0442452771
0.04523571992
0.04614767654
0.04703780272
0.04786017941
0.0486994168
0.04950803499
0.05021268998
0.05083189717
0.05139198575
0.05188292842
0.0523483659
0.05275758705
0.05314027376
0.05348330998
0.05379727304
0.05407541081
0.05432260473
0.05454159833
0.05472866689
0.05489405785
0.05502641596
0.02669080677
0.02860966522
0.03042315665
0.03209498484
0.03370767441
0.03523439225
0.03677735555
0.03822884256
0.03955250952
0.04077967261
0.04199580209
0.04317437907
0.04425555442
0.04527853701
0.04621398397
0.04706832132
0.04788953773
0.04865888208
0.04945299186
0.05020118707
0.05084858181
0.05141248392
0.05192322662
0.05238304014
0.05279699358
0.05316895741
0.05350828155
0.05381697307
0.05408753474
0.0543326772
0.05454937317
0.0547357932
0.05489354104
0.0550334725
0.05514181206
0.02669775642
0.02869290687
0.03042446494
0.03213671364
0.03371016886
0.03524889733
0.03670041786
0.03814433299
0.03953165274
0.04080251987
0.04196780072
0.04312807886
0.04422472044
0.04527147258
0.04625461796
0.04711528263
0.04793131
0.04868429269
0.0494160851
0.05016260154
0.05083926979
0.05142990265
0.05195026903
0.05241230187
0.05283260917
0.0532030653
0.05353321246
0.05383765904
0.0541038482
0.05434255438
0.05455611083
0.05474203673
0.0548991107
0.0550300937
0.05514921762
0.05523590212
0.02668932803
0.02871088527
0.03050221511
0.03212731303
0.03375364959
0.03524505952
0.03671235884
0.03806586814
0.03942010664
0.04077312974
0.04199265824
0.043098817
0.04417948
0.04524048647
0.04625010372
0.04715560331
0.04795898732
0.04873621296
0.04943735912
0.05012798767
0.05081627128
0.05142180731
0.05196687582
0.05243597524
0.0528589453
0.05322786514
0.05356358544
0.0538537662
0.05412072063
0.05435564009
0.05456468751
0.05474597654
0.05490317613
0.05503452442
0.05514550269
0.05524244805
0.05531094035
0.02667076695
0.02869368076
0.03052573286
0.03216334088
0.03369256434
0.0352497836
0.03666852644
0.03807381537
0.03933814427
0.04066616131
0.04198443346
0.04312311792
0.04417310499
0.0451964706
0.04621983374
0.04715008898
0.04800124383
0.04876191105
0.04948433965
0.05014527369
0.05079350277
0.05140304023
0.05196115517
0.05245198505
0.05287213796
0.05325001793
0.0535835821
0.05387531942
0.05413360414
0.05436906007
0.05457477562
0.05475039946
0.05490521912
0.05503853677
0.05514818334
0.05523879165
0.05531685262
0.05537005391
0.02661845457
0.02860488226
0.0305028401
0.03218819692
0.03369085964
0.0351759004
0.03667292471
0.03802689575
0.03934133185
0.04058104307
0.04188163949
0.04311331338
0.04419513393
0.04519027288
0.0461771554
0.04712163959
0.04800748984
0.04880500646
0.04950855992
0.05017657566
0.05079625391
0.05139080373
0.05194463841
0.05244762831
0.05288650677
0.05326708772
0.053600896
0.05389638558
0.05415130212
0.05437902715
0.05458509767
0.05475777143
0.05490816553
0.05503949938
0.05514921243
0.05524116658
0.05531292891
0.05537591907
0.0554157791
0.02661347505
0.0285015208
0.03035311118
0.03216131354
0.03371492551
0.03517803605
0.03662462098
0.03802731435
0.03932386324
0.0405785713
0.04179415112
0.04301291076
0.04416284845
0.04521031021
0.04615031282
0.0470803092
0.047981772
0.04882194512
0.04954873851
0.05019918667
0.05081468938
0.05138075606
0.05192429275
0.05243317833
0.05288254867
0.05327898194
0.05361568575
0.05391343293
0.0541676585
0.05439283457
0.0545922811
0.05476543445
0.05491317801
0.05504075231
0.05514951611
0.05523983252
0.05531412258
0.0553716578
0.05542219427
0.05545049752
0.02666567246
0.02848558978
0.0302555859
0.03200479814
0.03368478813
0.03520096185
0.03663031263
0.03797631523
0.03931825489
0.04056156779
0.04178553354
0.04292415301
0.04406345077
0.04517795213
0.04616768198
0.04707181561
0.04794197971
0.048798749
0.049563846
0.05023353111
0.0508327082
0.05139728769
0.05192148085
0.05241424834
0.05286384246
0.05327597652
0.05362551667
0.05392120377
0.05418089413
0.05440540102
0.05459890021
0.05477255797
0.05491843837
0.05504373909
0.05515046392
0.05523834458
0.05531211677
0.05537124595
0.0554176341
0.05545695779
0.05547659707
0.02666399206
0.02853216951
0.03023168065
0.03190760099
0.03356458517
0.03516800365
0.03665215254
0.03798300195
0.03923740833
0.0405499196
0.04173991363
0.04290958049
0.0439743535
0.04507933134
0.04615638573
0.04708498275
0.04793526225
0.04874609123
0.04954176273
0.05023620633
0.05086300791
0.0514111952
0.05193493863
0.05241000862
0.05284679204
0.05325845973
0.05362275925
0.05392828736
0.05419070061
0.05441110575
0.05460782507
0.05477773453
0.05492319099
0.05504688277
0.05515159567
0.0552390628
0.05530973489
0.0553687832
0.05541586899
0.05545210971
0.05548319084
0.05549571562
0.02667137209
0.0285694104
0.03021963243
0.03188390301
0.03346499543
0.03508702795
0.03661639247
0.03800382201
0.03924288512
0.04046904914
0.04172574723
0.04286209204
0.04395442716
0.04499045734
0.04605869062
0.04705858688
0.04792710423
0.04872474584
0.04947725996
0.05021468533
0.05086430741
0.05143725323
0.05194590895
0.05242001752
0.05284079103
0.05323730115
0.0536073911
0.05392526552
0.05419439096
0.05441902925
0.05461045791
0.0547808351
0.05492720359
0.05504768367
0.05515186325
0.05523867014
0.05530929533
0.05536629693
0.05541290985
0.05544999195
0.05547800792
0.05550257341
0.05550941599
0.02667751886
0.02858207832
0.03024764211
0.03190176639
0.03344585305
0.0349811054
0.03650285045
0.03796585124
0.03926207833
0.04047211269
0.04167079992
0.04284340853
0.04392800132
0.04496583171
0.04597078261
0.04696052149
0.04790291864
0.04871139573
0.04945717737
0.05016553845
0.05084323064
0.05144760116
0.05196650125
0.05242687621
0.05285395642
0.05323012627
0.05358779255
0.05390729819
0.05418772996
0.05442274758
0.0546128833
0.05478116658
0.05492698318
0.05504841384
0.05515055041
0.05523648961
0.05530777789
0.05536439723
0.05540974187
0.05544662258
0.05547553802
0.0554970552
0.05551645792
0.05551893838
0.02662298905
0.02854320675
0.03026607386
0.03191776369
0.03349301266
0.03492911741
0.03639572745
0.03781972794
0.03922330938
0.0404892559
0.04167020389
0.04279195215
0.04390483143
0.04493830909
0.04594198043
0.04687469192
0.04782119209
0.04869069666
0.04945358155
0.05014520087
0.05079828065
0.05142699116
0.05196701097
0.0524436846
0.05285659743
0.05323923435
0.05357940406
0.05388824114
0.0541749188
0.05441579917
0.0546165396
0.05478267925
0.05492514007
0.05504728889
0.05514834991
0.0552342581
0.05530438791
0.0553619857
0.05540662573
0.05544289817
0.05547176729
0.05549399707
0.05551064614
0.05552615568
0.05552529817
0.02662129421
0.02848131968
0.03022463917
0.0319002706
0.03350653215
0.03493365883
0.03633832839
0.03771526386
0.03911088348
0.04045079714
0.0416849103
0.04278526374
0.04383590797
0.04491111228
0.04589131288
0.04684324768
0.04772250195
0.04861005268
0.04941915759
0.05012608882
0.05077620807
0.05137476183
0.05194674276
0.05244186556
0.05286343067
0.05323839488
0.05358341651
0.05388434369
0.05415658478
0.0544041724
0.05461194497
0.05478174232
0.05492373382
0.05504329162
0.05514380459
0.05522966195
0.05530052689
0.05535802866
0.05540355005
0.05543961136
0.05546768324
0.05548986223
0.05550707435
0.05552008949
0.05553257231
0.05552947517
0.02661192909
0.02847898499
0.03020743673
0.03185504644
0.0334898027
0.0349089922
0.03630554505
0.03768542757
0.03900527316
0.04034927297
0.0416231169
0.04279786067
0.04382070992
0.04484718206
0.04584542247
0.04678989795
0.04767247983
0.0485133299
0.04932815197
0.05010388191
0.05075404873
0.05135191303
0.05189827053
0.05241486119
0.05285958192
0.053241526
0.05358017355
0.05388394709
0.0541479076
0.05438666155
0.05459802657
0.05477399054
0.05491886951
0.05503767017
0.05513760312
0.05522207544
0.05529401506
0.05535212807
0.05539902691
0.05543593564
0.05546419755
0.05548546806
0.05550259915
0.05551606101
0.05552627754
0.0555367553
0.05553210519
0.02655290702
0.02845759952
0.03020399709
0.03183494246
0.03343584755
0.03493180816
0.03627992258
0.03764992475
0.03894488756
0.04023751541
0.04150252255
0.04271343516
0.04383177631
0.04482166909
0.04580473551
0.04672461616
0.0476334978
0.04846214737
0.04924987597
0.05002942137
0.05073238534
0.05133697378
0.05187237719
0.05236976775
0.05283306496
0.0532353924
0.05357933604
0.05387889642
0.05414327833
0.05437613567
0.05458183461
0.05476056865
0.05490985175
0.05503095546
0.05513094997
0.05521386414
0.05528465079
0.05534403512
0.0553921023
0.05543036767
0.05545985708
0.05548161566
0.05549782399
0.05551126707
0.05552183968
0.05553025788
0.05553940227
0.05553346557
0.02654673439
0.02838968423
0.0301756643
0.03183551588
0.03337524237
0.03490452003
0.03630168202
0.03762409572
0.03890580089
0.04017747852
0.04139171257
0.04260386801
0.04377316539
0.04483238258
0.04576823531
0.0466883398
0.04758351678
0.04842319408
0.04921056157
0.04994334312
0.05066313165
0.05130329628
0.05185636589
0.05233988234
0.052797982
0.05321006137
0.05357197519
0.05387316585
0.05413631475
0.05436884006
0.05457175774
0.05474498917
0.05489683297
0.05502250997
0.05512273722
0.05520540546
0.05527467748
0.0553336567
0.05538270247
0.05542240592
0.05545329592
0.05547686048
0.0554935639
0.05550610961
0.05551676183
0.05552542181
0.05553272101
0.05554082756
0.05553401638
0.0265411817
0.02837935296
0.03014902382
0.03179508381
0.03338145196
0.03484153505
0.03626766273
0.03764200322
0.03887970217
0.04013292084
0.04135688358
0.04249132101
0.04367137352
0.0447800663
0.04575970273
0.04665983044
0.04753319544
0.04837338159
0.04915683775
0.04989037956
0.0505790184
0.05123104654
0.05182048973
0.05232383507
0.05276444352
0.05317629327
0.05354558211
0.05385987735
0.05412677014
0.05435948671
0.05455960445
0.05473274269
0.05488131661
0.05500966567
0.05511204644
0.05519555052
0.05526437478
0.05532220516
0.05537146834
0.05541197167
0.05544489464
0.05546992383
0.05548865205
0.05550154865
0.05551139902
0.0555200841
0.05552753534
0.05553399672
0.05554132168
0.05553356454
0.02653868579
0.02836850722
0.03013732779
0.031770812
0.03332617529
0.03485308692
0.03620757602
0.03760267566
0.03889192587
0.04010636059
0.04133110573
0.04245626739
0.04356360754
0.0446809304
0.04571038995
0.04663157654
0.04749934631
0.04832118118
0.04909469993
0.04983740145
0.05052687145
0.05116049068
0.05175506213
0.05229267555
0.0527477792
0.05314180426
0.05350809153
0.05383748894
0.05411162337
0.0543462113
0.05454788478
0.05471896383
0.05486737677
0.05499390267
0.05509904308
0.05518393562
0.05525334242
0.05531055903
0.05535873616
0.05539934226
0.05543350851
0.055460849
0.05548144276
0.05549639795
0.05550663804
0.05551446883
0.05552185445
0.0555284431
0.0555343974
0.05554094407
0.05553224698
0.02659077092
0.02836472313
0.030121796
0.03175772789
0.03326948425
0.03474765823
0.03621942021
0.03751205902
0.038850545
0.0401114808
0.04130388156
0.04244988135
0.04352305821
0.0445835183
0.04561866234
0.04658849961
0.04748171019
0.048282825
0.04905364351
0.04978716885
0.05047604706
0.05110997649
0.05168810812
0.05223362067
0.05272106126
0.05312183222
0.05347355877
0.05380097889
0.05408878847
0.05432881264
0.05453399119
0.05470497392
0.05485192527
0.0549785774
0.05508287829
0.05517055004
0.05524076107
0.05529825938
0.05534547385
0.05538552757
0.05541986992
0.05544885651
0.05547182121
0.05548894384
0.05550124661
0.05550947735
0.05551596228
0.05552254575
0.05552867453
0.05553396883
0.0555396468
0.05553007389
0.02659128859
0.02842184607
0.03007380704
0.03173776299
0.03325367383
0.03466151572
0.03610304846
0.03752545398
0.03876209546
0.04004537276
0.04127663852
0.04242078434
0.04349377471
0.04451446143
0.04552612818
0.04649974174
0.04742813071
0.04826354522
0.0490131196
0.0497431619
0.05042472052
0.05106120883
0.05163023478
0.0521645786
0.05266134422
0.05309453464
0.05344934852
0.05376660273
0.05405354502
0.05430293386
0.05451441568
0.05468821233
0.05483425777
0.05496149778
0.05506635421
0.05515385663
0.05522685415
0.05528468307
0.05533202391
0.05537148798
0.05540517405
0.05543457405
0.05545930571
0.05547901942
0.05549357653
0.05550384571
0.05551073352
0.05551645665
0.05552252138
0.05552810774
0.05553265006
0.05553745573
0.05552712603
0.02659106643
0.02841845741
0.03008669059
0.03164549719
0.03322887944
0.03464242063
0.03602118103
0.03743152766
0.03877148412
0.03995890922
0.04118825681
0.0423629427
0.04346101343
0.04446546707
0.04545265608
0.04641583221
0.04734397914
0.04821088312
0.04897749093
0.0496899012
0.05036652071
0.05100603041
0.05158376165
0.05210856136
0.05259018435
0.05303886317
0.05341778326
0.0537384625
0.05401828969
0.05426863929
0.05448563896
0.05466668862
0.05481345068
0.05494067076
0.05504794548
0.05513628168
0.05520952583
0.05527013336
0.0553179519
0.0553572859
0.05539040848
0.05541916122
0.05544467951
0.05546620287
0.05548335143
0.05549597318
0.05550487969
0.05551105792
0.05551630397
0.05552188061
0.0555267008
0.05553048631
0.05553457985
0.05552373003
0.02659379209
0.02841486262
0.03011708145
0.03165628733
0.03317133467
0.03461284902
0.03599919688
0.0373528301
0.03867637439
0.0399622566
0.04110306747
0.04228179363
0.04339934628
0.04442834377
0.04540444376
0.04635668904
0.04726635381
0.0481345125
0.048939701
0.04965167832
0.05031617644
0.05093789148
0.05153547372
0.05206240549
0.0525442949
0.05297454899
0.05337197581
0.05370370765
0.05398822497
0.05423232132
0.05445258183
0.05463776289
0.05479010309
0.05491655793
0.05502677288
0.05511675262
0.05519096154
0.05525209299
0.05530270594
0.05534193379
0.05537521954
0.05540362137
0.05542873275
0.05545132562
0.05547044961
0.05548564556
0.05549677984
0.05550504668
0.05551068883
0.05551537388
0.05552031745
0.05552458132
0.05552769406
0.05553118992
0.05551984486
0.02654930524
0.02842014167
0.03010938093
0.03171803265
0.0331737465
0.03458948967
0.03596499294
0.03732831087
0.03859831445
0.03984240819
0.04110032616
0.04219265299
0.04332090447
0.04438487889
0.04536338484
0.04630854482
0.04719066319
0.04805957459
0.04886730388
0.04961322092
0.05028249821
0.05088842989
0.05146777885
0.05200656751
0.0524969861
0.05293033835
0.05331635007
0.05366116057
0.05395426234
0.05419861075
0.05441496141
0.05460499405
0.05476235477
0.05489147818
0.05500239959
0.05509464414
0.05517063205
0.05523228346
0.05528391251
0.0553259041
0.05535907165
0.05538767929
0.0554125603
0.05543497779
0.05545531592
0.05547260373
0.055486546
0.05549690024
0.05550449808
0.05550954177
0.05551374937
0.05551822349
0.05552194442
0.05552444171
0.05552732949
0.05551564153
0.02654754444
0.02837948262
0.03007558873
0.03170886042
0.03319382382
0.03461731834
0.03593781605
0.03728955457
0.03857150752
0.03976348437
0.04098196999
0.04218911317
0.04323308999
0.0443071671
0.0453204604
0.04626434486
0.04714103226
0.04798557458
0.04878602409
0.04954665753
0.0502329741
0.05086087109
0.05141826398
0.05193883484
0.05243643144
0.05288335355
0.05326962547
0.05361012993
0.05391454426
0.05416484977
0.05437905848
0.05456734714
0.05473117195
0.05486448178
0.05497573525
0.05506906942
0.05514662947
0.0552110739
0.0552629251
0.05530638884
0.05534227512
0.0553709555
0.055396127
0.05541839307
0.05543872529
0.05545745414
0.05547340745
0.05548642124
0.05549616685
0.05550311691
0.05550767252
0.05551156552
0.05551571961
0.05551896836
0.05552076888
0.05552309294
0.05551124531
0.02654260725
0.02837102062
0.03003906047
0.03163191088
0.03318645138
0.03459667209
0.03596285236
0.03722902777
0.03852855215
0.03973426561
0.04090281043
0.04209372255
0.04322371468
0.04422285274
0.0452405467
0.04620241932
0.04709466875
0.04793409533
0.04871254785
0.04946812099
0.05017256906
0.05080905431
0.05138677915
0.05188880576
0.05236860301
0.05282491679
0.05321820365
0.05356441095
0.05386258526
0.05412768803
0.05434526299
0.05453196407
0.05469449606
0.05483337589
0.05494677025
0.05504100027
0.05511957969
0.05518667599
0.055241137
0.05528473014
0.05532203769
0.05535328967
0.05537850289
0.05540139592
0.05542194104
0.05544080065
0.05545826933
0.05547340168
0.05548570619
0.05549461672
0.0555010124
0.05550532804
0.0555090259
0.05551285139
0.05551565902
0.05551674618
0.05551873008
0.05550690213
0.02653983189
0.02835657721
0.03002615551
0.03155691457
0.03310570909
0.0345600306
0.03593558458
0.03722081245
0.03843712786
0.03968739439
0.04087057524
0.04201507433
0.04313233746
0.04420592487
0.04516035668
0.04612343464
0.04704955251
0.04787268163
0.04865926024
0.04939651969
0.05010919462
0.05074692296
0.05133428469
0.05185434414
0.05231795245
0.05275763186
0.05316629678
0.05351430229
0.05381894895
0.05408121884
0.05431018612
0.05449829825
0.05465947451
0.05479754496
0.05491417228
0.05501075385
0.05509030682
0.05515904404
0.05521631307
0.05526225092
0.0552996986
0.05533238731
0.05536029012
0.05538314334
0.05540429199
0.05542364272
0.05544155192
0.05545830549
0.0554726084
0.05548397566
0.05549239356
0.05549845289
0.05550262933
0.0555061879
0.05550985222
0.05551212422
0.0555126036
0.05551447777
0.05550284135
0.02653939643
0.02830907064
0.03000363913
0.03154178764
0.03302940581
0.03450812726
0.03590090879
0.03718856678
0.03842556926
0.0396234859
0.0408203743
0.04197938148
0.04305341156
0.04410036909
0.04513714318
0.04604283077
0.04696789967
0.04782883456
0.04859791925
0.04933050794
0.05003805721
0.05068384588
0.05126720948
0.05180193312
0.0522812793
0.05270696751
0.05310097564
0.05346445076
0.05377347101
0.05403843665
0.05426846748
0.05446465981
0.05462607305
0.0547644764
0.05487994615
0.05497868885
0.05505995339
0.05512878205
0.05518823793
0.05523685511
0.05527648005
0.05530937717
0.05533853322
0.05536396892
0.05538540853
0.05540570285
0.05542421656
0.05544156517
0.05545757215
0.05547092163
0.055481581
0.05548958292
0.0554955532
0.05549963174
0.05550312939
0.05550661892
0.05550846348
0.05550856981
0.05551040051
0.05549890224
0.02652988075
0.02826309579
0.02995490143
0.03151403692
0.03301145421
0.0344634843
0.03584338904
0.03718614822
0.03838861525
0.03960284945
0.04076157817
0.04190518006
0.04301452496
0.04402015034
0.04503609767
0.04601945288
0.04687464983
0.04775704981
0.04855247293
0.04927200598
0.04997079487
0.05061346974
0.0512073547
0.0517452135
0.05222913748
0.05266869525
0.05304544881
0.05340066195
0.05372041957
0.05399114856
0.05422513668
0.05442381555
0.05459324272
0.05473145589
0.05484729118
0.05494495137
0.05502781965
0.05509734045
0.0551572618
0.05520840552
0.05525059747
0.05528528172
0.05531472439
0.05534165573
0.05536572021
0.05538618511
0.05540594739
0.0554240537
0.05544078346
0.05545594089
0.05546853816
0.05547881075
0.05548646341
0.05549233905
0.05549643945
0.05550002169
0.05550326072
0.05550475915
0.05550468009
0.05550656183
0.05549536615
0.0265309848
0.02828568383
0.02990435858
0.03150691375
0.03297811306
0.03444341177
0.03580070956
0.03711602969
0.03838629605
0.03956783796
0.04072928469
0.04182580575
0.04291847872
0.04397872483
0.04495530701
0.04593754468
0.04684763202
0.04766911755
0.04848195658
0.04923456462
0.04991444541
0.05054840969
0.05114547853
0.05168686394
0.05217456246
0.05261669249
0.05300599276
0.05334626023
0.0536608457
0.05394199926
0.0541768053
0.05438052743
0.05455130077
0.05469781548
0.0548146131
0.05491320241
0.05499501216
0.05506506327
0.0551247505
0.05517696985
0.05522185094
0.05525897298
0.05528996657
0.05531723123
0.05534286009
0.05536610229
0.05538620446
0.05540565068
0.05542318831
0.05543925194
0.0554536195
0.05546573729
0.05547560944
0.05548315493
0.05548891963
0.05549316944
0.05549675414
0.05549991707
0.05550122276
0.05550098739
0.05550299078
0.05549190048
0.02652372355
0.02829159919
0.0299178695
0.0314897473
0.03297172924
0.0343727232
0.03577739811
0.03704854508
0.03833708334
0.0395559936
0.0406976893
0.04178476439
0.0428414673
0.04390662487
0.04489491323
0.04584060958
0.04677097737
0.04762212261
0.04841024782
0.04915391227
0.04986370314
0.05049300786
0.05107225575
0.05161830987
0.05210893693
0.0525551251
0.05295474082
0.0533021559
0.05361131701
0.05388637685
0.05412910536
0.05433301628
0.05450601098
0.0546538199
0.05478080556
0.05488020146
0.05496471921
0.05503294377
0.05509271549
0.05514418918
0.05519020665
0.0552300272
0.05526307756
0.05529155047
0.05531778035
0.05534277513
0.05536546939
0.05538521547
0.05540428229
0.05542143242
0.05543701689
0.05545090322
0.05546264048
0.05547216759
0.05547954982
0.0554854036
0.05548980291
0.05549347089
0.05549655216
0.05549776259
0.05549751147
0.0554996094
0.05548859598
0.02652223389
0.02827220287
0.02992969202
0.03145658068
0.03295147868
0.03433155936
0.03570203647
0.03702206176
0.03827083191
0.0394837971
0.0406503751
0.04175325238
0.04279186275
0.0438248371
0.04482887285
0.04576190711
0.04667287835
0.04753874231
0.04835676938
0.04908510105
0.04978662209
0.05044018203
0.05100959868
0.05155438736
0.0520355916
0.05248500494
0.05289192217
0.0532517919
0.05356350121
0.05383572456
0.05407657499
0.05428365667
0.05446025542
0.0546083875
0.0547369893
0.0548465623
0.05493139498
0.05500301307
0.05506068006
0.05511202722
0.05515716107
0.05519830378
0.05523406662
0.05526438556
0.05529157315
0.05531718027
0.05534178382
0.0553640572
0.05538357592
0.05540235997
0.05541912059
0.05543425858
0.05544784365
0.05545913352
0.05546854045
0.0554757772
0.05548176107
0.05548635856
0.05549016923
0.05549327938
0.05549437989
0.05549415875
0.05549630805
0.05548517578
0.02652994477
0.02826648796
0.02990036009
0.03147140278
0.03291408966
0.03430772688
0.03565745179
0.03697426071
0.03824115419
0.03941706108
0.04056007604
0.04169733632
0.04276020272
0.04377417055
0.04475630811
0.04569894768
0.04659663346
0.04745663125