/*--------------------------------*- C++ -*----------------------------------*\
| =========                 |                                                 |
| \\      /  F ield         | OpenFOAM: The Open Source CFD Toolbox           |
|  \\    /   O peration     | Version:  v1612+-hyStrath                       |
|   \\  /    A nd           | Web:      www.OpenFOAM.com                      |
|    \\/     M anipulation  |                                                 |
\*---------------------------------------------------------------------------*/
FoamFile
{
    version     2.0;
    format      ascii;
    class       volScalarField;
    location    "0.015";
    object      Mach;
}
// * * * * * * * * * * * * * * * * * * * * * * * * * * * * * * * * * * * * * //

dimensions      [0 0 0 0 0 0 0];

internalField   nonuniform List<scalar> 
141100
(
0.0006605843146
0.001083935739
0.0003469925395
0.001810376031
0.001352914451
0.0004981128312
0.002562140134
0.002498176403
0.001494041845
0.0007899161524
0.003299761464
0.003555718108
0.003042763582
0.001967356735
0.001183130837
0.003921306708
0.004957636159
0.004810192158
0.004172468213
0.002846228882
0.001494085561
0.004215886274
0.006453246535
0.007064021506
0.006702685432
0.0057543002
0.003883757729
0.00212824401
0.004565869601
0.007501680552
0.009242701993
0.009510662575
0.008860700518
0.007464623422
0.004893286634
0.002816655667
0.005235712459
0.008684020152
0.01089533595
0.01232348354
0.01230731267
0.01097679179
0.009064700156
0.005962369232
0.003526871064
0.005815641434
0.01048491188
0.01278465192
0.01474329017
0.01559997668
0.01495836577
0.01312700154
0.01050424654
0.006989042368
0.004174461406
0.00649940511
0.0125070202
0.01558621469
0.01744497722
0.01885761908
0.01872839375
0.01739609666
0.01500061059
0.01186652074
0.008009384107
0.004881597908
0.007446333735
0.01448837344
0.01888399595
0.02102896431
0.02222786666
0.0227057549
0.02181923479
0.01976992612
0.01665865269
0.01307788153
0.008856266259
0.005736654744
0.00837746815
0.01667779278
0.02197422853
0.02531610579
0.02642258135
0.02686884343
0.02616709458
0.02453942548
0.02184467473
0.01830093776
0.0143338616
0.00972421454
0.006574725591
0.009441951952
0.01915167174
0.02502477042
0.02911691664
0.03119664095
0.03158507219
0.03098164378
0.02944908078
0.02691595223
0.02369681567
0.01965077208
0.0153985691
0.01061448659
0.007460400471
0.009595898692
0.02178552362
0.02856296169
0.0328138618
0.03575009235
0.03666820254
0.03613346738
0.03455692589
0.0323234331
0.02925366984
0.0253953145
0.02111005091
0.01635406128
0.01148690701
0.008356896542
0.01035420604
0.02302968775
0.03225639164
0.03691413696
0.04002080044
0.0415991831
0.04156389204
0.04007823905
0.03784658413
0.03478172981
0.031313648
0.02694447109
0.02224323768
0.01733240458
0.01236898806
0.009301496604
0.01093614159
0.02533791213
0.03512085578
0.04139333994
0.04475635841
0.0466896435
0.0468823521
0.04592106297
0.04367572936
0.04082560527
0.03720966866
0.0331895996
0.02849585701
0.0233755219
0.01828169913
0.01327686083
0.01026676765
0.01048056182
0.02721564378
0.03865314707
0.04577424086
0.04992364406
0.05198897595
0.05248731056
0.05157655873
0.04970566379
0.04687581108
0.04334184999
0.03931360013
0.03474083779
0.02977799517
0.02445775613
0.0192387098
0.01418363233
0.01130253728
0.01150482007
0.02667838459
0.04126518869
0.05062671509
0.05533811352
0.05776990989
0.05825578253
0.05749930771
0.05592738772
0.05320509292
0.04978238552
0.04580762855
0.04122993171
0.03631972303
0.03100031672
0.02551846933
0.02015951348
0.0151039277
0.01236511737
0.01196067809
0.02852112133
0.0415106414
0.05380053453
0.06073249169
0.06404092886
0.06452999252
0.06363978482
0.0620782416
0.05951404181
0.05616647811
0.05246876745
0.04786126885
0.04296055752
0.03774266331
0.03212350027
0.02650893982
0.02105936282
0.01610818788
0.01351192809
0.01324480575
0.03055491836
0.04427068097
0.05483882236
0.06488010707
0.0695417666
0.07141144816
0.07028702125
0.06851771732
0.06622611825
0.06289301161
0.05892343911
0.05469043335
0.04978883297
0.04454697593
0.03908341753
0.03330977782
0.02745052699
0.02200342414
0.01704772265
0.01473025369
0.01422579731
0.03379690015
0.04744898643
0.05835161026
0.06670431151
0.07391529132
0.07725769286
0.07760645471
0.07544612505
0.07297522356
0.06966807787
0.06597243393
0.06155136624
0.05677480255
0.0515435966
0.04604205467
0.04018799494
0.03429142746
0.02837349762
0.02293377718
0.01809158687
0.01594789576
0.01528866429
0.03643946762
0.05163474574
0.06255071376
0.07062335233
0.07670485783
0.08188144798
0.08389441955
0.08292240247
0.08013711883
0.07685434458
0.07288289175
0.06854954401
0.06371500498
0.05868859507
0.05318873013
0.04737470513
0.04135775188
0.03527733163
0.02937546331
0.02387259266
0.0191387132
0.01720257957
0.01706627427
0.03913454153
0.05557947449
0.06718102777
0.07550249934
0.08127777072
0.08541720983
0.08902730172
0.08979957401
0.08781669964
0.08419804125
0.08020737659
0.07593783647
0.07106256832
0.06573401637
0.06036495219
0.0546368677
0.0485745685
0.0424140456
0.0362035113
0.03024806003
0.02484003053
0.02020848355
0.01848802552
0.01793621194
0.04284451648
0.05953553677
0.07214359886
0.0809395474
0.08677449914
0.09049586153
0.09342302644
0.09528793215
0.09499539795
0.09210087182
0.08774664138
0.08330587541
0.078399262
0.07327193876
0.06752467887
0.06201622559
0.05594665699
0.04971140137
0.04344973476
0.03721108831
0.03116136132
0.02581805855
0.02132695731
0.01979129333
0.01680370251
0.0437714165
0.0641827129
0.0770516987
0.08648932143
0.0927372438
0.09649044813
0.09922501109
0.1001923116
0.1009479201
0.09955761353
0.09579312816
0.0909018723
0.0860293077
0.08079689674
0.07528434473
0.06919043469
0.0633421299
0.057141623
0.05078878769
0.04435810886
0.03812766312
0.03206848617
0.02682927128
0.02248817506
0.02110529425
0.01781076599
0.04288419039
0.06555862097
0.08204615475
0.09241982954
0.09908341883
0.1031812538
0.105276076
0.1064331903
0.1060900037
0.1058831235
0.1033957782
0.09909484086
0.09389022327
0.08838389157
0.08304215475
0.07695548872
0.07074040753
0.06457972405
0.05822467564
0.05181697654
0.04527284927
0.03905314825
0.03299648644
0.02787401146
0.0236689299
0.02245130428
0.01969332148
0.04607907278
0.06608884576
0.08447458276
0.09788018633
0.1052299699
0.1100762086
0.1121468829
0.1132051998
0.1128253554
0.1115068639
0.1100871546
0.1066675083
0.101933155
0.09625119272
0.09068074062
0.08494338325
0.07864548389
0.07212391217
0.06572356837
0.05921329939
0.05275375221
0.04611666049
0.03985206691
0.03394483365
0.0289306029
0.02489160309
0.02383124293
0.01950658956
0.0500308845
0.07041073374
0.0871946666
0.1003780498
0.1113667098
0.1165183321
0.1193988901
0.1202418432
0.1199789243
0.1186738037
0.1162229607
0.113790337
0.1097446498
0.1044930191
0.09851694481
0.09265714576
0.08656513657
0.0801043656
0.07340186544
0.06678295064
0.06017314678
0.05362273724
0.04706261604
0.04077795918
0.03489996561
0.03002123284
0.02615863539
0.0252125925
0.01814796021
0.05063024581
0.07531359297
0.09141781087
0.1045637155
0.1144104833
0.1226064198
0.1265601512
0.1277625808
0.127461963
0.1260571297
0.1237392418
0.1205344658
0.1170445107
0.1124917168
0.106758741
0.1005059932
0.09440433495
0.08805303348
0.08141581026
0.07463125911
0.0678677639
0.06110637993
0.05447210495
0.04786339254
0.04170355366
0.03588272701
0.03115113834
0.02746935903
0.02661944431
0.01925234835
0.04890431581
0.07718614204
0.09657384081
0.1098616025
0.1194057009
0.1265948659
0.1332762139
0.1352285885
0.1352097072
0.1338247548
0.131361866
0.128341503
0.1244319698
0.1199683465
0.1150308778
0.1088940248
0.1023087216
0.09597131362
0.08943566089
0.08252297937
0.07554949111
0.06869645115
0.06197234392
0.05531109062
0.04867544654
0.04252826175
0.03689204753
0.03228185835
0.02875254913
0.0280607858
0.02053755313
0.05119753773
0.07640854863
0.09986751918
0.115420509
0.125326034
0.1327152023
0.1375815558
0.1424716612
0.1430573701
0.1414916861
0.139363122
0.1360932315
0.1324150542
0.1277430705
0.1225674812
0.1171274673
0.1105909335
0.1039334185
0.09738204447
0.09068449454
0.08367426544
0.07664861451
0.06955406851
0.06279361583
0.05610400585
0.04960665919
0.04348004698
0.03791195707
0.03350276033
0.03011672878
0.02950186166
0.02152083746
0.05398230655
0.07939918638
0.100760113
0.1194192117
0.1319526575
0.1389322323
0.1441063295
0.1474875213
0.1502490896
0.1498861395
0.1471571226
0.1442218292
0.140499342
0.1360858078
0.1305892806
0.1249239325
0.1190788644
0.1121820239
0.1053954876
0.09865046728
0.09171636465
0.08467696171
0.07748988981
0.07037096747
0.06358631873
0.05689380272
0.05041391216
0.04444269241
0.03896820678
0.03466728139
0.03151975958
0.03097028396
0.02236792315
0.0564288383
0.08300396271
0.1036402265
0.12151874
0.1363846102
0.145741581
0.1510135314
0.1543208815
0.156134366
0.1573345392
0.155760013
0.1521709032
0.1484853441
0.1440961545
0.1393156941
0.1330390918
0.1269665699
0.1207351766
0.1136197418
0.1067285799
0.09980915286
0.09271290667
0.08563823352
0.07840386277
0.07119197752
0.0643626751
0.05770223105
0.05126073922
0.04532465275
0.04006721297
0.03591256935
0.03290096381
0.03247332411
0.02387741505
0.05847837087
0.08647225517
0.1075426661
0.1249130612
0.138733902
0.1511686141
0.1580767013
0.1614852926
0.1633257008
0.1638447372
0.1634694117
0.1608309934
0.1568794588
0.1524132106
0.1474541441
0.141934606
0.135308195
0.1287883236
0.1222156665
0.1150125577
0.1080145556
0.1008673578
0.09374049062
0.08644814056
0.0792522703
0.07198073535
0.06513220081
0.05848821368
0.05222363079
0.04636673901
0.04116646355
0.03717191593
0.03438073901
0.03399898686
0.02459689612
0.06166009604
0.08934192519
0.1123642163
0.1292619883
0.1434356034
0.1542472333
0.1638288848
0.1687611704
0.1706798597
0.1711768716
0.1704634143
0.168770877
0.1654100888
0.1609596846
0.1558554293
0.1505399186
0.1443956858
0.1373727421
0.1304629564
0.1233780301
0.1161211188
0.1091490074
0.1018378421
0.09465232019
0.08724477434
0.07995975013
0.07274118724
0.06589667292
0.05929455843
0.05307280375
0.04732223001
0.04235366391
0.03843478309
0.03583399559
0.03555730864
0.0259186144
0.0637285218
0.09325021687
0.1156359742
0.134908199
0.1482788375
0.1597488589
0.1675564679
0.1746789414
0.1780419332
0.1785581603
0.1780829383
0.1761234192
0.1735655616
0.1695871429
0.1644700397
0.1589442474
0.1530115547
0.146609956
0.1392665836
0.1320162709
0.1246396991
0.1172098927
0.1100719774
0.1027546031
0.09548117672
0.08813342993
0.08078453682
0.07350826914
0.06667662201
0.06013295824
0.05405675944
0.04836512073
0.04348498809
0.03980890747
0.03734541481
0.03714834754
0.02658992852
0.06674370281
0.09655746781
0.1197397345
0.137805155
0.1541073396
0.1645209572
0.1736609223
0.1789961933
0.1843967921
0.1864617539
0.1856157332
0.1841854581
0.181241343
0.1779419914
0.1731842
0.1675673341
0.1618945676
0.1553169265
0.148585357
0.1410091955
0.1332763771
0.1258007766
0.1183545103
0.1110818135
0.1036431045
0.09627955085
0.088819953
0.08153813869
0.07429375092
0.06748106806
0.0609747105
0.05501033446
0.04946440651
0.04470595117
0.04114918584
0.03886697217
0.0387642594
0.02524286726
0.06725053552
0.1007072236
0.1240163326
0.1420433163
0.1568825973
0.1706445424
0.1788157865
0.1855316136
0.1893125856
0.1931916051
0.1937119288
0.191882241
0.1893882095
0.1859094792
0.1817156653
0.1764672334
0.1702786442
0.1643760267
0.1574238382
0.1503405058
0.1425569882
0.1344783441
0.1267735763
0.119260344
0.1120109692
0.1044960976
0.09709067007
0.08965660061
0.08229757045
0.07510115319
0.06829435713
0.06185309281
0.05599382626
0.05057453591
0.04597985542
0.04253445855
0.04043077089
0.04039993266
0.02639106611
0.06533094795
0.1009457315
0.1290594111
0.1470579631
0.1618000372
0.1741902037
0.1852131653
0.191421724
0.1962143548
0.1987195114
0.2007669821
0.1999543698
0.197567339
0.1941815366
0.1898789537
0.1851513977
0.1794255047
0.1727616389
0.1665376951
0.1593530022
0.1519801109
0.1438471044
0.1357233883
0.1278730626
0.1201822875
0.1127821349
0.1053226544
0.09776518059
0.09032892659
0.08306434396
0.07591717267
0.06913716721
0.0627688258
0.05703281058
0.05177301375
0.04726660732
0.04396288071
0.04203273785
0.04207070516
0.02794284137
0.06787206812
0.099981072
0.1301563733
0.1528041796
0.1674425971
0.1796658052
0.1891143188
0.1980152731
0.202389393
0.2059319881
0.2068657532
0.2072817766
0.2055947205
0.2022910971
0.1984379872
0.1934632737
0.1882624109
0.1819567352
0.1749819341
0.168314623
0.1608255982
0.1534053249
0.1450633654
0.136659479
0.1288476324
0.1211759892
0.1136709752
0.1061499411
0.09860474877
0.09113285667
0.08388022788
0.0767524861
0.07001542938
0.06372640417
0.05802598094
0.05295892542
0.04855751993
0.04543362887
0.0436377739
0.04378360084
0.02826234083
0.07043100806
0.1032038784
0.1300949515
0.1554550924
0.1737595366
0.185856977
0.1950498198
0.2020075054
0.2093748928
0.2121774707
0.2142997163
0.2138908641
0.2131351043
0.2107143167
0.2066582146
0.2020137669
0.1965827208
0.1909318977
0.1841278272
0.1770965144
0.1700994598
0.1622914045
0.1545359133
0.146163414
0.137745779
0.1296642963
0.1219722253
0.1145188246
0.106929186
0.09932550765
0.09193235117
0.08462274021
0.07761242025
0.07093463425
0.06474550397
0.05918379177
0.05419371598
0.0499301242
0.04691329056
0.04528760142
0.04552413687
0.02925779724
0.07290186602
0.1053367889
0.1337377414
0.1561849987
0.1778887749
0.192631226
0.2016847384
0.208310702
0.2136999171
0.2191664153
0.2208075159
0.221484099
0.2201920973
0.218429998
0.2151288263
0.2105313145
0.2052990488
0.1994198214
0.1931366406
0.1860962379
0.17878485
0.1716159076
0.1636935428
0.1557353088
0.1471858679
0.1386987178
0.1306084265
0.1227909274
0.1152585627
0.1077820595
0.1001055337
0.09277779345
0.0855109005
0.07848358079
0.07186752938
0.06572031839
0.06027721576
0.05542633257
0.05134654
0.04844112599
0.04698382953
0.04729814653
0.03015432044
0.07547717287
0.108933574
0.1371752902
0.160245984
0.1796320728
0.196984309
0.208766368
0.2153034199
0.2202817364
0.2244110868
0.2278550413
0.2284356351
0.2279562352
0.2258744236
0.2229469437
0.2190467807
0.2138363658
0.2079893314
0.2019308082
0.195131705
0.1878842153
0.1803630361
0.1728515203
0.1647436048
0.1566403363
0.1481631756
0.1395789464
0.1314263371
0.123710543
0.116056372
0.1086031901
0.1010049394
0.09356870079
0.08641403117
0.07947174574
0.07292273428
0.06682398065
0.06148529354
0.05671292186
0.0527734872
0.05001849717
0.04873032212
0.04912238372
0.02861056548
0.07626213244
0.1126565549
0.1413227926
0.1648302646
0.1833537626
0.1998154901
0.2132750093
0.222548885
0.2275665475
0.2311905506
0.2337219504
0.2355036301
0.2349961177
0.2338157764
0.2307067175
0.2270103501
0.2222737656
0.2167831607
0.2105624879
0.2039943085
0.1969534728
0.1894384557
0.1819178031
0.1741571497
0.1658090488
0.1576783375
0.1490912043
0.1404931023
0.1322550004
0.1244704728
0.1168695436
0.1093537344
0.1018526246
0.09440783234
0.08728128711
0.08036350585
0.07390975251
0.06792720993
0.062732419
0.05809574681
0.05425610301
0.05164764012
0.05052804006
0.0509931312
0.02958325273
0.07526842407
0.114004493
0.1450626789
0.1697757339
0.1879289459
0.203718495
0.2168697429
0.2279957995
0.2348511399
0.2387165336
0.2406391741
0.2417857744
0.2423553983
0.2409255993
0.2388307137
0.2349316926
0.2304738642
0.2252418481
0.2192818209
0.2129321965
0.2059789977
0.1985082773
0.1908639613
0.1830958119
0.1752506791
0.1668351931
0.1585065503
0.1499819624
0.141256164
0.1330966211
0.1252662996
0.1176572599
0.1101788698
0.1026890156
0.09534567321
0.08821955535
0.08143520596
0.07497170635
0.06910561126
0.06397994973
0.05948980719
0.05579080208
0.05333019365
0.05234101925
0.05292224567
0.03049900736
0.0775365264
0.1154433395
0.1476727894
0.1742210401
0.1925803395
0.207942403
0.2216481042
0.2321545283
0.2409197938
0.2456786294
0.2483286967
0.2487987119
0.2490914794
0.2480054504
0.2461361302
0.2430829017
0.238795389
0.2334098406
0.2278269303
0.2215189461
0.2148035324
0.2076665807
0.1998294993
0.1921162772
0.184368814
0.1762672613
0.1677928922
0.1593813146
0.1509523376
0.1421607217
0.1339180419
0.1261748007
0.1185222161
0.1110151971
0.1035622702
0.09627035463
0.08916330881
0.08244055009
0.07610999383
0.07033563019
0.0652911753
0.06093733698
0.05737954478
0.0550314194
0.05421322852
0.05492048267
0.02885315686
0.07934314564
0.1186209447
0.1502312833
0.1776215462
0.198439549
0.2130000278
0.2261262059
0.2370328159
0.2457101674
0.2522382774
0.2551400702
0.2565363764
0.2561603445
0.255607685
0.2531482717
0.2506854922
0.2468955201
0.2419260094
0.2361533255
0.2299262633
0.2235403272
0.216565867
0.2091867841
0.2011600485
0.1932726121
0.1853532412
0.1772418185
0.168805405
0.1602639155
0.1517292312
0.1429903843
0.1347598289
0.126965604
0.1193985488
0.1118830231
0.1044700792
0.09725700416
0.09022238696
0.08350870031
0.07726321676
0.07159030041
0.06661924955
0.06243792457
0.05898808477
0.05679193222
0.05618825939
0.05695565029
0.02947775572
0.07812641223
0.120922618
0.1542060715
0.1803161579
0.2034037843
0.2195024436
0.2316230385
0.2418606396
0.2508945667
0.2572429183
0.2620129722
0.2637899171
0.2639174612
0.2626894647
0.2609918434
0.2579103767
0.2544861032
0.2503191791
0.2447423389
0.2384728642
0.2319200856
0.2252770386
0.2181574302
0.2104645775
0.2022234039
0.1943419303
0.186409605
0.1780593031
0.1695903264
0.1611513158
0.1525695099
0.1438363765
0.135627574
0.1278042205
0.1201951648
0.1127852464
0.1054150696
0.09821513494
0.09132104476
0.08470384064
0.07853817023
0.07286936497
0.06804485667
0.06399358711
0.06065501877
0.05865322956
0.05818334676
0.05906135412
0.03014499179
0.07964406466
0.1221554717
0.1569438
0.1851053705
0.206719924
0.2251301326
0.2385782333
0.2477976655
0.256086534
0.2632594629
0.2676003375
0.2707452822
0.2713003468
0.2702711397
0.2685841271
0.2658631186
0.2619721835
0.257942519
0.2531721552
0.2473370233
0.2404215307
0.2336197322
0.2268233513
0.2196715692
0.2116896964
0.2034409735
0.1953375927
0.187341805
0.1790636684
0.1705130996
0.1620221476
0.1534289063
0.1447107782
0.1365123528
0.1287758275
0.1211795248
0.1137264523
0.1064009997
0.09922547112
0.09240049726
0.08582791551
0.07976184958
0.07420015508
0.06951337902
0.06556769105
0.06238561511
0.06053780079
0.06024829789
0.06122858715
0.03057684973
0.08145674932
0.1244176576
0.1593374665
0.1881983058
0.21208434
0.2291493345
0.2447164559
0.2549878712
0.2624545522
0.2690494576
0.2737792027
0.2770041839
0.2785687746
0.277969567
0.2758524334
0.273543094
0.2702984587
0.2654703285
0.2608383456
0.2556575921
0.2494534747
0.2421585579
0.235139139
0.2281576245
0.2209218652
0.212763165
0.2044383861
0.1963038683
0.1882565589
0.1798994812
0.171379181
0.1629046494
0.1543126308
0.1455974929
0.1374335289
0.1296341837
0.1220515492
0.1147068546
0.1074111181
0.1003489897
0.09355350541
0.08712111877
0.08105820884
0.07561356119
0.07103941744
0.06720511902
0.06420378002
0.06249206574
0.06237623014
0.06343297702
0.03272822909
0.0825833221
0.1272847502
0.1623011211
0.1907536854
0.214982066
0.2351849447
0.2488871623
0.2614890153
0.2696788882
0.275827737
0.2802565135
0.2833365967
0.2852287179
0.2850857539
0.2836363817
0.2811569227
0.2779251109
0.2739402344
0.2686981822
0.2634384855
0.2577493692
0.2513018493
0.2437418301
0.2365357174
0.2294248166
0.2220688005
0.2138428432
0.2054055016
0.1972605958
0.1891797629
0.1807786007
0.1722756699
0.1638103784
0.1552062083
0.1465257273
0.1383942277
0.1306877172
0.1230768063
0.115705839
0.1084659496
0.101473147
0.09472079377
0.08836300672
0.08243758268
0.0770826732
0.07259125006
0.06890046093
0.06603294844
0.06451056744
0.06452335951
0.06570314304
0.03340954057
0.08617098731
0.1278980157
0.1659716171
0.1943621037
0.2174484316
0.2382585817
0.2552573187
0.2662890566
0.2761989549
0.2826174555
0.2873829817
0.2898911209
0.2917177079
0.2924904566
0.2909652192
0.2887146685
0.2855045596
0.2817740146
0.2771879888
0.2713603922
0.2657415985
0.2596169064
0.2528033434
0.245058179
0.2377653151
0.2305393778
0.2230629131
0.2148145483
0.206289445
0.1982146098
0.1900932068
0.1816285075
0.1732043492
0.1647269229
0.1561414358
0.1474963119
0.1394010749
0.1316476899
0.1241231462
0.1167481015
0.1095616218
0.1026626456
0.09600080833
0.08967274972
0.08387251728
0.07857737311
0.07420178171
0.07066346562
0.0679813515
0.06655265551
0.06677296628
0.06804323311
0.03443166651
0.08781130491
0.1312685616
0.166088531
0.1985836167
0.2216059274
0.2413834162
0.2593526145
0.2729990055
0.2816432654
0.2894201469
0.2938483411
0.2972833932
0.2981903303
0.299026274
0.2986266669
0.2962995858
0.2932847751
0.2893239033
0.2852043967
0.2799921948
0.2737312581
0.2675852271
0.26125573
0.2542432071
0.2463855056
0.2388572758
0.2316524632
0.2240333231
0.2157890607
0.2072692495
0.1991508248
0.1910003165
0.1826152042
0.1741444949
0.1656886795
0.1571200429
0.1485156808
0.1404474896
0.1326649752
0.1250995448
0.1178279028
0.110700475
0.1038369883
0.0973262005
0.09109427382
0.0853350019
0.08013000495
0.07587483714
0.07245559912
0.06993405533
0.06869910687
0.06907695701
0.07040310689
0.0352131125
0.09033061489
0.134662426
0.1700338341
0.2004415937
0.226285831
0.2460563392
0.2631734159
0.2776234937
0.2886328484
0.2951346692
0.3009878465
0.3038405498
0.3057489094
0.3056583042
0.3056064423
0.3041011248
0.3007678592
0.2971048508
0.2925613557
0.2879385966
0.282340953
0.2757111695
0.2691664257
0.2626223689
0.2553545802
0.2474337687
0.2398815
0.2326313172
0.224902369
0.2166388653
0.2082018881
0.2000748851
0.1919326686
0.1836080292
0.1751273944
0.1666874243
0.1581487459
0.1495845405
0.1415231738
0.1338202907
0.126225636
0.1189144828
0.111885424
0.105069629
0.09864658338
0.09255953122
0.08685557206
0.08174193834
0.07760681085
0.07437791425
0.07198840468
0.07090564683
0.0713871925
0.07277995746
0.03371668746
0.09230704422
0.1383668618
0.1753725934
0.2045477699
0.2299642368
0.2512020762
0.2683377309
0.2820753291
0.2934561853
0.3025563484
0.3072173775
0.3112014022
0.3127346419
0.3133140616
0.3124039384
0.3112160933
0.309007077
0.3047394252
0.3004016651
0.2956054246
0.2903682563
0.2843717925
0.2773756144
0.270629311
0.2638297707
0.256523316
0.2484249862
0.2408433753
0.2335325743
0.2258298043
0.2175211944
0.2091765598
0.201018186
0.1929127044
0.1844991724
0.1761617156
0.1676933602
0.159229428
0.1506775448
0.1426426325
0.1348881604
0.1273820991
0.1201168869
0.1130996757
0.1064133183
0.1000309978
0.09399625753
0.08843390844
0.08341380573
0.07937034388
0.07630684659
0.07410566153
0.07312649694
0.07373776342
0.07521217667
0.03425144551
0.09169241877
0.1400864771
0.1799244524
0.2099143196
0.2349855417
0.2555837721
0.273944956
0.2876682974
0.2984538202
0.3077385691
0.314630316
0.3178526235
0.3201487041
0.3204080515
0.3201134046
0.3181797811
0.3162594397
0.3130014411
0.3081777017
0.3031673189
0.2980629251
0.2924598535
0.2860697585
0.2788030531
0.2718526447
0.2648395563
0.25737246
0.2493481684
0.2417269097
0.234395864
0.226662019
0.2183951204
0.2100609991
0.2020151117
0.1938969153
0.1855665333
0.177270116
0.1688419886
0.1603372879
0.1518247934
0.1438089775
0.1360104329
0.1285096759
0.1213488748
0.1143645598
0.107765691
0.1015343558
0.09559208392
0.09007348575
0.0851508541
0.08123681848
0.07832943919
0.07624266973
0.0753969701
0.07616528683
0.07766378033
0.03482667345
0.09309402737
0.141123919
0.1811748164
0.21504913
0.2399372668
0.2610804452
0.2782281652
0.29363041
0.3044043793
0.3132582163
0.3207110152
0.3253512413
0.3272148325
0.3282269891
0.3273015863
0.3259068047
0.3233489741
0.3205341733
0.3166609062
0.3111916359
0.305683149
0.3001724838
0.2942052648
0.2875052155
0.2800479549
0.2728967669
0.265852176
0.258263107
0.2501779635
0.2425659072
0.2352180497
0.2274996025
0.2192309397
0.2109916987
0.2030057996
0.1948984769
0.1866349913
0.1783421273
0.1699768349
0.1615014292
0.1530138156
0.1450385712
0.1372547113
0.1296923145
0.1225650897
0.1156752882
0.1091715532
0.1029875657
0.09714726013
0.09177424635
0.08691779046
0.08312882436
0.08040840721
0.07843678884
0.07775320734
0.07861752034
0.08012502215
0.03532281988
0.09456023821
0.143309665
0.1821519298
0.2170610758
0.2449141232
0.2664589539
0.2837512652
0.2978575962
0.3105752902
0.3195150423
0.3267309508
0.3319539124
0.3347883668
0.3353392146
0.3351355562
0.3334953975
0.3309719907
0.3276937077
0.3243422315
0.3196520011
0.3136045022
0.3077906606
0.3019135618
0.2956778697
0.2887154366
0.2811579
0.273826396
0.2666206712
0.2590861907
0.2509566002
0.2433610748
0.2360194591
0.22834682
0.2202041553
0.2120524517
0.2039986237
0.1959561481
0.1877460997
0.1794952284
0.1711634094
0.1627161317
0.1542151368
0.1462034794
0.1385328752
0.1309885113
0.1238545783
0.1170392763
0.1106311348
0.1046034777
0.09882795427
0.09350506335
0.08874653924
0.08512040552
0.08249199464
0.08069468834
0.08014585285
0.08105031577
0.08258729704
0.03592168981
0.0947011257
0.1453834867
0.1851197986
0.2189742782
0.2484624285
0.2717591484
0.2891809797
0.3036336123
0.3157411541
0.3258318059
0.3332476476
0.3384050801
0.3416614447
0.3431976137
0.3426385854
0.3412832127
0.3386762639
0.3355513259
0.3314224407
0.327615794
0.3223347729
0.3157766002
0.3095284431
0.3033674732
0.2969002175
0.2896827277
0.2819739434
0.2746681671
0.2673328869
0.25976576
0.2516929216
0.2441265561
0.2367931846
0.229073295
0.2210086181
0.212967055
0.2050386294
0.1970472334
0.1888817221
0.180700927
0.1724087431
0.1639642019
0.1555650281
0.1475433912
0.1397937857
0.1322836873
0.1251958197
0.1184555065
0.1121484422
0.1061811189
0.1005549999
0.09529940187
0.09067531275
0.08717126644
0.08468693074
0.08301905615
0.08252987814
0.08350832975
0.08507331179
0.03660278366
0.09481164696
0.1462728765
0.1877016991
0.2226157811
0.2519094231
0.2759860459
0.2957515155
0.3094726805
0.3216728144
0.3315832588
0.339408089
0.3450981061
0.3484746035
0.3503332888
0.3503286127
0.3489643983
0.346745762
0.3432163751
0.3393511002
0.3348747466
0.3303630161
0.3244638059
0.3176720524
0.3110161048
0.3045592893
0.2978949371
0.2906172439
0.2828030598
0.2754070002
0.2680707358
0.2604300945
0.2523888177
0.2448655139
0.2375356887
0.2299683133
0.221958019
0.2139183238
0.2061010901
0.1981475305
0.1900655262
0.1819432733
0.1737197428
0.165251913
0.1568573226
0.1488978284
0.1411214422
0.1336309203
0.1265862814
0.1199275435
0.1137200966
0.1078263282
0.1022982223
0.09719175934
0.09266790014
0.0892224459
0.0869127195
0.0853839663
0.08494750222
0.0859942285
0.0875940521
0.03672626239
0.09783284762
0.1469901184
0.1909207058
0.2257106792
0.256226045
0.2804565006
0.3002797451
0.3162633653
0.3279499331
0.3378673676
0.345520092
0.3512851984
0.355240951
0.3574738556
0.358081775
0.3566001946
0.3545743085
0.3511628987
0.3471887683
0.3428256984
0.3376619747
0.3327188778
0.3262604857
0.3191242448
0.3122768697
0.3055221544
0.2987168893
0.2912828067
0.2835440792
0.2760904712
0.2687107944
0.2610238109
0.2530102563
0.2455551275
0.2382722762
0.2307216841
0.2229010924
0.2149645545
0.2071505306
0.1992841734
0.1912886733
0.1831849605
0.1749925385
0.1665703732
0.1582569201
0.1502825907
0.1424681773
0.1350350042
0.1279990585
0.1214550346
0.115324689
0.1095790918
0.1041170386
0.09914786227
0.09468949993
0.09139815786
0.08919461123
0.08774418091
0.08740107386
0.08851842304
0.09015843163
0.03796681227
0.09903696701
0.1508729753
0.1939058353
0.2298962517
0.2591015225
0.2853469343
0.3048150995
0.3218380774
0.3348522914
0.3443209216
0.3517835693
0.3577076797
0.3620830595
0.3641144243
0.3653681016
0.3646703011
0.3620264383
0.3594799404
0.3551911549
0.3505359329
0.3457423288
0.3401655735
0.3346475111
0.3278705824
0.320446068
0.3132968861
0.306251492
0.299390924
0.291839698
0.2840751396
0.2767265834
0.2693077731
0.2616900502
0.2537230844
0.2461877145
0.2389913206
0.2314906943
0.2237689828
0.2159634908
0.208179332
0.2004524266
0.1925270292
0.1845514464
0.1763499831
0.1680169371
0.1596724585
0.1517310207
0.1439699447
0.1365084126
0.1295284371
0.1230124206
0.1169870986
0.111350397
0.1060400813
0.1011325262
0.0967728235
0.09359347784
0.0915390588
0.09018509243
0.08989773513
0.09108853669
0.09279991944
0.03763182441
0.1015233726
0.1534275082
0.1968656195
0.2338401271
0.263217502
0.2887883771
0.3102151661
0.3269842106
0.3405472161
0.3511119234
0.3587034174
0.3642794715
0.3687158835
0.3713453585
0.3720763877
0.3723667421
0.3702592017
0.3669332547
0.3634719322
0.3586827242
0.3534829337
0.3481609397
0.3423566452
0.3362352005
0.3291803342
0.3215017755
0.3141545084
0.3069188366
0.2999245422
0.2924494193
0.2846754393
0.2773428116
0.2698723651
0.2621748699
0.2542758126
0.2468908348
0.239695994
0.2323337073
0.2246607308
0.2169886115
0.2093136306
0.2016245846
0.1938079731
0.1858897385
0.1777443488
0.1694556035
0.1610959042
0.1531518574
0.1453912091
0.1379744617
0.1310985946
0.1246271769
0.118733789
0.113181869
0.1079802972
0.1031800168
0.09891351206
0.0958429176
0.0938880357
0.09266557573
0.09244505028
0.0937188513
0.09549208958
0.03914072506
0.1015160338
0.1567084327
0.2004406198
0.2371618307
0.2679039
0.2931653746
0.3149656033
0.3328709622
0.3462524086
0.3568131845
0.3654089959
0.3712154284
0.3755581225
0.3785691592
0.3794970904
0.379035126
0.3782904842
0.3752134107
0.3711128053
0.3670171926
0.3615186038
0.3558904597
0.3502403024
0.3440662559
0.3376004753
0.3303346619
0.322361172
0.3147653305
0.3074821081
0.3003774247
0.292861109
0.2851977368
0.2778083827
0.2704033143
0.2627829229
0.2548433382
0.2475527561
0.2404020342
0.2331186279
0.2255029582
0.2179309436
0.2104371132
0.2028241876
0.1950984991
0.1872600176
0.179169102
0.1709583676
0.1626572433
0.1547199931
0.1469683048
0.1395093511
0.132674847
0.1262955508
0.120460792
0.1151010365
0.1099858601
0.105289378
0.1011134082
0.09814812471
0.0963468499
0.09519156176
0.09505415291
0.09641659353
0.09824326115
0.03912829844
0.1032097568
0.1559908573
0.2043264004
0.2415730446
0.2716881578
0.2978230769
0.3197610426
0.3377037085
0.3525395749
0.3629856506
0.3715272408
0.3783982778
0.3825427452
0.3854034118
0.3868460554
0.3867764702
0.3854245051
0.3834121585
0.3795610069
0.3746157465
0.3700181657
0.3640244942
0.357914815
0.3521242879
0.3455072376
0.3387167694
0.3311374501
0.3230605782
0.3152422363
0.3078285128
0.3007661893
0.2932306379
0.2856634369
0.2783847398
0.2709050367
0.2632379582
0.2553667539
0.2481092667
0.2410956124
0.2338838014
0.2264187726
0.2188805272
0.2114951408
0.2040299973