/*--------------------------------*- C++ -*----------------------------------*\
| =========                 |                                                 |
| \\      /  F ield         | OpenFOAM: The Open Source CFD Toolbox           |
|  \\    /   O peration     | Version:  v1612+-hyStrath                       |
|   \\  /    A nd           | Web:      www.OpenFOAM.com                      |
|    \\/     M anipulation  |                                                 |
\*---------------------------------------------------------------------------*/
FoamFile
{
    version     2.0;
    format      ascii;
    class       volScalarField;
    location    "0.015";
    object      p;
}
// * * * * * * * * * * * * * * * * * * * * * * * * * * * * * * * * * * * * * //

dimensions      [1 -1 -2 0 0 0 0];

internalField   nonuniform List<scalar> 
141100
(
8590.295843
8595.123231
8608.944463
8589.849631
8614.588014
8603.51374
8589.443128
8609.603012
8611.528617
8602.860011
8587.35887
8607.974837
8607.448619
8606.94364
8598.297559
8583.674035
8606.030202
8603.640973
8600.751455
8605.196376
8595.841882
8579.063756
8602.471704
8599.242471
8600.607051
8599.564197
8601.690005
8595.808785
8573.656655
8598.012084
8595.263359
8597.73733
8598.272294
8596.637751
8601.162799
8593.512285
8568.105058
8593.078783
8592.244772
8593.955404
8595.216798
8594.97239
8595.142228
8598.866737
8592.722086
8562.940366
8587.538698
8588.86276
8589.675909
8591.336753
8592.245575
8594.424531
8593.183726
8598.628797
8590.981957
8558.079375
8582.965727
8583.081487
8583.975198
8586.994226
8588.335661
8591.448976
8592.084999
8592.925593
8596.871438
8590.422615
8553.499481
8578.032484
8575.59806
8578.321424
8581.925414
8583.836867
8587.564182
8589.347482
8591.471473
8591.281994
8596.223765
8589.628315
8548.170392
8573.276448
8570.618304
8573.967571
8576.144542
8579.28256
8583.174654
8585.426628
8588.489552
8590.113641
8591.13473
8595.70606
8588.555366
8540.221061
8567.931333
8566.252854
8568.958613
8569.611128
8573.635605
8577.651706
8580.940569
8584.576763
8587.616359
8589.775444
8589.744556
8594.722657
8588.210808
8529.315298
8560.127925
8558.992513
8562.736923
8564.444223
8568.31892
8571.973784
8575.790094
8580.241287
8583.729367
8586.59919
8588.886764
8589.095878
8594.554049
8587.36994
8517.700367
8549.312237
8551.059194
8556.750565
8560.28901
8563.162461
8566.1688
8570.167611
8575.594877
8578.95897
8582.773997
8586.065171
8587.804978
8588.896692
8593.820896
8587.038165
8503.476992
8538.312431
8541.916525
8548.699276
8554.189867
8557.714071
8560.832399
8565.206486
8569.841997
8573.931723
8578.583383
8582.043383
8585.158152
8587.644553
8588.189586
8593.768105
8586.208399
8483.302353
8524.195529
8530.129586
8538.402733
8546.042478
8551.711757
8555.755185
8559.825342
8563.880551
8568.382027
8573.765295
8577.700359
8581.219152
8584.654161
8586.87501
8588.11747
8592.868607
8586.039335
8464.304886
8504.037809
8514.60467
8528.188761
8535.554805
8543.473208
8549.527506
8553.781801
8558.360619
8562.875707
8567.816126
8572.59485
8576.731763
8580.807623
8583.931383
8586.798003
8587.2214
8592.887247
8585.523849
8449.63476
8483.99302
8496.936931
8515.098747
8523.535137
8532.97688
8541.197232
8547.488581
8553.241573
8557.231536
8562.105732
8567.258181
8571.843334
8576.460253
8580.10106
8583.651116
8585.871939
8587.154405
8592.552761
8585.41689
8432.378706
8470.767176
8478.892329
8494.465401
8509.502657
8521.76048
8530.648342
8539.096888
8546.744545
8551.493944
8556.526829
8561.68253
8566.218802
8571.629572
8575.692035
8579.591746
8583.011314
8585.714487
8587.091076
8592.238924
8584.964705
8415.334166
8453.729369
8462.9487
8473.878702
8490.95093
8507.469486
8519.455719
8528.684549
8538.282772
8545.119939
8550.579306
8555.815075
8560.894361
8566.127962
8570.899076
8575.533069
8579.038277
8582.68381
8585.492465
8586.509227
8592.175487
8584.726907
8400.245198
8436.414061
8444.319259
8461.184542
8471.782379
8487.082095
8505.333912
8517.705751
8527.38535
8536.700178
8543.994331
8549.86392
8554.941968
8560.398035
8565.389902
8570.809446
8574.575641
8578.748548
8582.193983
8585.07193
8586.505995
8591.890093
8584.450525
8384.323267
8421.707773
8427.085954
8443.977867
8456.837554
8467.832415
8486.33622
8504.215249
8516.402898
8526.161789
8535.377929
8542.577151
8548.807065
8554.527719
8559.794395
8565.254786
8569.861741
8574.450484
8578.263903
8581.929642
8584.837116
8586.245696
8591.641494
8584.336485
8363.145457
8404.234484
8412.084357
8426.786584
8439.470607
8454.678595
8467.491615
8484.754063
8502.602286
8515.332135
8524.791002
8533.966884
8542.093018
8547.895439
8553.797411
8559.166483
8564.633825
8569.759939
8573.877571
8577.903907
8581.670454
8584.543454
8586.015626
8591.545079
8584.078679
8334.660606
8380.547948
8395.418647
8411.402812
8422.645273
8438.520446
8453.206689
8465.835213
8482.681526
8501.517598
8514.006396
8523.563025
8533.106047
8540.528553
8547.229652
8553.173679
8558.920558
8564.282917
8569.230803
8573.712477
8577.560433
8581.319976
8584.219289
8585.955651
8591.252257
8583.813145
8313.189051
8353.591658
8374.387468
8393.034434
8406.906765
8421.306739
8436.608419
8452.321447
8464.289634
8482.069787
8500.293668
8512.745012
8522.581757
8531.891913
8539.931565
8546.753902
8552.547497
8558.383842
8563.828511
8569.086482
8573.309485
8577.151476
8581.050681
8584.083506
8585.708273
8590.944776
8583.644284
8297.73632
8334.793888
8347.352867
8371.533584
8390.980483
8405.286914
8419.772348
8435.282315
8451.011139
8463.710229
8480.874896
8499.246903
8511.858175
8521.658124
8530.909816
8539.262818
8545.654032
8552.20239
8557.796826
8563.569772
8568.615595
8572.980493
8576.974386
8580.747794
8583.792315
8585.448164
8590.717909
8583.309077
8283.497551
8317.61076
8325.701089
8346.025875
8368.425383
8387.788633
8403.657322
8418.389377
8435.048321
8450.378948
8462.830232
8479.817692
8498.35105
8510.926823
8520.481919
8530.280586
8537.974379
8545.233748
8551.636937
8557.661338
8563.150727
8568.26782
8572.608662
8576.592399
8580.54383
8583.473222
8585.276383
8590.310952
8582.943817
8259.444559
8303.614293
8309.379724
8325.918748
8341.609904
8366.359464
8386.722275
8402.974587
8418.468119
8433.781586
8449.565322
8461.955091
8479.293608
8497.586616
8509.882179
8519.780946
8528.823559
8537.433793
8544.378742
8551.036707
8557.011001
8562.955482
8567.953256
8572.442983
8576.309077
8580.250805
8583.253106
8584.901659
8589.909071
8582.577335
8236.669973
8280.230376
8294.519787
8308.12418
8322.290003
8341.268033
8365.124551
8386.501979
8401.827925
8417.269747
8433.457656
8448.736634
8461.758199
8478.449444
8496.532061
8508.882812
8518.554563
8528.198824
8536.43893
8544.013239
8550.535521
8556.789069
8562.412566
8567.796535
8572.147674
8576.099996
8579.940026
8582.892075
8584.607242
8589.37566
8582.02147
8217.261536
8256.509123
8270.23423
8294.16449
8306.753431
8321.55403
8340.130866
8364.427595
8384.460693
8401.329882
8417.096923
8432.923488
8448.353807
8460.90907
8477.788124
8496.014363
8508.001378
8517.75901
8527.138712
8535.794889
8543.061502
8550.084032
8556.293498
8562.263007
8567.474608
8571.845051
8575.763932
8579.665176
8582.471312
8584.132315
8588.842067
8581.423289
8190.968118
8236.379302
8246.539188
8270.597978
8290.055397
8305.309949
8320.972508
8339.280705
8363.136626
8384.317624
8400.606741
8416.433282
8432.660009
8447.795364
8460.736747
8477.118632
8494.958938
8507.136438
8516.671966
8526.352481
8534.840694
8542.405933
8549.710322
8555.921818
8561.870279
8567.187298
8571.653399
8575.440849
8579.281318
8582.075245
8583.609074
8588.152805
8580.76159
8163.986359
8210.472761
8226.709869
8244.620339
8263.071353
8288.955852
8304.860596
8321.269611
8339.676232
8362.83133
8383.412536
8400.147305
8416.342861
8432.337405
8447.195996
8460.308426
8476.488224
8494.546467
8506.220861
8515.999441
8525.349311
8534.014244
8541.824876
8549.010086
8555.615296
8561.55792
8567.014777
8571.377289
8575.182711
8578.865271
8581.512707
8583.046193
8587.371555
8579.945445
8135.226018
8184.795061
8200.785266
8222.856289
8238.176968
8261.437807
8287.023815
8305.096689
8321.536452
8339.02415
8362.098616
8382.965689
8399.636707
8416.123329
8431.980565
8447.18628
8459.703537
8476.252636
8493.726363
8505.386875
8514.910555
8524.553612
8533.139795
8541.160267
8548.492674
8555.162825
8561.330447
8566.725135
8571.061573
8574.751491
8578.43877
8580.996618
8582.277495
8586.560281
8579.104067
8116.276178
8155.015268
8174.594885
8198.896785
8218.552005
8235.31576
8257.686372
8286.088344
8304.349722
8321.545285
8339.229449
8361.72042
8382.367516
8399.66068
8415.780217
8431.431628
8446.629519
8459.773713
8475.698195
8493.310205
8504.532461
8514.070371
8523.592199
8532.396164
8540.461808
8548.081688
8554.787233
8560.975279
8566.44406
8570.804546
8574.392529
8577.799019
8580.287233
8581.604503
8585.613766
8578.114446
8083.909303
8136.711203
8145.303091
8173.85166
8193.916018
8213.522895
8230.968917
8255.271416
8284.943366
8305.178507
8322.209914
8339.178552
8361.193489
8382.392094
8399.263489
8415.544357
8431.252201
8446.357885
8459.46054
8475.54019
8492.399083
8503.732037
8513.289368
8522.718958
8531.488218
8539.717947
8547.430306
8554.43732
8560.64991
8566.221117
8570.449836
8573.897157
8577.228986
8579.515814
8580.700716
8584.635846
8577.100215
8043.431773
8105.379663
8126.736824
8143.667541
8167.680258
8190.441477
8209.843737
8227.842038
8252.558971
8284.861547
8305.152073
8322.253507
8339.349783
8361.249179
8382.029608
8398.887403
8415.168119
8431.010075
8445.807335
8459.42235
8475.160432
8491.828981
8502.877691
8512.266044
8521.892835
8530.618041
8539.135876
8546.939898
8553.996769
8560.38807
8565.897919
8570.043638
8573.407772
8576.490145
8578.6683
8579.778814
8583.577999
8576.1273
7993.907887
8063.153963
8095.91696
8125.053007
8139.123767
8166.558224
8188.095688
8206.249545
8224.59093
8251.101939
8284.040012
8305.398733
8322.816143
8339.349407
8361.024206
8381.730073
8398.842101
8414.872028
8430.728058
8445.854215
8459.240267
8474.904953
8491.387375
8502.057636
8511.366851
8520.919472
8529.8275
8538.246033
8546.361401
8553.64029
8560.037379
8565.556191
8569.644631
8572.801567
8575.748237
8577.712423
8578.787125
8582.522254
8575.052355
7946.723784
8013.764971
8055.979774
8095.278569
8120.364314
8138.067362
8163.296148
8185.1277
8203.541007
8222.66835
8248.993642
8283.471253
8305.285181
8322.82901
8339.658591
8360.768822
8381.764881
8398.478685
8414.331414
8430.286999
8445.348669
8459.325781
8474.632661
8490.625796
8501.296306
8510.596705
8520.03352
8528.909943
8537.661614
8545.803477
8553.231132
8559.688526
8565.223674
8569.110794
8572.105738
8574.886582
8576.704163
8577.775975
8581.423882
8574.022231
7923.095009
7966.311287
8008.864908
8056.4109
8091.364308
8119.267318
8135.254872
8161.266437
8183.192171
8200.839506
8220.329193
8247.424137
8282.714811
8305.596676
8322.745024
8339.432946
8360.783421
8381.489924
8398.179153
8414.248328
8429.96873
8445.038273
8459.133445
8474.609832
8490.07663
8500.430573
8509.591766
8519.171036
8527.995323
8536.824005
8545.218294
8552.750456
8559.361576
8564.788167
8568.587385
8571.368118
8573.953729
8575.688206
8576.720786
8580.365773
8573.07472
7897.53859
7939.133763
7961.386689
8010.46762
8054.866781
8091.129937
8116.292939
8133.286884
8158.896115
8180.787556
8198.677046
8218.634047
8245.985136
8282.477697
8305.187766
8322.804328
8339.581799
8360.578133
8381.266187
8397.748569
8413.592451
8429.746114
8445.084553
8459.295721
8474.224047
8489.647126
8499.638222
8508.685273
8518.215281
8527.179856
8536.016813
8544.676043
8552.32651
8558.905667
8564.307922
8567.87126
8570.521964
8572.948368
8574.624814
8575.686194
8579.353995
8572.151887
7878.83524
7915.048534
7936.220956
7963.82827
8010.389085
8056.06117
8089.100244
8114.179679
8131.013086
8157.61791
8179.535453
8196.834908
8217.109668
8245.336908
8281.886009
8304.768023
8322.134615
8339.162807
8360.606401
8381.023981
8397.539628
8413.116397
8429.280219
8444.693692
8459.104524
8474.329675
8488.907217
8498.83276
8507.893956
8517.231304
8526.334099
8535.302604
8543.987335
8551.93111
8558.571121
8563.808601
8567.184716
8569.595518
8571.866234
8573.497768
8574.681312
8578.387856
8571.362435
7862.816113
7894.233768
7908.858076
7938.94792
7965.146443
8012.664194
8055.42048
8087.950458
8111.730838
8129.805248
8155.556125
8177.770762
8195.572762
8216.577733
8244.695193
8281.190707
8303.874856
8321.737509
8338.763389
8360.249027
8380.915617
8397.087671
8412.852437
8428.960034
8444.570495
8459.36753
8473.986965
8488.439478
8497.995839
8506.917435
8516.362581
8525.385405
8534.522428
8543.35367
8551.39524
8558.020739
8563.220381
8566.396187
8568.650317
8570.789178
8572.387402
8573.711219
8577.522603
8570.596069
7824.144763
7874.434856
7888.066552
7912.740141
7939.881743
7968.830769
8014.348871
8056.315513
8086.269518
8110.363789
8127.81498
8154.046902
8176.983765
8194.723448
8216.105282
8244.224343
8280.851246
8303.074314
8320.831738
8338.657575
8360.162077
8380.55193
8396.551897
8412.106672
8428.644986
8444.388228
8459.255459
8473.837652
8487.701261
8497.205335
8505.989362
8515.381203
8524.485765
8533.73197
8542.792756
8550.882408
8557.55262
8562.509254
8565.535018
8567.579347
8569.663305
8571.321316
8572.822246
8576.735509
8569.908631
7794.788494
7837.364534
7871.051255
7890.439625
7911.290429
7941.758597
7972.533404
8017.414546
8057.360007
8085.859678
8108.172247
8126.111476
8152.472399
8175.960361
8194.359737
8216.182382
8244.669222
8279.804467
8301.865222
8319.786588
8337.857885
8359.9409
8380.105554
8396.169796
8411.726214
8428.244904
8444.272547
8459.262401
8473.790046
8487.084474
8496.325827
8505.200777
8514.437312
8523.598575
8532.975392
8542.169621
8550.320663
8556.95455
8561.805379
8564.580715
8566.477919
8568.5298
8570.295954
8571.994935
8576.033539
8569.288886
7757.703776
7808.739178
7832.8124
7869.257926
7889.586387
7913.204667
7946.194857
7977.300001
8020.897126
8058.517673
8084.470059
8106.395403
8124.247934
8151.760254
8175.679462
8194.420903
8216.553616
8244.679581
8279.313566
8300.435117
8318.751697
8337.290662
8359.654175
8379.835234
8395.39346
8411.123005
8428.08765
8444.219988
8459.200283
8473.432038
8486.430636
8495.464977
8504.245346
8513.569089
8522.70905
8532.244851
8541.551778
8549.796511
8556.251575
8560.946109
8563.550266
8565.343938
8567.414273
8569.306494
8571.239709
8575.371335
8568.656793
7706.059743
7771.437995
7803.467298
7831.171851
7869.210795
7890.299403
7916.300032
7950.503466
7981.852148
8023.989613
8059.203449
8083.749782
8104.087889
8122.971963
8150.556906
8175.49177
8194.790934
8217.661283
8245.300056
8278.672921
8299.060173
8317.39145
8336.388081
8359.15988
8379.093136
8395.004707
8410.662439
8427.576546
8444.032438
8459.145027
8473.101483
8485.677944
8494.617903
8503.293315
8512.547184
8521.870318
8531.490778
8540.885593
8549.219873
8555.630794
8560.089734
8562.488146
8564.226339
8566.318445
8568.374229
8570.515147
8574.690361
8567.88757
7666.650569
7723.17461
7767.633467
7802.712761
7829.396617
7867.316103
7892.367787
7919.67451
7954.972592
7987.769218
8027.569865
8060.410657
8082.76815
8102.640177
8121.294447
8149.965945
8175.993688
8195.746773
8218.931707
8246.482856
8277.586322
8297.354619
8316.036056
8335.767487
8358.684757
8378.71491
8394.155019
8410.167989
8427.509854
8443.965238
8458.962201
8472.682471
8484.937344
8493.70049
8502.524182
8511.721827
8521.011329
8530.778531
8540.202346
8548.507407
8554.779964
8559.110291
8561.394735
8563.071383
8565.218115
8567.435708
8569.761929
8573.959988
8567.042672
7629.228435
7684.628865
7717.86063
7766.848198
7801.045202
7828.241407
7868.367094
7894.636469
7923.009383
7960.422453
7992.464153
8030.881368
8061.390285
8081.790521
8100.00827
8120.270645
8149.897757
8176.117508
8197.045345
8220.518772
8247.104209
8276.93313
8295.743454
8314.545958
8334.882898
8357.994233
8377.77849
8393.530404
8409.654177
8427.144192
8443.869794
8458.69777
8472.213592
8484.091727
8492.790336
8501.535499
8510.791869
8520.210409
8530.05781
8539.591308
8547.784654
8553.956125
8558.037607
8560.254129
8561.873276
8564.116192
8566.513969
8568.966686
8573.055889
8565.814774
7592.96205
7648.013098
7679.563613
7718.5985
7766.375956
7801.287751
7827.989045
7869.170457
7896.72984
7927.378593
7965.365305
7997.426091
8034.211962
8061.611202
8080.27339
8098.770486
8119.045008
8149.484272
8177.191954
8198.555696
8222.500931
8248.256036
8276.013112
8294.246327
8313.184983
8334.029987
8357.424089
8377.01946
8392.727042
8409.260417
8426.935488
8443.654636
8458.391971
8471.592352
8483.207943
8491.887276
8500.748832
8509.947321
8519.421842
8529.370858
8538.892847
8546.982185
8552.997088
8556.958655
8559.03404
8560.656251
8563.016624
8565.508693
8568.004472
8571.877345
8564.388875
7560.865498
7612.148907
7642.929909
7680.977581
7718.004881
7765.624978
7800.627268
7828.156977
7870.086826
7899.985267
7931.390313
7969.995353
8002.157692
8037.138666
8061.610767
8078.829821
8096.643996
8118.491338
8149.573723
8177.839093
8200.70385
8224.567707
8249.150634
8275.300156
8292.690511
8311.710519
8333.071627
8356.641792
8376.012156
8392.021907
8408.82485
8426.645515
8443.453794
8457.918927
8470.874924
8482.29984
8490.930112
8499.862814
8509.208045
8518.676054
8528.70259
8538.18809
8546.175272
8551.912299
8555.759257
8557.760759
8559.436941
8561.871856
8564.422141
8566.796747
8570.43731
8562.581033
7537.630896
7578.32168
7605.726303
7644.712416
7680.910606
7719.375261
7767.365949
7802.076871
7828.795417
7871.728579
7902.238597
7935.239794
7974.246367
8005.553974
8038.913348
8061.094441
8077.47297
8095.602708
8118.169476
8150.123675
8179.164188
8202.438698
8226.703439
8250.374222
8274.463453
8291.300055
8310.585451
8332.251739
8355.812624
8375.101877
8391.23866
8408.442957
8426.486342
8443.113458
8457.318223
8470.083414
8481.297126
8490.002792
8498.964408
8508.331405
8517.987441
8528.016552
8537.39247
8545.274694
8550.82916
8554.475066
8556.461725
8558.164514
8560.60947
8563.126285
8565.364009
8568.601209
8560.271071
7505.92754
7553.842712
7571.900732
7607.346792
7644.655677
7682.799909
7721.922793
7768.335697
7802.481803
7829.789648
7872.777782
7904.765435
7938.737809
7977.781212
8008.954733
8040.051062
8059.843917
8075.651458
8094.187011
8118.021216
8150.231714
8180.399175
8204.544199
8228.620971
8250.98696
8273.719605
8290.061173
8309.534789
8331.360385
8354.830341
8374.018467
8390.498283
8408.074794
8426.296793
8442.667234
8456.629374
8469.142835
8480.27934
8489.036468
8498.274331
8507.626075
8517.268723
8527.332364
8536.534614
8544.206583
8549.648064
8553.142865
8555.086141
8556.81625
8559.287536
8561.655008
8563.573182
8566.352822
8557.675068
7480.953765
7521.800875
7548.282442
7573.699716
7607.855222
7646.58558
7686.116725
7724.073789
7769.926525
7803.923097
7830.926976
7874.763966
7907.058409
7941.633751
7981.075541
8011.151338
8040.679069
8058.500629
8074.355158
8093.94748
8117.990297
8150.857606
8181.730126
8206.697635
8230.522562
8252.001729
8273.047291
8289.136186
8308.745526
8330.748788
8353.912645
8372.974046
8389.765257
8407.762671
8425.850172
8442.123256
8455.692567
8468.140957
8479.202684
8488.111754
8497.455274
8506.997775
8516.656827
8526.609701
8535.687442
8543.035898
8548.249583
8551.704392
8553.605797
8555.329562
8557.734981
8559.929029
8561.419253
8563.757599
8554.720344
7436.039087
7495.852033
7515.323339
7547.632232
7573.132566
7609.077433
7650.009816
7689.076896
7726.532026
7771.353975
7804.632068
7831.888184
7875.863254
7909.081135
7944.454221
7983.422748
8012.319317
8039.784759
8056.886959
8072.992122
8093.217467
8118.304995
8151.336276
8182.883261
8208.531321
8231.917477
8252.31407
8272.556819
8288.39496
8308.207791
8330.119356
8352.925417
8371.847411
8389.078619
8407.455811
8425.532748
8441.461922
8454.771705
8467.027829
8478.112762
8487.194149
8496.651402
8506.282328
8516.053881
8525.862143
8534.693321
8541.877773
8546.858962
8550.140396
8552.021273
8553.745922
8556.037086
8557.925512
8558.961222
8560.824993
8551.537388
7401.277553
7453.061728
7488.762994
7514.323152
7545.234952
7574.051739
7611.837455
7653.204451
7692.323933
7728.824878
7773.619826
7806.34001
7833.127178
7877.465784
7910.975122
7946.663019
7984.679854
8012.78806
8038.795947
8055.126536
8072.119032
8093.146966
8118.584849
8151.874577
8184.00032
8209.950738
8233.13195
8252.653288
8272.136982
8287.98281
8308.039106
8329.594002
8351.948538
8370.748129
8388.441685
8407.072479
8425.069971
8440.54793
8453.671497
8465.859123
8477.034819
8486.325605
8495.996192
8505.594807
8515.343822
8525.058345
8533.618704
8540.451703
8545.258623
8548.475523
8550.319808
8552.026991
8554.173267
8555.71002
8556.201938
8557.616987
8548.198893
7361.536512
7417.685339
7443.165352
7487.374239
7511.709514
7545.255966
7575.631704
7614.016176
7656.813155
7695.362707
7732.019236
7775.259212
7807.141097
7834.305594
7878.326304
7912.188019
7947.751093
7985.54486
8011.689639
8036.880442
8053.276075
8071.253105
8093.089865
8119.011035
8152.674806
8184.792531
8210.763116
8233.486366
8252.686797
8271.905263
8287.985614
8308.056553
8329.378869
8351.118733
8369.844651
8387.778508
8406.73595
8424.458388
8439.541372
8452.436081
8464.664604
8475.873305
8485.355414
8495.355935
8505.015598
8514.651414
8524.180747
8532.415335
8538.994591
8543.568071
8546.67769
8548.519038
8550.155862
8552.066265
8553.251042
8553.181828
8554.314515
8544.903559
7319.624939
7377.849986
7408.156059
7443.194922
7483.632783
7510.418957
7544.693405
7577.126843
7616.976946
7660.066036
7699.243095
7734.653245
7776.991806
7808.516162
7835.519971
7879.415355
7913.211743
7948.755034
7984.695397
8010.382989
8034.770471
8051.616652
8070.537924
8093.247639
8119.852535
8153.306846
8185.040122
8211.050835
8233.417476
8252.407874
8271.916877
8288.233374
8308.444854
8329.000126
8350.153594
8368.793954
8387.234828
8406.322576
8423.677413
8438.384462
8451.136554
8463.408809
8474.891793
8484.53959
8494.608933
8504.373604
8513.937982
8523.186737
8531.065269
8537.358336
8541.815557
8544.777623
8546.57068
8548.109629
8549.864339
8550.621609
8550.066252
8551.097296
8541.842666
7276.592271
7334.032114
7368.695717
7408.105639
7438.435163
7481.781657
7510.394725
7545.196262
7579.760037
7620.251994
7664.203557
7702.495677
7737.268542
7778.391421
7809.141662
7836.500836
7880.294387
7913.250923
7948.207703
7983.866672
8007.505181
8031.696596
8049.738497
8069.935506
8093.868779
8120.89621
8154.245878
8185.053015
8210.587388
8232.847811
8252.056117
8272.026087
8288.863907
8309.026133
8329.10992
8349.440403
8367.923633
8386.735916
8405.80426
8422.7412
8437.090706
8449.814538
8462.186553
8473.78154
8483.72738
8493.941944
8503.705212
8513.127141
8522.051263
8529.605307
8535.550815
8539.809679
8542.73695
8544.448384
8545.90545
8547.502055
8547.900756
8547.029161
8548.018626
8538.86679
7228.064617
7289.338648
7327.131942
7368.464249
7403.580495
7437.437634
7479.475327
7509.574057
7545.724651
7582.18402
7623.733411
7667.55143
7705.729158
7739.371565
7780.006821
7810.218826
7837.144664
7880.314561
7913.193958
7947.435204
7981.02818
8004.224367
8028.535661
8047.727374
8069.695535
8094.826626
8122.188136
8154.642933
8184.296238
8209.398713
8231.629468
8251.396733
8272.290763
8289.728013
8309.782038
8329.003428
8348.766447
8367.262666
8386.270044
8405.159802
8421.632667
8435.593265
8448.371192
8460.93325
8472.744612
8482.879174
8493.220766
8502.98361
8512.150436
8520.81185
8527.981877
8533.687418
8537.656207
8540.513108
8542.193556
8543.652209
8545.01775
8545.129679
8544.103113
8545.127653
8536.230592
7195.945003
7242.661529
7284.912655
7326.410478
7364.188541
7402.912981
7433.670157
7477.736559
7509.564545
7546.902678
7584.209034
7626.403798
7670.755821
7708.101114
7741.775289
7780.990126
7810.508154
7838.152175
7880.383636
7912.167745
7945.823092
7977.968077
7999.953996
8024.890737
8045.88146
8069.640938
8096.153031
8123.852605
8155.127054
8183.02921
8207.611013
8229.960839
8250.820078
8272.708627
8290.696871
8310.696241
8329.006986
8348.121061
8366.649156
8385.750531
8404.377964
8420.320555
8434.128857
8446.967897
8459.815342
8471.746533
8482.114832
8492.600306
8502.210184
8511.172554
8519.417972
8526.241942
8531.621616
8535.437221
8538.152403
8539.880734
8541.295187
8542.549703
8542.48
8541.332292
8542.456526
8533.642857
7146.930963
7210.85842
7236.328334
7282.861704
7322.794592
7362.764813
7399.23522
7432.719973
7476.101932
7509.827612
7548.218246
7586.64221
7629.554332
7674.012479
7710.801972
7743.361913
7781.744624
7810.837776
7838.181736
7879.890635
7911.281042
7943.275886
7973.624859
7995.158254
8020.67839
8043.853511
8070.044501
8098.074812
8125.545101
8155.350756
8181.462445
8205.246211
8227.896887
8249.7242
8273.011697
8291.868689
8311.563953
8329.098838
8347.692393
8366.230712
8385.305092
8403.395763
8418.86408
8432.571642
8445.611954
8458.672537
8470.701929
8481.172731
8491.740076
8501.293769
8510.072287
8517.905807
8524.385593
8529.403772
8533.032501
8535.717707
8537.493657
8538.915497
8540.072364
8539.910299
8538.739897
8539.939873
8531.205679
7108.27514
7161.658429
7203.46221
7235.20404
7279.571225
7320.713619
7359.576633
7397.991228
7430.715817
7474.996354
7509.365368
7548.943851
7588.687876
7632.371078
7676.372875
7712.205874
7744.807968
7781.930338
7810.755378
7838.228654
7879.026341
7909.290874
7940.359365
7968.627854
7989.949421
8016.654767
8042.171709
8070.773324
8100.231423
8127.107288
8155.02052
8179.243794
8202.324597
8225.5669
8248.91626
8273.383021
8292.981356
8312.292789
8329.094359
8347.31221
8365.818825
8384.74708
8402.232285
8417.304578
8430.960023
8444.272099
8457.561746
8469.768141
8480.367743
8490.91302
8500.261517
8508.734403
8516.215264
8522.252635
8527.076275
8530.483056
8533.184561
8535.042265
8536.519703
8537.652619
8537.392798
8536.249873
8537.497404
8528.683138
7057.435796
7123.203177
7155.306589
7202.940793
7232.105856
7277.129505
7319.223118
7358.423031
7395.930952
7429.359638
7473.864057
7510.112146
7550.108003
7590.768928
7634.334896
7678.700384
7714.297939
7745.638165
7782.034784
7810.260705
7838.279434
7878.279745
7907.530184
7936.910934
7963.201417
7984.477556
8012.294853
8040.861438
8072.047126
8102.492411
8128.532002
8154.555714
8176.906892
8199.46004
8223.027656
8247.654408
8273.589423
8293.765137
8312.819219
8329.070456
8347.151278
8365.521138
8383.993903
8400.910195
8415.581383
8429.342408
8442.936353
8456.429187
8468.836496
8479.4783
8490.083999
8499.214988
8507.298335
8514.458424
8520.069547
8524.511887
8527.863269
8530.567669
8532.553358
8534.107948
8535.219244
8534.947051
8533.789776
8534.990628
8526.029258
7017.663845
7070.271381
7114.97199
7154.013619
7199.027096
7230.339888
7275.501592
7317.148749
7355.840126
7394.442818
7427.899856
7473.429751
7510.256189
7551.302299
7592.822384
7636.452701
7680.097934
7714.785633
7746.110271
7781.428924
7809.675123
7837.69548
7876.883776
7904.971008
7932.642313
7957.541693
7979.02505
8008.537606
8039.935152
8073.713567
8104.807767
8129.523713
8153.780045
8174.290049
8196.207059
8220.585015
8246.652944
8273.829542
8294.446156
8312.990506
8328.961074
8347.027257
8365.297057
8383.206946
8399.3657
8413.777076
8427.755242
8441.672249
8455.342566
8467.753085
8478.511426
8488.951548
8498.052386
8505.785512
8512.486727
8517.714675
8521.792598
8525.018593
8527.888117
8530.020482
8531.663083
8532.759525
8532.439096
8531.229469
8532.29629
8522.975328
6975.812935
7029.627711
7065.043715
7114.92185
7150.572481
7196.65935
7229.017061
7273.470163
7314.895142
7354.542878
7392.623498
7427.280799
7472.654061
7510.648423
7551.790553
7594.023911
7637.970559
7681.436846
7715.577527
7746.167627
7780.651208
7808.803281
7837.278325
7875.48641
7902.356505
7928.511302
7951.740237
7973.615182
8005.004558
8039.433755
8075.138861
8106.533419
8130.025378
8152.522597
8171.970065
8193.528861
8218.373278
8245.560527
8273.506725
8294.414083
8312.757463
8328.73703
8346.810301
8364.978439
8382.181674
8397.67145
8411.946066
8426.212937
8440.350476
8454.238035
8466.589188
8477.449195
8487.880008
8496.604875
8504.082567
8510.337538
8515.150844
8519.04764
8522.209454
8525.146408
8527.433572
8529.128797
8530.183764
8529.772964
8528.454046
8529.301132
8519.71004
6931.189071
6987.587102
7025.665746
7063.622422
7111.184149
7148.781091
7194.623604
7227.732304
7272.590216
7314.184726
7352.819951
7391.734274
7426.394124
7472.187743
7510.760318
7552.890645
7595.240569
7639.001919
7681.562858
7714.907699
7745.489655
7779.532515
7807.944005
7836.482018
7873.703176
7899.201735
7923.964849
7946.257159
7969.344961
8002.526695
8039.615261
8076.93312
8107.75357
8130.083146
8151.241251
8169.519624
8191.155668
8216.725844
8244.857408
8273.258623
8293.933775
8312.102714
8328.346043
8346.796033
8364.561007
8380.957594
8395.874145
8410.119659
8424.700007
8439.156381
8453.011982
8465.516735
8476.263626
8486.739658
8495.222384
8502.351378
8508.173558
8512.52577
8516.101641
8519.251166
8522.351734
8524.762103
8526.461704
8527.414228
8526.858492
8525.367523
8525.966242
8516.028304
6889.127044
6942.590269
6983.535455
7022.046071
7060.620621
7109.151311
7146.837298
7192.341882
7226.308409
7270.940286
7312.115813
7351.456687
7390.473599
7425.830668
7471.728137
7511.249203
7553.533094
7596.382957
7639.751506
7681.623886
7714.760623
7744.61236
7778.301927
7806.725055
7835.733749
7871.978489
7896.089689
7919.807498
7941.328159
7965.716719
8000.987018
8039.962333
8077.986088
8108.316988
8129.517182
8149.680506
8167.684255
8189.595881
8215.499304
8244.065797
8272.287333
8292.738704
8311.035797
8327.78249
8346.422066
8363.901503
8379.511287
8394.00233
8408.322974
8423.232105
8437.859575
8451.719029
8464.160136
8475.015497
8485.249324
8493.665912
8500.390044
8505.809109
8509.772438
8513.147788
8516.292556
8519.48889
8521.977795
8523.606518
8524.386079
8523.623017
8521.938935
8522.312931
8512.292241
6840.680744
6900.644254
6938.829345
6980.038458
7020.435878
7058.830804
7106.369062
7146.251664
7190.815121
7225.235747
7269.520766
7310.907551
7349.958672
7389.529455
7425.318397
7471.771218
7511.540609
7554.230093
7596.635434
7639.712843
7680.739828
7713.096594
7743.450349
7776.633212
7805.559
7834.558394
7869.774908
7892.83533
7915.605623
7937.148198
7963.489225
8000.474834
8041.079472