/*--------------------------------*- C++ -*----------------------------------*\
| =========                 |                                                 |
| \\      /  F ield         | OpenFOAM: The Open Source CFD Toolbox           |
|  \\    /   O peration     | Version:  v1612+-hyStrath                       |
|   \\  /    A nd           | Web:      www.OpenFOAM.com                      |
|    \\/     M anipulation  |                                                 |
\*---------------------------------------------------------------------------*/
FoamFile
{
    version     2.0;
    format      ascii;
    class       volScalarField;
    location    "0.015";
    object      rho;
}
// * * * * * * * * * * * * * * * * * * * * * * * * * * * * * * * * * * * * * //

dimensions      [1 -3 0 0 0 0 0];

internalField   nonuniform List<scalar> 
141100
(
0.09077649694
0.09101253733
0.08186875029
0.09112895915
0.08217618745
0.0747722602
0.09081692222
0.08234826697
0.07475888103
0.06884379958
0.09054306385
0.08185407074
0.07464520094
0.06873387801
0.06382979964
0.09047457289
0.08141157546
0.07442916757
0.0685345214
0.06377074335
0.0598360753
0.09066383253
0.08131208076
0.07419630191
0.06840481852
0.06366281486
0.05964501044
0.05632901348
0.09083363776
0.08163725081
0.07407801541
0.06835358619
0.06342546189
0.05944027312
0.05614338872
0.0531969165
0.09072190956
0.0818962171
0.0741318954
0.06822110655
0.06336758437
0.05932656988
0.05592573595
0.05309503682
0.0505229937
0.09037383241
0.08172920868
0.07407745124
0.06807801719
0.06323023758
0.05925220808
0.05582909543
0.05295025711
0.05043536468
0.04820952543
0.09026905139
0.08121183751
0.07388652035
0.06792247014
0.06308259368
0.05912551862
0.05575393188
0.0527811204
0.05029564093
0.04807328644
0.04617644382
0.09012280535
0.08104317929
0.07361435007
0.06772743947
0.06301922358
0.05896655672
0.05562559705
0.05271344023
0.05019131329
0.04795110461
0.04603350802
0.0442982931
0.08976839934
0.0808115321
0.07341137813
0.06750864194
0.06282604341
0.05878829916
0.05547201836
0.05258521501
0.0501223099
0.04789693896
0.04587871257
0.04418225573
0.04263429232
0.08965410871
0.08026132026
0.07316450289
0.06730972268
0.06259689236
0.05860118499
0.05527841532
0.0524321498
0.05000487328
0.04778809136
0.04582811414
0.04402492962
0.04255799342
0.04115636846
0.08980202286
0.08012214951
0.07283905322
0.06718613785
0.06239648124
0.05848578738
0.05509562105
0.05231969398
0.04984453632
0.04767686815
0.04572313275
0.04394608975
0.04244487292
0.04110482736
0.03981689963
0.08972008873
0.08042304715
0.07268968957
0.06704523714
0.06228860237
0.05829225896
0.05497422193
0.05214060545
0.04968751603
0.047565893
0.04561670201
0.04389202434
0.04233754235
0.04099975961
0.03977056432
0.03860693659
0.08961567816
0.0804033667
0.07272383288
0.06689338385
0.06214272637
0.05807305991
0.05479301055
0.05195068124
0.04951174667
0.0473645171
0.04550856037
0.04378742839
0.04225562172
0.04090347403
0.03967374895
0.03855370966
0.03752506077
0.0896853469
0.08035205987
0.07274069347
0.06672477127
0.06199095462
0.05792485262
0.05457906037
0.05178834408
0.04932102044
0.04719764255
0.04532592476
0.04364650937
0.04216118558
0.04079684641
0.03958754826
0.03846519984
0.0374792471
0.03656158737
0.08949085189
0.08061008645
0.07287272596
0.06663274894
0.06182361681
0.05777492739
0.05443209254
0.05163868824
0.04916581205
0.04706410978
0.04520306649
0.04350443453
0.04205619303
0.04070949818
0.03948956174
0.03838850972
0.03739926542
0.036538356
0.03568958638
0.08925080018
0.08043188479
0.07289569722
0.06676913919
0.06172767137
0.05761617215
0.05428561376
0.05149857182
0.04902613132
0.04692299681
0.04507562469
0.04338950542
0.04195190276
0.04063793414
0.03940739422
0.03831943762
0.03732961018
0.03646677663
0.03565753405
0.03489707332
0.08878419796
0.08011515875
0.07256322201
0.0667446264
0.06171161138
0.05763802335
0.0541339476
0.05135710609
0.04889610353
0.04672662053
0.04494274833
0.04327767939
0.04180875056
0.04053644801
0.03933804763
0.03823988331
0.03726624546
0.03640196366
0.03558188684
0.03487200789
0.03418391041
0.08856281787
0.07950348391
0.07237254987
0.06640385187
0.06171033208
0.05770511821
0.05414990395
0.05120915647
0.04876067709
0.04656325894
0.04475537634
0.04314554809
0.04167526792
0.0404033479
0.03924125914
0.03815433849
0.03719425243
0.03632399573
0.03553836745
0.03480130455
0.03417221308
0.03356092081
0.08833120986
0.07924878378
0.07203010256
0.06621451606
0.06151383963
0.05769170193
0.05429846858
0.05121492413
0.04866640938
0.04643303728
0.04456021585
0.04297525479
0.04155335591
0.04025062191
0.03911770296
0.0380637368
0.03711067943
0.03625696618
0.03547846869
0.03476405394
0.03411881576
0.03354635582
0.03300347638
0.08793631799
0.07897862904
0.07177143826
0.06607872347
0.06129064952
0.05749437527
0.05429093278
0.0512948071
0.04865900082
0.04638644872
0.04443251579
0.0428246228
0.04138823653
0.04013742826
0.03897590385
0.0379720199
0.03702591448
0.03619775737
0.03541522468
0.0347228647
0.03407366123
0.03349766991
0.032999399
0.03250138929
0.08773878903
0.07848558906
0.07150633767
0.06582583799
0.06116124374
0.05728151544
0.05409934779
0.05120654819
0.04868304204
0.0463684043
0.04437899336
0.04269994788
0.04125260297
0.0400076875
0.03887168362
0.03785728115
0.03694212071
0.03611849224
0.03536170145
0.03466120562
0.03403516433
0.03345770776
0.03295507066
0.03250661126
0.03205525553
0.08767725377
0.07853790891
0.07113503049
0.06558482784
0.06093053969
0.0570749602
0.05387856037
0.05101560269
0.04864598973
0.04640425405
0.04435688659
0.04264339822
0.04116060432
0.03987331353
0.03877536552
0.03774014065
0.03683924874
0.03602252623
0.03528792648
0.03460279689
0.03397611361
0.03342160187
0.03291877714
0.03246647408
0.03206310271
0.03166963375
0.08745449015
0.07863545134
0.0712267578
0.06541017392
0.06069866492
0.05685788782
0.05360265728
0.05088599327
0.04846093948
0.04641020192
0.04439314469
0.04262101821
0.04110270655
0.03978448293
0.03867091122
0.03763030717
0.03672973588
0.03591149894
0.035200059
0.03453417426
0.033912913
0.03336705099
0.03287625449
0.03243354862
0.03202688617
0.03167976075
0.03132746002
0.08708267798
0.07824209926
0.07123080839
0.06533953821
0.06058071455
0.0567270629
0.05339908192
0.05069025786
0.04828754474
0.046231608
0.04438972414
0.04264976473
0.04108301098
0.03970334836
0.03855909295
0.03752773529
0.03662277025
0.03582552047
0.03509802292
0.03445360915
0.03384926317
0.03331017948
0.03282834176
0.0323941403
0.03199726411
0.03164710013
0.03133978873
0.03102442112
0.08718535047
0.07778307787
0.07086210487
0.06516838469
0.06062528134
0.05661332199
0.05335201303
0.05049630023
0.04810912831
0.04602447062
0.04422105349
0.0426425582
0.04109836523
0.0396853672
0.03845713985
0.03742319959
0.03652414044
0.03574227993
0.03501562616
0.03437307461
0.03378766344
0.03325161402
0.0327840679
0.03234962897
0.03196915958
0.0316200551
0.03131038842
0.0310390522
0.03076661604
0.0872181364
0.07806580393
0.07052433751
0.06500560053
0.06042798007
0.05666586763
0.05333637069
0.05038294594
0.04792357418
0.04584642536
0.04403281332
0.04248424242
0.04106171457
0.0396866458
0.03843770816
0.03734769103
0.03642503625
0.03564983452
0.03493763155
0.03429163065
0.03372286231
0.03319585691
0.03273058817
0.03231121416
0.03192814904
0.03158892217
0.03128571132
0.03101254382
0.03077935546
0.0305429349
0.08695530908
0.07828918718
0.07075296609
0.06486122131
0.06017434966
0.05649067682
0.0532952329
0.05030668624
0.04780966754
0.04566393498
0.0439045359
0.04230789025
0.04091439634
0.03962421691
0.03842994592
0.03732415787
0.03635483506
0.03555542665
0.03485185652
0.03420868594
0.03364814999
0.03313754063
0.03266979298
0.03226239517
0.03188668381
0.03155309294
0.03125738117
0.03099011484
0.03075640214
0.0305566338
0.03034963231
0.08651444659
0.07801586242
0.07090099517
0.06493965319
0.06007925955
0.05624623702
0.0530512068
0.05032732787
0.04772814065
0.04557063491
0.04373030381
0.04218384853
0.04077551244
0.03951372987
0.03836909325
0.03731244028
0.03633020054
0.03547055578
0.03476260465
0.03412990083
0.03355608382
0.03307581804
0.03260807476
0.03220693914
0.03184206256
0.03152022691
0.03122459202
0.03096971674
0.03073869916
0.03053601481
0.03036741529
0.03018866421
0.0862403981
0.07747710377
0.07063572206
0.06491063094
0.06013940337
0.05606411212
0.05290471777
0.05016474524
0.04774957891
0.04553867225
0.04360184852
0.04202207782
0.04065566896
0.03940604546
0.03829239329
0.03726882197
0.03633160912
0.03544475593
0.03468059896
0.03404563033
0.03347621012
0.03298935626
0.03255071336
0.0321496067
0.03179157681
0.03147977241
0.03119586281
0.03093985916
0.03071705789
0.03052047781
0.03034856722
0.03020473088
0.03005231816
0.08593201343
0.0772337788
0.07022309317
0.06478184399
0.06006658385
0.05614875397
0.05274691794
0.04996468413
0.04760958813
0.04550204498
0.04356375497
0.04189933414
0.04051218813
0.03926991924
0.03818734216
0.03717664488
0.03630315406
0.03545704327
0.03465305578
0.03397784285
0.03340723365
0.03290703049
0.03248075638
0.03208523438
0.03174590557
0.03143374562
0.03115924478
0.03090964405
0.03069140946
0.03050091965
0.03033182299
0.03018618145
0.03006886738
0.02993763359
0.08540132014
0.07696118269
0.07000627274
0.06457037506
0.05995406898
0.05615480389
0.05274725804
0.04983252501
0.0474167832
0.04537099893
0.04352617023
0.04185872533
0.04041777652
0.0391392051
0.03803725024
0.03708317199
0.03619831265
0.03542420818
0.03465895827
0.03394697188
0.03335026615
0.03285134757
0.03241082305
0.03202469642
0.03168483041
0.03138548511
0.03111732856
0.03087634071
0.03066660309
0.03047802754
0.03031464311
0.0301732419
0.03005144671
0.02995512415
0.0298434935
0.08516835545
0.07633073081
0.06977865065
0.0642529479
0.05980564537
0.05594264427
0.05272921104
0.04988605529
0.04735650152
0.04523764723
0.04345067914
0.04181978671
0.04037668365
0.03907177591
0.03791462812
0.03695927501
0.03609563929
0.035328001
0.03462346652
0.03393715701
0.03331860247
0.03279465709
0.03234987737
0.03196568973
0.03162384325
0.03133011372
0.03107238663
0.03083829943
0.03063658057
0.03045589855
0.03029486274
0.03015696701
0.03004002929
0.0299405165
0.02986030396
0.02976605344
0.08487283214
0.07608627644
0.06925169169
0.06408636021
0.05950813104
0.05580484088
0.05253308877
0.04985667213
0.04744858633
0.04519777562
0.04332346824
0.04174946642
0.04033626367
0.03903122543
0.03784576243
0.03684289304
0.03599912635
0.03521636727
0.03453513595
0.03390056377
0.03329319275
0.03276241273
0.03229564925
0.03190834126
0.03156759646
0.03127814452
0.0310199482
0.03080129069
0.03060192531
0.03042890812
0.03027396689
0.03014005791
0.03002606204
0.02992970978
0.02984614821
0.02978355029
0.02970375405
0.08454085591
0.07586778831
0.06901263005
0.06373884267
0.05948431318
0.05563678385
0.05249464666
0.04967568062
0.04741259388
0.04526650325
0.04324752962
0.04162965967
0.04023950549
0.03898920356
0.03780485116
0.03677640834
0.03588368681
0.03512497705
0.03443103142
0.03381886303
0.03324748731
0.03273407913
0.03226135818
0.03185496586
0.03152059228
0.03122581936
0.03097295778
0.03075632461
0.03056752316
0.03039723769
0.0302497189
0.03012293629
0.03001102544
0.02991595504
0.02983695627
0.02976957314
0.02972157077
0.02965422258
0.08428154527
0.0758426273
0.06883456924
0.06351862627
0.0592812314
0.05565405483
0.05234602967
0.04963869226
0.04724640109
0.04522501029
0.04329719621
0.04155975367
0.04012998024
0.03889496405
0.03776182607
0.03673411515
0.03580723555
0.03501206594
0.03434472858
0.03373351967
0.03318234507
0.03268024472
0.0322327718
0.03182062621
0.03146914306
0.03117571072
0.03092459953
0.03070751302
0.03052567961
0.03036516005
0.03022068856
0.03010124218
0.02999547621
0.0299022914
0.02982596559
0.0297605297
0.02970805626
0.02967177001
0.02961488372
0.08380669138
0.0758073342
0.06902531424
0.06337060933
0.05908088105
0.05545491829
0.05229301738
0.04950998879
0.04715727068
0.04507344678
0.04324995509
0.04159551311
0.04008954756
0.03879248014
0.03769783751
0.03668985612
0.03576274584
0.03492601165
0.03423699228
0.03364897889
0.03311010275
0.03262950387
0.03218764976
0.0317906554
0.03143533576
0.03112777225
0.03087664236
0.03065977683
0.03048117578
0.0303261144
0.03019087285
0.03007448969
0.02997600157
0.02988839323
0.02981302049
0.02975174652
0.02969990113
0.02965869284
0.02963190865
0.02958432606
0.08329357767
0.07542157688
0.06896596573
0.06354732482
0.05895332895
0.05527269513
0.05210116624
0.04946678503
0.04705022058
0.04498210402
0.0431130301
0.04154303886
0.04011589889
0.03875389655
0.03760056898
0.03660594747
0.03571694579
0.03487980884
0.03415597132
0.03355119374
0.03303254723
0.03255894235
0.03213131542
0.03174747748
0.03141009314
0.03109313147
0.03083052842
0.03061831633
0.03043580939
0.0302840488
0.03015726539
0.0300444265
0.02995130961
0.02987094189
0.02980000261
0.02974066747
0.02969191975
0.02965178997
0.02961922943
0.02960121119
0.02956078153
0.08303079601
0.07496498681
0.06863872563
0.06348279119
0.05901322119
0.05516209814
0.05193341024
0.04928410508
0.04705726086
0.04489124056
0.04306990835
0.04141897351
0.04005908225
0.03877257496
0.03753535577
0.03651804942
0.03563369227
0.03484821949
0.03410957038
0.03348282938
0.03293953214
0.03248704
0.03206570772
0.03169386085
0.03136625924
0.03106860695
0.03079675245
0.03057474667
0.03039286376
0.03024520409
0.03011761747
0.03001193519
0.02992293282
0.02984794928
0.02978421573
0.02972793399
0.02968185785
0.0296442127
0.02961336337
0.02958884993
0.02957733651
0.02954275254
0.08279581038
0.07457947028
0.06845903571
0.06318326395
0.05895631256
0.05511849709
0.05183796938
0.04912817769
0.04688659194
0.04489929135
0.04299091207
0.04137736295
0.03994563957
0.03871245869
0.0375486071
0.03646970996
0.03556835059
0.03478140089
0.03409084136
0.0334372228
0.03287549229
0.03239885022
0.03199574972
0.03163026268
0.03131551278
0.03103059699
0.03077073781
0.03054180891
0.03035299686
0.03020348272
0.03008132807
0.0299765416
0.02989058153
0.0298230127
0.02976406361
0.02971413099
0.02967060554
0.02963451801
0.02960611621
0.02958294723
0.02956526995
0.02955895176
0.02952938661
0.08259665112
0.07432779227
0.06811957885
0.06292626812
0.05867264937
0.05507596384
0.05186839783
0.04904489248
0.0467414284
0.04474111536
0.04294986639
0.04130769926
0.03987627735
0.03860863765
0.03748634081
0.03647932015
0.03551730951
0.03472300298
0.03402210302
0.03340240442
0.03283041408
0.03232760578
0.03191483989
0.0315652448
0.03125028819
0.03098194253
0.0307330996
0.03051928825
0.03032308752
0.03016387203
0.03004417839
0.02994143028
0.02985764336
0.02979253436
0.02974016142
0.02969576752
0.02965804509
0.02962489564
0.02959743509
0.02957619875
0.02955928531
0.02954714224
0.02954518348
0.02951933563
0.08245895794
0.07429957174
0.06787189903
0.06266566578
0.05835532928
0.05489806025
0.05183560527
0.04914115621
0.04666524841
0.04460609942
0.04280466034
0.04126198835
0.03981678838
0.03854055548
0.03739082469
0.03641519531
0.03550885941
0.03466733254
0.03395278348
0.03333601049
0.0327917016
0.03228295302
0.03185256222
0.03148733302
0.03118903884
0.03091933843
0.03068673183
0.03048255868
0.03029678518
0.03013500803
0.03000462054
0.0299050632
0.02982396625
0.02975986391
0.02971198144
0.02967276918
0.02964107509
0.02961331546
0.02958905829
0.02956797848
0.02955280087
0.0295412915
0.02953353067
0.02953492899
0.0295120024
0.08215796713
0.0742032729
0.06786951665
0.06253920234
0.05810554931
0.05469730886
0.05168816583
0.04910961579
0.0467015012
0.04453566474
0.04267887035
0.04113018255
0.03979057266
0.03848659353
0.0373525344
0.03632707188
0.03546205062
0.03465526674
0.03391058761
0.03327941777
0.03272511206
0.03225163837
0.03180839926
0.0314292819
0.03112052647
0.03086091095
0.03062903937
0.03043339441
0.0302621141
0.03010847602
0.02997416492
0.02987001576
0.02978988761
0.02972764263
0.02968139366
0.02964614007
0.02961906384
0.02959720015
0.02957854819
0.02956014332
0.02954495202
0.02953486473
0.02952761764
0.02952334576
0.02952750586
0.0295065867
0.08181353706
0.07394206718
0.06759933442
0.06250771069
0.05798833167
0.05455717803
0.0515859762
0.04892147625
0.04668069618
0.04455401588
0.04264950293
0.0410124074
0.0396732478
0.03845400922
0.03732247841
0.03629159466
0.03539559466
0.03461003162
0.03391077615
0.03322399857
0.03267122798
0.03218528319
0.03177427431
0.03139185983
0.03106340552
0.0307955407
0.03057301526
0.03037963337
0.03021714136
0.03007420224
0.02995036412
0.02984193069
0.02975802366
0.02969704011
0.02965050729
0.02961761133
0.02959377695
0.02957705991
0.02956288992
0.02955043324
0.02953752061
0.02952726123
0.02952115313
0.0295172381
0.02951592697
0.02952194336
0.02950232276
0.08155809773
0.07367759994
0.0673584117
0.06226565661
0.05798181289
0.05434265255
0.05144532457
0.04882520754
0.04656179051
0.04454910165
0.04270238234
0.04101928306
0.03955980393
0.03835055882
0.03725667193
0.03628250504
0.035344084
0.03455003451
0.03385074496
0.0332096856
0.0326145864
0.03212229469
0.03170907053
0.03135397782
0.03102591937
0.03074168968
0.03051046457
0.03032389238
0.03016676997
0.030032051
0.02991629727
0.029818181
0.02973139997
0.02966642062
0.0296203113
0.02958796998
0.02956619904
0.02955254223
0.02954400026
0.029536418
0.02952892965
0.02952036573
0.02951384348
0.029510664
0.02950953677
0.02951031753
0.02951750285
0.02949857414
0.08117242684
0.07349888689
0.06714927172
0.06203793279
0.05785006734
0.05424860531
0.05124128845
0.04868516713
0.04647435542
0.04444756622
0.04270624032
0.04105880184
0.0395346793
0.03824070836
0.03716675131
0.03621066339
0.03531756802
0.03449838423
0.03378188097
0.03316463469
0.03259565128
0.0320759385
0.03164605408
0.03129243844
0.03098054701
0.03070345388
0.03045667193
0.03026591076
0.03011339089
0.02998408586
0.02987450327
0.02978490607
0.02970776101
0.02963952973
0.0295918056
0.02955927621
0.02953760244
0.02952562054
0.02952015064
0.02951802826
0.02951570741
0.02951238169
0.02950735006
0.02950345193
0.0295026129
0.02950351011
0.0295057813
0.02951384412
0.02949520519
0.08080501152
0.07317682466
0.06681344768
0.06187639191
0.05762425538
0.05412898615
0.05115815328
0.04849504968
0.04633368697
0.04436894595
0.04257307631
0.04107121779
0.03956767557
0.03820851255
0.03707925445
0.03611121571
0.03525982094
0.03446788937
0.0337458511
0.03311162633
0.03255513326
0.03206324834
0.03160092679
0.03122683118
0.03092112879
0.03065608704
0.03041920271
0.03021689013
0.03005727662
0.02993187364
0.02983095747
0.02974552886
0.02967547068
0.0296160512
0.02956623155
0.02953152532
0.02951013009
0.02949789123
0.02949378402
0.02949534587
0.02949810688
0.02949998723
0.0294995579
0.02949724377
0.02949522877
0.02949623206
0.0294986758
0.02950202294
0.02951031985
0.02949128912
0.08043519318
0.07287552828
0.06652528467
0.06156694945
0.05751652467
0.05391531063
0.05102471599
0.04841522449
0.04615731709
0.04422841093
0.04246830279
0.04095079672
0.03958062067
0.03823931195
0.03704788301
0.03604753803
0.03516321386
0.03441031547
0.03372680943
0.03307456706
0.03250709926
0.03201693041
0.03158413777
0.0311777234
0.0308548854
0.03059726863
0.03037650884
0.03017581283
0.03000899673
0.02987895336
0.02978047968
0.02970360837
0.02963810917
0.02958480053
0.02954300555
0.02950700625
0.029483824
0.02947133474
0.02946683187
0.02946981386
0.02947625533
0.02948298501
0.02948776406
0.02948984782
0.02948910312
0.02948865302
0.02949105907
0.02949448526
0.02949837463
0.02950652107
0.02948736357
0.07984674692
0.07255252639
0.06626504613
0.06130879635
0.05731055922
0.05392050518
0.05082105662
0.04834013233
0.04607570368
0.04406673866
0.04232900562
0.04081969511
0.0394779489
0.03824801128
0.03707289538
0.03600762651
0.03508493233
0.03431953911
0.03365431003
0.03303992073
0.03246875042
0.03197124343
0.03154146678
0.03115788496
0.03080149203
0.03053205003
0.03031665261
0.030132394
0.02996772999
0.0298315954
0.02972747751
0.02965485706
0.0295980012
0.02954912111
0.0295126926
0.02948408832
0.02945949128
0.02944589012
0.02944171518
0.02944351021
0.02945162035
0.02946194556
0.02947170871
0.02947821929
0.02948196455
0.02948251607
0.02948328716
0.02948657008
0.02949054179
0.02949451608
0.02950253353
0.02948280633
0.07960020581
0.07200322459
0.06611093975
0.06108224244
0.05707929791
0.0538056807
0.05085504579
0.04815294603
0.04599268795
0.0440186419
0.04221532275
0.0406837787
0.03938043419
0.03818648769
0.03708094948
0.03603028416
0.03505985742
0.03424242004
0.03356537973
0.03297081435
0.03243194782
0.03192988818
0.03150737816
0.03112428105
0.03078460788
0.03047975045
0.03025475461
0.03007258129
0.02992405842
0.02979218881
0.02968080195
0.0296039889
0.02955243612
0.02951084393
0.02947840793
0.02945462304
0.02943684074
0.02942220666
0.02941662731
0.02941855455
0.02942593885
0.02943788167
0.02945111542
0.02946302935
0.02947089973
0.02947552644
0.0294770625
0.02947851392
0.02948222067
0.02948648647
0.02949056852
0.02949789122
0.02947713911
0.07926649442
0.0717858695
0.06577520973
0.06106296951
0.05687813585
0.05359799349
0.05073447649
0.04812874655
0.04582126428
0.04392741496
0.04219397537
0.0406108714
0.03924985749
0.03811747047
0.03703243472
0.03603334718
0.03507526199
0.03421255003
0.03350159711
0.03289268061
0.03237216347
0.03189481154
0.03146411363
0.03109120999
0.03075805503
0.03046156533
0.03020583622
0.03001337586
0.0298649885
0.02974760936
0.02964274069
0.02955773226
0.02950416159
0.02946838679
0.02944176622
0.02942154634
0.02940810387
0.02939975528
0.02939310709
0.02939470612
0.02940149688
0.02941265062
0.02942770763
0.02944281614
0.02945598771
0.02946497049
0.02947013086
0.0294720671
0.029473974
0.0294781331
0.02948247227
0.02948605404
0.02949237585
0.02947085026
0.07898888234
0.07149520778
0.06546777403
0.06076272012
0.05675904269
0.05341772975
0.05054788493
0.04800894918
0.0458009209
0.04377670893
0.04210085537
0.04057350708
0.03917685573
0.03799288133
0.03696300833
0.03597274907
0.0350776718
0.03421971002
0.03345693013
0.03283182258
0.03229144328
0.03184212462
0.03141998758
0.03104887736
0.03072113057
0.03043552113
0.03018136797
0.0299677168
0.02980796103
0.02969091032
0.02959785399
0.02951878559
0.02945816835
0.02942238114
0.02939965469
0.02938631761
0.02937582681
0.02937163661
0.02937082229
0.02937137428
0.02937802627
0.02938912769
0.02940314715
0.02942007277
0.02943659997
0.02945016826
0.02945951996
0.02946504029
0.02946724337
0.02946954939
0.02947396344
0.02947814302
0.02948078764
0.02948607763
0.02946372017
0.07872360759
0.07122564952
0.06520736925
0.06037125556
0.05649541065
0.05321320704
0.05038557319
0.04784035779
0.04568548635
0.04379276285
0.04196362
0.0404808173
0.03912837096
0.03789310229
0.03684398673
0.03590496013
0.03503802841
0.03421959942
0.0334572306
0.03278355104
0.0322241227
0.03176012232
0.03136375454
0.03100783522
0.03067984063
0.03039872106
0.03015156937
0.02994210902
0.02976198166
0.02963727733
0.02954336114
0.02947394335
0.02941696985
0.02937652071
0.02935442798
0.02934578164
0.02934219678
0.02934061303
0.02934316518
0.02934912964
0.0293549762
0.02936563949
0.02937976357
0.02939624332
0.02941440249
0.02943149432
0.02944547198
0.02945462887
0.02946006775
0.02946265489
0.02946532497
0.02946970921
0.02947326697
0.02947483971
0.02947899594
0.02945606379
0.07836311216
0.07097751171
0.0650893499
0.06013118196
0.05623562877
0.05290420811
0.05019410069
0.04769412065
0.04553197439
0.04368420237
0.04197909609
0.04035373023
0.03903462995
0.0378408594
0.03674124746
0.03579151368
0.0349731826
0.03418348007
0.03346478467
0.03277544441
0.0321861194
0.03168642656
0.03128175546
0.03094950465
0.03064028945
0.03035748931
0.03012028138
0.02991150832
0.02973524681
0.0295917213
0.02949327164
0.0294212128
0.02937146278
0.02933333795
0.0293087234
0.0293013289
0.02930385924
0.02930769573
0.0293130969
0.02932175888
0.02933277297
0.02934281665
0.02935686967
0.02937289553
0.02939089744
0.02940996979
0.02942715861
0.02944063981
0.02944966739
0.0294553859
0.02945821864
0.02946106882
0.02946520554
0.0294679299
0.02946819016
0.02947127009
0.02944802669
0.07796536208
0.07067257895
0.06481422807
0.06014084615
0.05600440254
0.05275239528
0.04990334423
0.04756910688
0.04539966011
0.04354393247
0.04187641622
0.04033001455
0.03891761644
0.03774090809
0.03668634128
0.03570810969
0.03486349661
0.03412301425
0.03342721619
0.03277822311
0.03216758553
0.03164750193
0.03121113393
0.03086818051
0.03058109327
0.03031390986
0.03008143521
0.02987951565
0.02970701416
0.02956363174
0.02944848347
0.02937276534
0.0293207337
0.02928875303
0.02926617956
0.02925579819
0.02926104282
0.02927073594
0.02928094964
0.02929197245
0.02930555544
0.02932027342
0.02933365786
0.02935060698
0.02936816491
0.02938690473
0.0294063009
0.02942299867
0.02943615557
0.02944502598
0.02945080275
0.02945380761
0.02945656552
0.02946015023
0.02946201927
0.0294609242
0.02946332259
0.02944009429
0.07753494026
0.070349593
0.06455145974
0.06000550037
0.05600432729
0.05259416976
0.04975809517
0.04735572098
0.04532793037
0.04342247543
0.04174870106
0.04023222889
0.03889034352
0.03763799611
0.03658375449
0.03565117198
0.03476224315
0.03403160751
0.03337010134
0.03274093193
0.03215380418
0.03162705503
0.03117036362
0.03079985398
0.03050107858
0.03025390138
0.03003048954
0.02983944955
0.02967302057
0.02953084068
0.02941884925
0.0293288201
0.02927424435
0.02923900507
0.02922255429
0.02921292137
0.02921577019
0.02922910045
0.02924511113
0.02926062327
0.0292759233
0.02929324095
0.02931150053
0.02932727788
0.02934580677
0.02936464164
0.02938385834
0.02940283122
0.02941893534
0.02943183501
0.02944069143
0.02944621849
0.02944916218
0.02945169173
0.029454874
0.02945570359
0.02945342898
0.02945557997
0.02943274033
0.07708195432
0.07011850798
0.06428321044
0.0597659901
0.05586367773
0.0525136992
0.04960491996
0.04721914049
0.04512798325
0.0433031055
0.04163626106
0.04011613169
0.0387978144
0.03762676967
0.03648831771
0.03554950989
0.03470739299
0.03392643993
0.03328087428
0.03269845817
0.0321126768
0.03160685796
0.03114952611
0.03075623788
0.03043443561
0.03017600102
0.02997160926
0.02978597454
0.02962786314
0.0294951826
0.02938105819
0.02929766072
0.0292310787
0.02919446673
0.02917536458
0.0291700643
0.02917185885
0.02918433469
0.02920475931
0.02922599131
0.02924515397
0.02926389118
0.02928429195
0.02930484769
0.02932274348
0.02934242766
0.02936189505
0.02938104192
0.02939946322
0.02941518482
0.0294274395
0.02943593692
0.02944141186
0.02944414907
0.02944644782
0.02944923234
0.02944917645
0.02944611948
0.02944816969
0.02942556784
0.07661246643
0.06987212912
0.06408509044
0.059527783
0.05564766664
0.05230522068
0.04952120879
0.04700062179
0.04499153546
0.04312143359
0.04150704776
0.04004065404
0.0386917905
0.03753968199
0.03647355008
0.03545681672
0.03461946261
0.03386091406
0.03318091137
0.03260752432
0.03207129259
0.03156398659
0.0311210858
0.03072071622
0.03038753068
0.03011093484
0.02989952216
0.02972741847
0.02957601802
0.02944928821
0.02934279046
0.02925654957
0.02919810593
0.02915213392
0.02913285619
0.02912463961
0.02912973166
0.02914071792
0.02916075848
0.02918695653
0.02921153152
0.02923317909
0.02925478901
0.02927757188
0.02929993419
0.0293192304
0.02933975646
0.02935952855
0.02937826056
0.02939642576
0.02941141049
0.02942314205
0.0294309112
0.02943621645
0.02943883167
0.02944107732
0.02944327201
0.02944251206
0.02943907461
0.02944120606
0.0294192317
0.0762675889
0.06933838466
0.06388662636
0.05920995751
0.05543831354
0.05210826156
0.04930672191
0.04693552981
0.04477987495
0.04297861994
0.04134171536
0.03993971998
0.03864539117
0.03744026747
0.03639115246
0.0354174942
0.03453109097
0.03377197885
0.03311486367
0.03250003165
0.03198404583
0.03152111402
0.03106610671
0.03068453528
0.03034416401
0.0300604003
0.02983605274
0.02965941336
0.02951867701
0.02939408867
0.02929566585
0.02921468203
0.02915497651
0.02911833402
0.02909113673
0.02908507374
0.02908596834
0.02909874574
0.02911746838
0.02914376603
0.0291738602
0.02920051217
0.02922450274
0.02924801961
0.02927280249
0.02929620469
0.02931658357
0.02933784694
0.0293575191
0.02937605
0.02939339098
0.02940755794
0.02941847943
0.02942580496
0.02943070864
0.02943337749
0.02943547724
0.02943735966
0.02943613307
0.02943239998
0.02943477296
0.0294129836
0.07578153942
0.06901221652
0.0634169935
0.05890961458
0.05514413728
0.05199003077
0.04912661171
0.04678184185
0.04466670226
0.0427868053
0.04119394664
0.03979044534
0.03854144519
0.03736597247
0.03631777708
0.03535660712
0.03448727054
0.03370325083
0.03300983035
0.03244630165
0.0318934838
0.03143568387
0.03102994856
0.03063094508
0.03030515225
0.03001568699
0.02978181029
0.02960111763
0.02945143533
0.02933903182
0.02924012633
0.02916438328
0.02910940494
0.02907155205
0.02905523883
0.02904463254
0.02904835228
0.02905702677
0.02907595066
0.02910104883
0.02913201273
0.029164126
0.02919228953
0.02921789381
0.02924292022
0.02926893202
0.02929309439
0.02931410131
0.02933593078
0.02935569819
0.02937396075
0.02939025458
0.02940353297
0.02941347812
0.02942028738
0.02942502202
0.02942774492
0.02942981392
0.02943143069
0.0294299621
0.02942615606
0.02942870412
0.02940710707
0.07537861444
0.06861634669
0.06309103891
0.05862170637
0.05487223313
0.05178942695
0.04902160668
0.04661351658
0.04451175108
0.04270590554
0.04105393775
0.03963780116
0.03840176454
0.03726669115
0.03623466917
0.03530388713
0.0344301138
0.03366541893
0.03294790325
0.03234167605
0.03183636218
0.03135009595
0.03095706525
0.03058545117
0.03025174976
0.02997282804
0.02973056561
0.02954214979
0.02939818344
0.02927777392
0.02918708919
0.02911063839
0.02905462694
0.02902171859
0.02900449329
0.02900590799
0.02900912986
0.02902139801
0.02903564089
0.02905976804
0.02908962792
0.02912381721
0.02915694962
0.02918586931
0.0292123122
0.02923876759
0.02926587751
0.02929096904
0.02931258849
0.02933455154
0.02935390406
0.02937145537
0.02938676838
0.02939887075
0.02940824138
0.02941440053
0.02941909537
0.02942195278
0.02942410904
0.02942562353
0.02942389838
0.02942015174
0.02942280949
0.02940100902
0.07480486413
0.06827010791
0.06276647621
0.05831847778
0.05461166137
0.05153741407
0.04884697964
0.04645576956
0.04435521292
0.04255359658
0.04099698401
0.03951356295
0.03824900119
0.03712771166
0.03612291346
0.0352220592