/*--------------------------------*- C++ -*----------------------------------*\
| =========                 |                                                 |
| \\      /  F ield         | OpenFOAM: The Open Source CFD Toolbox           |
|  \\    /   O peration     | Version:  v1612+-hyStrath                       |
|   \\  /    A nd           | Web:      www.OpenFOAM.com                      |
|    \\/     M anipulation  |                                                 |
\*---------------------------------------------------------------------------*/
FoamFile
{
    version     2.0;
    format      ascii;
    class       volScalarField;
    location    "0.015";
    object      Tt;
}
// * * * * * * * * * * * * * * * * * * * * * * * * * * * * * * * * * * * * * //

dimensions      [0 0 0 1 0 0 0];

internalField   nonuniform List<scalar> 
141100
(
318.8349707
318.1867817
354.2933441
317.5853057
353.1992498
387.6739296
318.6614128
352.2572264
388.104524
421.0263458
319.5476844
354.3169711
388.5114261
421.8998391
453.8582538
319.6523663
356.1623065
389.4667314
422.8226674
454.6430481
484.0124875
318.8137695
356.4506627
390.4893409
423.6172722
455.1157385
485.8933066
514.1452752
318.0172139
354.8468289
390.9318886
423.7933292
456.7502611
487.2805524
516.1664753
544.2713713
318.2026913
353.5218005
390.5105621
424.4295223
457.0049795
488.1198793
517.8125931
545.6555044
573.0241659
319.2357119
354.0158132
390.6437501
425.1098113
457.7909229
488.5774182
518.6656176
546.7858567
574.4143539
600.4007126
319.4248356
356.0814008
391.3895897
425.8005628
458.630442
489.4014988
519.1850322
548.4678917
575.6280555
602.5150059
626.79467
319.7719607
356.6173472
392.494146
426.7454572
458.820629
490.4637738
520.147552
548.9971128
576.7269437
603.657508
629.1654829
653.30898
320.8344075
357.441304
393.3507889
427.911259
459.9214135
491.689942
521.3210126
550.0845857
577.3204782
604.2579857
630.9145686
655.4882623
678.7225984
320.9446669
359.6672765
394.4770228
428.9251309
461.2534104
492.9352452
522.8102237
551.4021786
578.412681
605.4582451
631.5112227
657.3744598
680.4276797
703.067298
320.006867
359.9638692
395.9037385
429.4021089
462.4559109
493.6015676
524.1975655
552.2556856
579.9802289
606.5960049
632.7271364
658.4880336
681.7944498
704.4688056
726.6478294
319.8629311
358.1639764
396.3495296
430.003697
463.0320891
494.9422707
524.9993735
553.7892159
581.4979907
607.6733419
633.9208581
659.0825566
683.4201474
705.8092035
728.0409259
749.3924258
319.7008521
357.7907072
395.7398741
430.5743183
463.7883454
496.4943496
526.4075144
555.4920383
583.170861
609.8993287
635.1169864
660.3474634
684.5340449
707.3675185
729.3393247
751.0151645
770.9234732
318.694598
357.4272312
395.102193
431.1424548
464.4810191
497.4155583
528.1576115
556.8832136
585.0187643
611.6595533
637.3179721
662.1442361
685.7525433
708.9693478
730.8155577
752.2483288
772.4645565
791.2233207
318.6719989
355.4406086
393.6685508
431.221417
465.1666762
498.2259018
529.198168
558.1028169
586.4873025
613.0007985
638.6067262
663.911237
687.1050157
710.1721956
732.3778008
753.6353172
773.6077941
792.3578388
810.506557
318.9753089
355.3884466
392.7278942
429.6800204
465.2336404
498.9849141
530.1090843
559.2095667
587.8064705
614.4390234
639.9854211
665.2553924
688.4205246
711.0623856
733.5773831
754.7170807
774.9295112
793.3834623
811.8992689
828.9028464
319.9968296
356.2372224
393.6894804
428.7962649
464.5885905
498.140088
530.9377312
560.1994085
588.9219207
616.6075935
641.4593473
666.5402856
690.3243975
712.4410774
734.4929357
755.9295329
775.9885145
794.6627921
813.1082046
830.1577738
846.1512898
320.1482912
358.2559638
393.9844513
429.9522434
463.5853424
496.7264812
530.0848691
561.132829
589.9728884
618.3096755
643.6971324
668.1233458
692.1049989
714.3292817
735.89304
757.2659791
777.1306175
796.0873917
813.9523594
831.2896348
847.1518844
861.8344788
320.4121916
358.6712195
394.986143
430.5357372
464.0162645
495.6513581
527.7582557
560.3473827
590.3612347
619.4327802
646.018439
670.3042774
693.6529099
716.5600839
737.7429042
758.6503567
778.475553
797.1934567
815.0133233
832.0410848
847.9178487
862.9281017
876.3630584
321.2410124
359.2707208
395.6006739
430.5431561
464.8844429
496.2244322
526.6525351
558.58863
589.6906757
619.2894662
647.221745
672.0887283
695.9208396
718.0881235
739.943205
759.9899249
779.8287999
798.0973716
816.0948738
832.7231724
848.8764919
863.6145715
877.205538
889.8894446
321.1509883
360.7775353
396.3604677
431.3172694
464.9113459
497.2947242
527.3439821
558.2709192
588.4443613
618.7435574
647.1985594
673.3716947
697.660585
719.8582732
741.4072991
761.7514716
781.1208405
799.4113175
816.9121831
833.8131891
849.5231726
864.4746616
877.8103068
890.4936439
902.2475154
320.2817773
359.5210551
397.6400173
432.1119699
465.7412816
498.1405984
528.6116784
559.111001
587.5128458
617.2625247
646.701942
673.4426528
698.4843001
721.6617211
742.6782766
763.5808443
782.7795636
801.0287205
818.1764008
834.812532
850.5920802
865.0836083
878.594253
891.0144831
902.7805071
913.2053827
320.2703934
357.9201154
396.1330917
432.3196238
466.6468522
499.0223679
530.2892469
559.6403216
588.4775981
615.7715672
645.1330155
672.9410982
698.6055059
722.5416314
744.0484791
765.2347507
784.5288842
802.9518002
819.7016686
836.0200599
851.7549264
866.0769961
879.405914
891.7245306
903.2181583
913.67193
923.1616947
321.0399672
358.9100495
394.8318221
431.6782938
466.6696613
499.2217438
531.2486108
560.6687756
589.6642509
616.8123141
643.7088191
671.4212068
698.0609784
723.1497179
745.4178531
766.6537639
786.1861025
804.2974837
821.5056727
837.435498
852.8893453
867.1337925
880.2710428
892.4623978
903.8525836
914.0296792
923.558995
932.1425073
320.1116492
360.2837854
395.8567135
431.4932625
465.0731096
499.1833451
530.6996152
561.6951818
590.7331399
618.6124146
644.7892565
669.9995531
696.6928735
722.5662988
746.480429
767.986612
787.6006968
805.5137229
822.8460827
838.818429
853.8993391
868.1835457
881.0111537
893.2575904
904.3048146
914.6010228
923.8406633
932.4631584
939.9132816
319.0621505
358.3748958
396.972881
431.5316383
465.0964743
497.4463241
529.7854779
561.9280882
591.8547253
619.7950718
646.5307451
671.079676
695.7510048
721.4104903
745.9286887
768.5921063
788.8971476
806.865375
823.9830514
840.1597696
854.9267566
869.1026031
881.9714506
893.8869065
905.0194864
915.1587224
924.3514654
932.6725223
940.2867014
946.756308
319.1440929
356.3459969
394.9824915
431.5678715
465.9750768
497.4925106
528.8290398
561.676678
592.0921557
621.0537101
647.1836342
672.8242745
696.8121448
720.919862
744.9089214
768.0929398
789.4688147
808.1326825
825.243417
841.5051323
856.1766368
870.0051065
883.0412992
894.7542841
905.7566624
915.7546823
924.8321351
933.1290594
940.4076387
947.0814626
952.7246703
320.0145496
356.569999
393.0037797
430.3223743
465.8413079
498.4736583
529.6742326
559.9685066
591.8775475
621.1467351
648.5016449
673.5397161
698.07794
721.4400525
744.4444063
767.1721578
789.0254378
809.0746679
826.4608146
842.6363552
857.7752494
870.9456159
884.0804028
895.7160572
906.5314658
916.2547203
925.3526935
933.3926033
940.7151199
947.1424333
952.9234989
957.7379053
320.004239
358.1741256
393.3494856
429.2915388
464.439946
499.1167497
529.9207601
560.0943995
590.1071737
620.3240325
649.1379523
674.8104677
698.8351284
722.290295
744.4352339
766.3617915
787.7853482
808.6538459
827.3982137
843.787625
858.9944989
872.4441051
884.9569373
896.6488411
907.3771183
916.9336822
925.7609303
933.8333325
941.0279893
947.3975079
952.9343589
957.9791146
962.0089355
320.0947352
358.17241
394.7094048
428.7939054
463.4894128
497.3830165
530.4769366
561.1225158
590.1820744
619.2323984
648.3757742
675.4777205
699.9531413
723.4678162
745.2884432
766.7384653
786.6885927
807.1772768
827.0397159
844.4444182
859.8108405
873.7675628
886.0449968
897.7219864
908.0186666
917.6729138
926.3473032
934.3032436
941.3644588
947.6504249
953.2275492
957.9978181
962.2201183
965.6023325
320.9491927
358.3169271
394.6841927
429.0625797
462.9602482
495.6783739
529.3341905
561.5171795
591.2929224
619.2530279
647.2857963
674.7500694
700.1955284
724.4882367
746.8815506
767.4789002
787.4048137
806.1855125
825.6842657
844.1590494
860.2249497
874.2783134
887.0539809
898.5931382
909.0115581
918.3974779
926.9796561
934.8033426
941.6731579
947.9074437
953.4261173
958.179786
962.2067892
965.7825358
968.5532969
321.077449
359.9619588
394.7070837
429.9259008
463.0036074
495.9849671
527.6407871
559.6308459
590.8228287
619.7766637
646.6370774
673.6666956
699.4671151
724.3189362
747.8574647
768.615481
788.4242184
806.8093656
824.7763223
843.2042309
859.9929969
874.7126146
887.730769
899.3281355
909.9089875
919.2591066
927.6109122
935.3282902
942.0881495
948.1595475
953.5986348
958.3396434
962.3492743
965.6960519
968.7425408
970.9610922
320.9105437
360.307929
396.2854352
429.7267549
463.923579
495.8939917
527.8970966
557.8781068
588.2981935
619.1033557
647.2122039
672.9822222
698.3993957
723.5807981
747.7478881
769.5905684
789.0987723
808.0833771
825.3017147
842.3483226
859.4214682
874.5103181
888.1465316
899.9226607
910.5724946
919.8855428
928.3799414
935.7369552
942.5170915
948.4930657
953.8180441
958.4411154
962.4537643
965.8096089
968.6473879
971.1284115
972.8825026
320.5575354
359.9541517
396.7517634
430.4741831
462.6233242
495.9941369
526.9278128
558.0503278
586.4434894
616.6511647
647.0197428
673.5492064
698.2497737
722.533605
747.0211646
769.4558301
790.1271547
808.7137135
826.461041
842.7775415
858.8559871
874.0421159
888.0032057
900.3249656
910.9047098
920.4451258
928.8861599
936.2836997
942.8445183
948.8347506
954.0756231
958.554871
962.5069937
965.9129072
968.716298
971.0346625
973.0336252
974.3969688
319.5640367
358.1977321
396.2695433
430.9792435
462.5851477
494.3943507
527.0240216
557.0005659
586.5118923
614.7018593
644.6346751
673.3157461
698.7673487
722.3872041
745.9981348
768.7680682
790.2779632
809.7687752
827.0585215
843.5545502
858.9255734
873.7371158
887.5896895
900.2156756
911.2669958
920.876407
929.3245553
936.8180908
943.2941927
949.0883807
954.3387414
958.7434259
962.5832496
965.9386646
968.7434044
971.095795
972.9329284
974.5468735
975.569012
319.4777895
356.1694166
393.2250924
430.4028747
463.0840248
494.4387036
525.9604625
557.0111386
586.1164903
614.6434422
642.6086342
670.9607753
697.9987471
722.8608003
745.3548506
767.7705596
789.6522304
810.1825374
828.0475128
844.1151962
859.3860589
873.4871665
887.0801553
899.8527904
911.1676632
921.1772825
929.6992581
937.2507308
943.7098126
949.4396856
954.5216587
958.9389151
962.7117099
965.9717776
968.7523955
971.0624654
972.9637839
974.4373944
975.732963
976.4593613
320.4900831
355.8712575
391.2617513
427.1452529
462.4285829
494.9227839
526.0838471
555.8724106
585.992874
614.2565491
642.4094351
668.8847831
695.6446163
722.0823183
745.7674454
767.5666863
788.6855926
809.61469
828.4184127
844.96476
859.8350557
873.9016952
887.0102105
899.3769175
910.6964306
921.1019673
929.9487309
937.4482016
944.0464128
949.7594844
954.6901727
959.1204054
962.845943
966.0485601
968.7777964
971.0256106
972.9132224
974.4270149
975.6156639
976.6243964
977.1290963
320.4673607
356.8172968
390.7965807
425.1411121
459.8755176
494.1964797
526.5530348
556.020066
584.165639
613.994889
641.3588329
668.5464081
693.5420545
719.7254821
745.4871595
767.8800081
788.5236003
808.3267755
827.8747425
845.0296865
860.5880146
874.2499176
887.3489114
899.2704213
910.2662966
920.6596438
929.8797007
937.6285892
944.296189
949.9049534
954.917599
959.2523026
962.9669099
966.1287147
968.8071897
971.0452152
972.8534868
974.3646871
975.5704549
976.499542
977.2974683
977.6201611
320.6157891
357.5736736
390.5837957
424.6695068
457.7776098
492.4437575
525.755089
556.4744305
584.2883704
612.1461489
641.0371938
667.4436839
693.0761473
717.6106895
743.1332032
767.2315346
788.3194806
807.8051751
826.2877362
844.497042
860.6192294
874.9002646
887.6248434
899.5231633
910.1146646
920.1242415
929.4908642
937.5528886
944.3907823
950.1073248
954.9850845
959.3313667
963.069169
966.1485996
968.8137377
971.0356337
972.8434729
974.3022471
975.4953289
976.4451412
977.1638403
977.7951929
977.9725881
320.7354236
357.8409169
391.176788
425.0717324
457.3927897
490.1692742
523.2589074
555.6175358
584.7130676
612.215871
639.7687342
667.0143453
692.4620082
717.0306815
741.0249036
764.8518096
787.7202029
807.472952
825.79404
843.28181
860.0948673
875.1578537
888.1408579
899.6966042
910.4472473
919.9421088
928.9935028
937.0973374
944.2224956
950.2029547
955.0476924
959.3403849
963.0635506
966.1669665
968.7794251
970.9794275
972.8051215
974.2548479
975.4153628
976.3593847
977.1002139
977.6527294
978.1521824
978.2181057
319.6909068
357.0790186
391.5721663
425.4303743
458.4212684
489.0675555
520.9203433
552.3601568
583.8292895
612.6004835
639.7554615
665.8161137
691.9236212
716.386809
740.3416801
762.7784347
785.723078
806.9557993
825.700608
842.779114
858.9779037
874.6425794
888.1531334
900.1194421
910.5148201
920.172494
928.779777
936.6125422
943.8973925
950.0272228
955.1420053
959.3799069
963.0171893
966.1383155
968.7227612
970.9214687
972.7178268
974.1935937
975.3367759
976.2650687
977.0040411
977.5737838
978.0018994
978.402007
978.382695
319.6582364
355.8592298
390.741224
425.0892398
458.7340374
489.1949566
519.6805641
550.0460518
581.290434
611.7155349
640.0903779
665.6614202
690.3040098
715.7486747
739.1391391
762.0279947
783.3225687
804.9744263
824.8436047
842.3017736
858.4294224
873.3386373
887.6442077
900.073557
910.6876389
920.152168
928.8810748
936.5120089
943.4300025
949.7318433
955.0262634
959.3572608
962.9823696
966.0370101
968.606664
970.8033875
972.6180455
974.0917034
975.258505
976.1820547
976.9003366
977.468057
977.9094871
978.2448753
978.567876
978.4915035
319.4767603
355.8119892
390.3970737
424.1616845
458.4002756
488.688083
518.9897798
549.3986898
578.9177565
609.3959391
638.6586982
665.9532902
689.94848
714.2348231
738.0480362
760.7526333
782.1170057
802.6071687
822.5983793
841.7443466
857.8748809
872.768084
886.4289262
899.3933693
910.5907555
920.2321432
928.7995981
936.5010294
943.2073575
949.284704
954.6720492
959.1609407
962.8595556
965.8946214
968.4490622
970.60948
972.4507826
973.9396031
975.142102
976.0884168
976.8121704
977.3562369
977.7947438
978.1404211
978.4045471
978.6766819
978.5607372
318.3439
355.3834217
390.3255903
423.7497262
457.2678181
489.1971276
518.4508403
548.6328169
577.5708347
606.8518155
635.8742862
663.9816011
690.2100208
713.6323123
737.0797413
759.185439
781.1823027
801.3661604
820.6717471
839.89928
857.3305243
872.3923088
885.7795724
898.2582889
909.9208292
920.0776013
928.7795209
936.3732699
943.0882409
949.014234
954.2580153
958.8190339
962.6307659
965.7245202
968.2804472
970.4004741
972.2113296
973.7316942
974.9636783
975.9452573
976.7015134
977.2585934
977.6729855
978.0171757
978.2892532
978.5078017
978.7461821
978.5972324
318.2206712
354.0351154
389.743307
423.7596001
455.9903726
488.6177857
518.9416427
548.0774275
576.7087771
605.4925049
633.3211661
661.4273441
688.8317389
713.8909446
736.2103239
758.3165966
779.9755799
800.4257009
819.7148311
837.7699739
855.6089208
871.5484364
885.3766133
897.5061518
909.0339708
919.4358412
928.5938187
936.2291778
942.9113336
948.8266457
953.9983857
958.4201689
962.2988498
965.5102357
968.072
970.1857126
971.9572205
973.4662112
974.7221602
975.7401966
976.532936
977.1373455
977.5648126
977.8854426
978.1584124
978.3819105
978.5722289
978.7841359
978.6124954
318.1072525
353.8185398
389.1923522
422.9130474
456.1195806
487.2653908
518.2042889
548.4865425
576.1353969
604.488792
632.5238596
658.8049882
686.4369578
712.6539666
736.0133937
757.6343266
778.7594081
799.2151036
818.4048606
836.469214
853.5191179
869.7474741
884.4774028
897.1020958
908.1872726
918.5791745
927.923759
935.8928963
942.6701544
948.5883141
953.6863867
958.1049002
961.9013376
965.1825278
967.8001326
969.9352477
971.6952829
973.1742264
974.4346694
975.4720761
976.3166052
976.9592265
977.4396036
977.7694617
978.0212137
978.2441464
978.4369721
978.6060727
978.7978049
978.6021613
318.0507093
353.5885194
388.9386022
422.3982047
454.9430363
487.5121388
516.8932508
547.6186766
576.4185803
603.8923276
631.9344642
657.9897495
683.8989447
710.3019847
734.8418924
756.9631383
777.9427456
797.9445635
816.8836098
835.1691269
852.2302833
867.9879377
882.8428277
896.3214253
907.7677614
917.706162
926.9703218
935.323391
942.2862871
948.2517872
953.3870068
957.7507474
961.5426709
964.7785798
967.4681691
969.6395477
971.414592
972.877848
974.1098306
975.148717
976.0240121
976.7256559
977.254614
977.6381726
977.8999814
978.1002539
978.2901179
978.4611519
978.6172034
978.7892457
978.5695158
319.0402918
353.4972046
388.603422
422.1093343
453.734342
485.2367771
517.1506621
545.6107763
575.4913436
604.0134644
631.3097617
657.8389136
682.9419233
707.9846651
732.6500244
755.9363217
777.5273047
797.0125008
815.8784271
833.9323337
850.9750013
866.7319405
881.1677562
894.8433894
907.0995502
917.2034768
926.0940971
934.3926154
941.7046186
947.8101979
953.0342221
957.3927583
961.145188
964.3844482
967.0539058
969.297662
971.094002
972.5646444
973.772002
974.7960643
975.6746583
976.4174753
977.007118
977.4470531
977.7625177
977.9729566
978.1389269
978.3082462
978.4678553
978.6072671
978.757084
978.5141796
319.0449868
354.6111102
387.6132469
421.6745872
453.3831093
483.3762099
514.6014027
545.906934
573.5052539
602.5106394
630.6832153
657.1583345
682.2450564
706.3385729
730.4285666
753.8024947
776.2410686
796.5553981
814.8877648
832.8480505
849.7029815
865.5194746
879.7207277
893.1112665
905.6021906
916.5211126
925.4846777
933.5184883
940.804632
947.1503745
952.5366414
956.9661982
960.6926816
963.9449767
966.6291684
968.8699063
970.7386656
972.2184084
973.4292248
974.4382334
975.2993072
976.0514877
976.6855163
977.1919441
977.5659887
977.8292918
978.0054121
978.1518782
978.3083068
978.4543559
978.5745747
978.7014001
978.4382785
319.0406079
354.5359024
387.8590404
419.7459773
452.8390007
482.9500768
512.8064984
543.819382
573.7159779
600.5451948
628.6498215
655.809838
681.4666754
705.1626442
728.659819
751.7707935
774.2067553
795.2860593
814.0273021
831.5381183
848.26096
864.1431753
878.5575305
891.7039339
903.8123672
915.1237579
924.6941721
932.8098254
939.906856
946.2737959
951.8024269
956.4183289
960.1620503
963.4110844
966.1555669
968.4184416
970.2947514
971.8465363
973.070151
974.0760655
974.9227401
975.6576044
976.310604
976.8626551
977.3033753
977.6276493
977.8560124
978.013924
978.1484215
978.2928715
978.4194414
978.5197704
978.6275693
978.3502833
319.096654
354.4672761
388.4649286
419.9543877
451.6046716
482.2956838
512.3128343
542.0701119
571.5759544
600.6218407
626.6910653
653.9224463
680.0120648
704.2694858
727.4872056
750.3304238
772.3127709
793.4310054
813.1169372
830.6090107
847.0173765
862.4472007
877.3449682
890.5407133
902.6543182
913.5026602
923.5445185
931.9376715
939.1488621
945.3481396
950.9571644
955.6800209
959.5670317
962.7951093
965.6122156
967.9162226
969.8182086
971.384525
972.6803883
973.684081
974.5351788
975.2610323
975.9028337
976.4812077
976.9719756
977.3625621
977.648586
977.8604682
978.004763
978.1253101
978.2537939
978.3658626
978.4484082
978.5400599
978.249161
318.2496426
354.5813059
388.3132767
421.2227031
451.6412886
481.7745101
511.5487614
541.5156764
569.8198904
597.8959258
626.6293564
651.8511778
678.1685543
703.2295586
726.4884231
749.1450716
770.4595399
791.5908199
811.3505393
829.6783996
846.1967559
861.2206711
875.6529437
889.1318272
901.4540803
912.382495
922.1404541
930.8691122
938.2959497
944.4963724
949.9977336
954.8422062
958.8587091
962.155253
964.9886828
967.3484446
969.2957061
970.8764128
972.1992399
973.2741984
974.1226753
974.8540183
975.4898278
976.0629223
976.5838183
977.0276525
977.3859262
977.65186
977.8466521
977.9758764
978.0844606
978.2008959
978.2986913
978.3648814
978.4399573
978.1393612
318.2191151
353.7897094
387.6425133
421.0380792
452.0562322
482.3577913
510.9378505
540.6419214
569.2097496
596.1016242
623.9093051
651.7709886
676.1084435
701.3854993
725.4498072
748.0592193
769.2253726
789.7663579
809.3459885
828.0470729
844.9873119
860.548617
874.4207719
887.4318981
899.9202459
911.1837142
920.9526452
929.5794942
937.2974129
943.6476484
949.0887591
953.8816867
958.0617067
961.4662347
964.3077029
966.6933314
968.679135
970.3316887
971.6613148
972.7747014
973.6931048
974.4266189
975.0700407
975.6390565
976.1590595
976.6389259
977.0485675
977.3831455
977.6334789
977.8116429
977.9285522
978.0291807
978.1372904
978.2225657
978.2701693
978.3297063
978.0243526
318.1251605
353.6296858
386.9176688
419.4606787
451.9057475
481.9067859
511.4703361
539.2871175
568.2333202
595.4327184
622.0920718
649.5577163
675.891591
699.3899881
723.5371102
746.5535882
768.076652
788.4758839
807.5234732
826.101383
843.5005527
859.2761939
873.6471488
886.1828661
898.2109819
909.6974324
919.6365388
928.4135407
935.9822405
942.711959
948.2378846
952.9845435
957.1258189
960.671761
963.568542
965.9758095
967.9855083
969.7049131
971.1021984
972.2199455
973.175229
973.9747295
974.6194272
975.2045994
975.7297632
976.212302
976.6602256
977.0489085
977.3652582
977.5941422
977.7581343
977.8690169
977.9646821
978.064168
978.1376101
978.1660522
978.2159536
977.9107434
318.0699349
353.3454308
386.6653925
417.9261818
450.2172515
481.1248722
510.8684681
539.0925783
566.1714942
594.3594661
621.3500146
647.735953
673.7536183
698.993712
721.6237138
744.6486931
766.9662302
786.9513735
806.1801044
824.3155498
841.9229742
857.739842
872.3522036
885.3304877
896.9416546
907.9954007
918.3107095
927.1268996
934.8665648
941.5342494
947.3527697
952.135215
956.2364551
959.7575263
962.7367237
965.2040466
967.2365768
968.9956999
970.4646033
971.6435773
972.603363
973.4399008
974.1534181
974.7377249
975.2783531
975.7731735
976.2317072
976.6615742
977.0292402
977.3214226
977.5375131
977.6929486
977.8003608
977.8924332
977.9874978
978.0465727
978.0585761
978.1050883
977.8046929
318.0581819
352.4044544
386.2107103
417.6228921
448.6248299
480.0247899
510.1163671
538.373546
565.9014149
592.9001205
620.1925662
646.9097003
671.9108557
696.5047897
721.0754489
742.7109299
764.9828466
785.8649078
804.647617
822.6540674
840.1405918
856.1645033
870.6860306
884.0322346
896.0291844
906.7206835
916.6530529
925.8506402
933.6952433
940.4381674
946.293785
951.2840137
955.391593
958.9165771
961.8637335
964.3867418
966.4621561
968.2208244
969.7435278
970.9915584
972.0084814
972.8510502
973.596751
974.246924
974.7951317
975.3140807
975.7877531
976.2323053
976.6433328
976.9865892
977.2604546
977.465813
977.6190356
977.7239897
977.8143792
977.9045886
977.9520591
977.9538575
977.9989788
977.7022945
317.8731391
351.4919625
385.2194962
417.0503795
448.2559804
479.081661
508.875035
538.3230173
565.068876
592.4236373
618.8381868
645.1887459
671.0056255
694.6185175
718.676079
742.1551543
762.7264191
784.1084329
803.5164063
821.1838835
838.4431652
854.3949093
869.1862517
882.6187875
894.7320356
905.7629687
915.2506493
924.2277437
932.3369299
939.2210014
945.1824504
950.2450411
954.5580832
958.0786879
961.0319274
963.5266454
965.6440671
967.4185355
968.9497957
970.2606356
971.3443445
972.2340626
972.9875096
973.6759913
974.2910644
974.8144614
975.3200603
975.7835962
976.212716
976.6021933
976.9259923
977.1898131
977.3862
977.5370444
977.6425294
977.7348866
977.8182674
977.8563148
977.853006
977.8994603
977.6109562
317.8916108
351.9295372
384.1896336
416.8960174
447.5547152
478.6601895
507.9587027
536.7841513
565.0190966
591.626382
618.0918972
643.3481094
668.7621714
693.6489111
716.7636965
740.1986373
762.0794294
781.9670092
801.7807731
820.2437891
837.0217455
852.750504
867.6247023
881.1519894
893.3665787
904.4627804
914.2576242
922.8491719
930.8186814
937.9622287
943.9405449
949.1347041
953.488961
957.221519
960.1997606
962.7166617
964.808115
966.5976102
968.1200036
969.454688
970.6058986
971.5595042
972.3538767
973.0510525
973.7059628
974.3003101
974.8146291
975.3122858
975.7616235
976.17402
976.5432504
976.8546297
977.1080989
977.3017329
977.4497318
977.5589439
977.6511113
977.7321787
977.7649424
977.7575757
977.8074356
977.5222035
317.7513557
352.0401852
384.4535393
416.5308094
447.4131599
477.1468951
507.4593636
535.305497
563.9265901
591.359197
617.3654128
642.3948515
666.9640462
691.9543756
715.3384009
737.8876197
760.2376939
780.8310482
800.024496
818.2504201
835.7494516
851.3496906
865.7768959
879.4231955
891.714607
902.9155105
912.9691133
921.7325496
929.5597029
936.5438467
942.7204867
947.9164688
952.3284555
956.0981108
959.3353263
961.8730971
964.0343228
965.77974
967.3057344
968.6177952
969.7942973
970.8163904
971.6650655
972.3942489
973.0645083
973.7031719
974.2836113
974.7888934
975.2771938
975.7169697
976.1172493
976.4741116
976.7756371
977.020193
977.2096289
977.3598532
977.4727513
977.5668098
977.6455436
977.6757758
977.6682217
977.7209539
977.4383128
317.7220294
351.6553757
384.6846452
415.8374278
446.9762145
476.2594003
505.8206312
534.7283286
562.4542738
589.7314628
616.282257
641.6643171
665.8045498
690.0330486
713.7777569
736.016138
757.8852313
778.8154603
798.7235745
816.5572784
833.8354677
850.0215215
864.1947507
877.8087436
889.8663394
901.1492129
911.3840388
920.4586906
928.3423858
935.2531693
941.3812011
946.6570468
951.1585079
954.9353286
958.2147695
961.0100161
963.1795103
965.0143053
966.4905547
967.8003227
968.9503796
970.0026457
970.9208907
971.6987797
972.3941671
973.0483134
973.6769187
974.246895
974.7466755
975.2280571
975.6581243
976.0470417
976.3961292
976.6860931
976.9275155
977.1131798
977.2666383
977.3844615
977.4820122
977.5614218
977.5889855
977.5825917
977.6371432
977.3519701
317.8691246
351.5410059
384.0888926
416.1356412
446.1805495
475.7389706
504.845535
533.674364
561.7970159
588.2289008
614.2208208
640.3707384
665.0653381
688.8407596
712.0650747
734.5210188
756.0619844
776.8383115
796.5891941
815.4577514
832.1319294
848.2256068
863.1179658
876.2402244
888.4938158
899.3260313
909.7653907
918.9294689
927.0984554
934.1339706
940.158495
945.4416372
949.9827986
953.7812718
957.0288961
959.8710661
962.2890514
964.1745993
965.7370966
966.9930845
968.1349482
969.1668418
970.1132337
970.9555218
971.6892409
972.3634161
973.0035527
973.6209982
974.1868832
974.683125
975.1646382
975.5913854
975.9717444
976.3138186
976.5952281
976.8266231
977.0140501
977.170651
977.2948727
977.3966617
977.4763035
977.5044977
977.4981108
977.551382
977.2611824
317.7108834
351.0063079
383.0968445
415.2521124
446.4243568
474.8755092
503.6696079
532.5844243
560.0706241
587.4691477
612.6565918
638.3849345
664.117143
687.9266127
710.9409757
732.7249372
754.5692414
775.2916286
794.608401
813.4847275
830.7695704
846.2490525
861.347308
875.0017575
887.0694054
898.0120348
907.9740579
917.3422425
925.6077389
932.8933383
939.0825567
944.3311749
948.8315513
952.6404713
955.8644651
958.6754826
961.1484054
963.2764082
964.9092374
966.2480468
967.3253186
968.3456035
969.2911675
970.1593617
970.9453844
971.6433017
972.2982406
972.9333492
973.5470763
974.1077647
974.6078935
975.0868757
975.5155
975.891456
976.2224947
976.4962922
976.7214854
976.9075392
977.0724646
977.2037679
977.3101204
977.3905894
977.4181025
977.4104499
977.4594127
977.1574314
317.6297186
350.6102874
382.6055189
413.4903174
445.3819107
474.9660907
502.7422749
530.8102979
558.2892065
585.6003801
611.7964214
636.750032
662.1688876
686.53084
709.3609081
731.5614136
752.3495047
773.5030367
793.0962414
811.2446967
828.8933867
844.6826528
859.2164216
873.3208039
885.7054629
896.7746238
906.5771034
915.5510624
923.8971083
931.2924345
937.8185997
943.2237574
947.7326903
951.5715708
954.7565543
957.5291357
959.9493984
962.0978441
963.9792854
965.411217
966.5764504
967.5310984
968.4640398
969.3424581
970.1588008
970.8948662
971.559709
972.2066677
972.8405938
973.4568185
974.0184111
974.523094
975.0096568
975.4299266
975.8040388
976.126473
976.390568
976.6144114
976.8025738
976.9720979
977.1107541
977.2206384
977.3011631
977.3265964
977.315689
977.357386
977.0459106
317.6825344
350.4099943
382.8117061
413.1117343
443.5727754
473.9278817
502.6118732
529.8063815
557.1781853
583.8424565
610.4291884
635.8008624
660.4676384
684.5657489
707.6065332
729.8332073
751.1546225
771.3028677
791.2816752
809.4087277
826.6641061
842.8772572
857.675349
871.2415458
884.1550165
895.4148321
905.3699721
914.1921549
922.172343
929.5622557
936.2202023
941.9372571
946.6623637
950.5337112
953.7683207
956.4527838
958.7965835
960.8958004
962.793344
964.4822667
965.7368385
966.7642992
967.6396351
968.5246838
969.3546491
970.1188003
970.8031071
971.4480705
972.0965206
972.7383502
973.3537084
973.9247216
974.4321831
974.9241726
975.3468733
975.7143339
976.0284099
976.2826831
976.4998256
976.6913193
976.8697666
977.0148333
977.1267447
977.205401
977.2269501
977.2105507
977.2438874
976.92091
317.6404055
350.4496679
382.4803697
413.2102066
442.4543499
472.0571993
500.9982535
529.4916723
555.9872851
582.7216377
608.6180879
633.8778438
659.4238484
682.8162645
705.6244098
728.1148466
749.7089187
769.9824001
789.1448291
807.9548931
824.8836359
840.9796295
855.9359942
869.7286105
882.2870877
893.8982015
904.0626561
912.9313456
920.8249997
927.8737183
934.4721463
940.3838686
945.3820759
949.5027001
952.7998807
955.5255141
957.770615
959.761962
961.588687
963.282759
964.791759
965.9033473
966.8432548
967.6731103
968.5300202
969.325631
970.0316385
970.6810779
971.3188665
971.9756169
972.6218192
973.2439151
973.8167806
974.3365562
974.8277835
975.2539589
975.6154172
975.9220074
976.1701857
976.3859281
976.5809208
976.7650077
976.9150483
977.0266255
977.1011483
977.1167261
977.0939216
977.1196419
976.7935108
317.5998329
350.3140404
382.4877402
412.6902547
441.7427147
470.8914327
499.0077658
527.9244292
555.0457963
581.4642562
606.8922902
632.1378284
656.9476136
681.6955704
703.8217367
726.1383756
747.9817947
768.2414639
787.3852236
805.7692483
823.4299408
839.3853835
854.0971132
868.0497207
880.8031608
892.0678349
902.5113326
911.6822257
919.51421
926.5361478
932.7581626
938.6990259
943.8708934
948.2630571
951.8093841