# Probe 0 (5e-06 5e-06 5e-06)
#           Probe                 0
#            Time
            1e-08       11.54042558
            2e-08       18.96823168
            3e-08       24.21592047
            4e-08       37.68123988
            5e-08       43.92749114
            6e-08       53.52385776
            7e-08       63.57843843
            8e-08       71.88538359
            9e-08         82.557066
            1e-07       94.15537093
          1.1e-07       104.7746482
          1.2e-07       118.5290678
          1.3e-07       125.2284301
          1.4e-07       135.5241918
          1.5e-07       147.0463221
          1.6e-07       158.7718401
          1.7e-07       170.6556366
          1.8e-07       185.7693281
          1.9e-07        195.883892
            2e-07       205.1409036
          2.1e-07       215.0374418
          2.2e-07        220.449108
          2.3e-07       233.2008827
          2.4e-07       244.9941294
          2.5e-07       256.8489954
          2.6e-07       270.8451887
          2.7e-07        282.274081
          2.8e-07       292.4338815
          2.9e-07       301.0796593
            3e-07       310.1549094
          3.1e-07       319.2916863
          3.2e-07       330.8270139
          3.3e-07       342.9599391
          3.4e-07        353.148835
          3.5e-07       362.8433543
          3.6e-07       373.1339773
          3.7e-07       384.2315546
          3.8e-07       391.8418755
          3.9e-07       398.6990559
            4e-07       406.6926571
          4.1e-07       415.9257034
          4.2e-07       427.6184843
          4.3e-07       436.2332663
          4.4e-07        445.880059
          4.5e-07       452.8180492
          4.6e-07       463.4555094
          4.7e-07       476.3074413
          4.8e-07       487.4445634
          4.9e-07       495.6456131
            5e-07       502.4244568
          5.1e-07       512.9041365
          5.2e-07       522.5467203
          5.3e-07       530.0590242
          5.4e-07       539.2842293
          5.5e-07       549.5441761
          5.6e-07       562.9926124
          5.7e-07       574.3489963
          5.8e-07       581.8889921
          5.9e-07       588.7479856
            6e-07       600.9548409
          6.1e-07       609.5371939
          6.2e-07       619.7927108
          6.3e-07       628.1848422
          6.4e-07       641.1738608
          6.5e-07        653.041672
          6.6e-07       664.0562315
          6.7e-07       672.1715078
          6.8e-07       678.7874376
          6.9e-07       688.9374403
            7e-07       695.1563858
          7.1e-07       701.7540011
          7.2e-07        713.217638
          7.3e-07       722.9594619
          7.4e-07       730.7858209
          7.5e-07       741.7561046
          7.6e-07       754.7301359
          7.7e-07       760.3089013
          7.8e-07       768.2009277
          7.9e-07       779.1039789
            8e-07       790.4081512
          8.1e-07       802.9611297
          8.2e-07       813.6455079
          8.3e-07       823.3325689
          8.4e-07       831.8053706
          8.5e-07       841.5916874
          8.6e-07       850.1559525
          8.7e-07       858.2138694
          8.8e-07       865.9025983
          8.9e-07       874.6374224
            9e-07       882.5367049
          9.1e-07       894.6608053
          9.2e-07       905.4123546
          9.3e-07       918.8657986
          9.4e-07       926.5735897
          9.5e-07       936.2225956
          9.6e-07       944.4193837
          9.7e-07       952.7066785
          9.8e-07         965.44159
          9.9e-07       973.2789759
            1e-06       988.3762915
         1.01e-06       1000.383505
         1.02e-06       1014.134189
         1.03e-06       1023.943759
         1.04e-06       1035.437695
         1.05e-06       1043.814376
         1.06e-06       1054.262003
         1.07e-06       1067.967125
         1.08e-06       1076.218395
         1.09e-06       1085.288927
          1.1e-06       1093.678565
         1.11e-06       1099.251545
         1.12e-06       1109.092749
         1.13e-06        1118.75649
         1.14e-06       1125.542943
         1.15e-06       1135.753978
         1.16e-06       1144.884651
         1.17e-06       1149.761129
         1.18e-06       1157.529187
         1.19e-06       1165.053441
          1.2e-06       1174.604114
         1.21e-06       1183.189939
         1.22e-06       1193.213722
         1.23e-06       1204.865648
         1.24e-06       1215.518398
         1.25e-06       1229.999041
         1.26e-06       1236.583374
         1.27e-06       1244.691038
         1.28e-06        1254.11667
         1.29e-06       1264.599694
          1.3e-06       1273.722833
         1.31e-06        1282.52042
         1.32e-06       1287.952502
         1.33e-06       1298.419033
         1.34e-06       1305.547492
         1.35e-06       1317.452699
         1.36e-06       1324.909862
         1.37e-06       1331.176408
         1.38e-06       1343.874393
         1.39e-06       1352.680079
          1.4e-06       1365.441512
         1.41e-06       1372.982922
         1.42e-06       1383.120085
         1.43e-06       1392.369094
         1.44e-06       1402.566654
         1.45e-06       1407.876344
         1.46e-06        1417.90701
         1.47e-06       1427.486002
         1.48e-06       1434.954367
         1.49e-06       1442.401589
          1.5e-06       1454.420751
         1.51e-06       1466.112868
         1.52e-06       1474.155285
         1.53e-06       1482.092898
         1.54e-06       1484.415732
         1.55e-06       1490.133503
         1.56e-06       1498.667658
         1.57e-06       1504.255583
         1.58e-06       1511.104374
         1.59e-06       1517.134302
          1.6e-06       1526.894558
         1.61e-06       1539.711947
         1.62e-06       1541.600471
         1.63e-06        1550.71852
         1.64e-06       1557.484162
         1.65e-06       1565.199957
         1.66e-06       1570.507294
         1.67e-06       1577.609659
         1.68e-06       1588.540853
         1.69e-06       1593.868375
          1.7e-06       1604.380574
         1.71e-06       1611.707331
         1.72e-06       1626.454999
         1.73e-06       1639.152318
         1.74e-06       1650.616284
         1.75e-06       1659.199076
         1.76e-06       1664.647971
         1.77e-06         1670.5172
         1.78e-06       1682.287288
         1.79e-06       1693.116591
          1.8e-06       1700.181933
         1.81e-06       1711.201566
         1.82e-06       1718.785992
         1.83e-06        1720.49022
         1.84e-06       1726.843075
         1.85e-06       1730.792111
         1.86e-06       1734.755388
         1.87e-06       1740.530135
         1.88e-06       1746.961856
         1.89e-06       1752.810412
          1.9e-06        1762.64646
         1.91e-06       1771.555228
         1.92e-06       1780.091135
         1.93e-06       1792.731101
         1.94e-06       1801.386019
         1.95e-06       1815.584056
         1.96e-06        1823.33783
         1.97e-06       1830.093437
         1.98e-06       1837.052812
         1.99e-06       1847.323252
            2e-06        1854.13497
         2.01e-06        1861.93125
         2.02e-06       1871.213503
         2.03e-06       1877.177828
         2.04e-06       1886.994808
         2.05e-06       1894.140799
         2.06e-06       1904.509215
         2.07e-06       1911.689531
         2.08e-06       1921.382828
         2.09e-06       1924.614904
          2.1e-06       1930.331888
         2.11e-06       1933.299004
         2.12e-06       1942.192149
         2.13e-06       1951.494304
         2.14e-06       1965.313358
         2.15e-06        1969.33494
         2.16e-06       1971.032387
         2.17e-06       1972.310777
         2.18e-06       1984.961568
         2.19e-06       1997.894729
          2.2e-06       2003.485987
         2.21e-06       2011.122978
         2.22e-06       2022.600426
         2.23e-06       2026.344697
         2.24e-06       2034.179594
         2.25e-06       2041.483754
         2.26e-06       2053.296925
         2.27e-06       2062.999783
         2.28e-06       2069.594252
         2.29e-06       2080.402455
          2.3e-06       2083.419082
         2.31e-06       2088.893098
         2.32e-06       2095.930382
         2.33e-06       2104.051643
         2.34e-06       2111.399787
         2.35e-06       2124.615763
         2.36e-06       2134.472865
         2.37e-06       2141.355198
         2.38e-06        2151.41085
         2.39e-06       2150.903956
          2.4e-06       2160.925312
         2.41e-06       2166.520741
         2.42e-06       2177.174121
         2.43e-06       2186.334833
         2.44e-06       2193.504524
         2.45e-06       2205.490785
         2.46e-06       2209.794229
         2.47e-06       2219.330831
         2.48e-06       2237.263704
         2.49e-06       2239.650598
          2.5e-06       2247.842817
         2.51e-06       2248.376451
         2.52e-06       2257.837363
         2.53e-06       2261.242369
         2.54e-06       2270.049646
         2.55e-06        2278.66471
         2.56e-06       2288.721677
         2.57e-06       2296.510884
         2.58e-06       2301.985146
         2.59e-06       2301.818011
          2.6e-06       2307.106921
         2.61e-06       2309.065182
         2.62e-06       2325.263584
         2.63e-06       2329.355279
         2.64e-06       2341.253523
         2.65e-06       2350.991469
         2.66e-06       2363.432774
         2.67e-06       2369.301463
         2.68e-06       2374.989016
         2.69e-06       2379.441931
          2.7e-06       2387.859879
         2.71e-06       2393.607255
         2.72e-06       2402.387214
         2.73e-06       2411.866154
         2.74e-06       2415.230497
         2.75e-06       2423.412778
         2.76e-06       2430.472835
         2.77e-06       2434.141263
         2.78e-06       2440.271046
         2.79e-06       2442.344935
          2.8e-06       2447.546961
         2.81e-06       2452.307931
         2.82e-06       2461.061583
         2.83e-06        2471.95202
         2.84e-06       2484.621971
         2.85e-06        2490.35618
         2.86e-06       2504.908341
         2.87e-06       2512.104624
         2.88e-06       2515.543553
         2.89e-06       2523.394724
          2.9e-06       2533.750653
         2.91e-06       2541.755924
         2.92e-06       2543.221835
         2.93e-06       2554.281181
         2.94e-06       2561.936628
         2.95e-06       2564.677468
         2.96e-06       2571.070177
         2.97e-06       2570.636378
         2.98e-06       2579.707286
         2.99e-06       2583.562552
            3e-06       2587.482494
         3.01e-06       2595.497071
         3.02e-06       2599.594038
         3.03e-06       2607.349754
         3.04e-06       2615.188508
         3.05e-06       2615.515114
         3.06e-06       2619.097731
         3.07e-06       2629.738417
         3.08e-06       2630.174765
         3.09e-06       2632.409311
          3.1e-06       2644.780914
         3.11e-06        2648.95553
         3.12e-06       2657.910625
         3.13e-06       2663.650498
         3.14e-06        2671.46352
         3.15e-06       2677.930629
         3.16e-06       2682.173027
         3.17e-06       2691.473975
         3.18e-06       2698.410469
         3.19e-06       2702.240727
          3.2e-06        2713.09957
         3.21e-06         2717.1716
         3.22e-06       2721.988605
         3.23e-06       2732.416996
         3.24e-06       2739.676371
         3.25e-06       2744.349659
         3.26e-06       2747.968137
         3.27e-06       2756.465117
         3.28e-06        2765.21229
         3.29e-06       2775.894155
          3.3e-06       2776.868181
         3.31e-06       2783.701786
         3.32e-06       2792.873472
         3.33e-06       2803.548467
         3.34e-06       2803.700315
         3.35e-06       2813.395165
         3.36e-06         2820.8028
         3.37e-06       2827.669104
         3.38e-06       2836.509444
         3.39e-06        2846.62926
          3.4e-06       2861.138485
         3.41e-06       2864.564137
         3.42e-06       2875.510964
         3.43e-06       2882.675982
         3.44e-06       2886.305347
         3.45e-06        2883.56018
         3.46e-06       2895.998052
         3.47e-06       2905.255881
         3.48e-06        2908.47046
         3.49e-06       2916.161527
          3.5e-06       2919.637391
         3.51e-06       2935.079029
         3.52e-06        2940.08293
         3.53e-06       2942.759211
         3.54e-06       2955.085707
         3.55e-06       2962.035176
         3.56e-06       2971.638916
         3.57e-06       2982.346066
         3.58e-06       2988.317417
         3.59e-06       2994.264925
          3.6e-06       2999.294414
         3.61e-06        3002.20077
         3.62e-06       3008.072066
         3.63e-06       3014.349587
         3.64e-06       3022.924803
         3.65e-06       3031.165368
         3.66e-06       3038.250628
         3.67e-06        3046.75713
         3.68e-06       3048.238167
         3.69e-06       3053.901113
          3.7e-06       3063.683707
         3.71e-06       3068.738311
         3.72e-06       3076.575446
         3.73e-06        3086.25965
         3.74e-06       3093.239865
         3.75e-06       3099.177889
         3.76e-06       3099.724941
         3.77e-06       3106.064018
         3.78e-06       3110.711344
         3.79e-06       3122.607855
          3.8e-06       3132.958281
         3.81e-06       3143.127433
         3.82e-06       3147.859933
         3.83e-06       3148.759422
         3.84e-06       3153.427074
         3.85e-06       3163.945269
         3.86e-06       3174.842429
         3.87e-06       3180.340454
         3.88e-06       3183.231326
         3.89e-06       3187.291679
          3.9e-06       3199.677359
         3.91e-06       3205.551094
         3.92e-06         3215.3191
         3.93e-06       3217.737491
         3.94e-06       3228.851316
         3.95e-06       3240.257922
         3.96e-06       3245.295576
         3.97e-06        3250.18738
         3.98e-06        3256.39005
         3.99e-06       3261.991976
            4e-06        3272.28046
         4.01e-06       3278.218368
         4.02e-06       3290.708291
         4.03e-06        3293.25676
         4.04e-06       3300.376158
         4.05e-06       3301.599035
         4.06e-06       3309.455477
         4.07e-06       3314.970078
         4.08e-06       3318.422951
         4.09e-06       3322.762226
          4.1e-06       3328.505236
         4.11e-06       3339.306081
         4.12e-06        3343.70768
         4.13e-06       3349.270446
         4.14e-06       3353.740139
         4.15e-06       3358.757971
         4.16e-06       3367.575756
         4.17e-06       3369.663225
         4.18e-06         3375.7295
         4.19e-06       3382.520138
          4.2e-06       3392.802433
         4.21e-06        3399.16096
         4.22e-06       3403.354214
         4.23e-06       3407.247305
         4.24e-06       3413.763113
         4.25e-06       3419.589599
         4.26e-06       3430.786546
         4.27e-06       3432.497228
         4.28e-06        3436.79786
         4.29e-06       3442.603313
          4.3e-06       3448.250514
         4.31e-06        3452.55228
         4.32e-06       3457.816761
         4.33e-06        3467.91629
         4.34e-06       3473.314755
         4.35e-06         3480.3193
         4.36e-06       3483.577853
         4.37e-06       3488.884831
         4.38e-06        3498.27319
         4.39e-06       3501.540266
          4.4e-06        3499.84428
         4.41e-06        3505.08093
         4.42e-06       3512.729802
         4.43e-06         3514.8874
         4.44e-06       3523.383801
         4.45e-06       3523.296037
         4.46e-06        3527.46626
         4.47e-06       3538.523907
         4.48e-06       3544.949999
         4.49e-06       3554.205593
          4.5e-06       3555.852377
         4.51e-06       3559.205088
         4.52e-06        3562.92549
         4.53e-06         3573.6814
         4.54e-06        3577.84631
         4.55e-06       3586.784318
         4.56e-06       3595.334619
         4.57e-06       3599.006509
         4.58e-06       3601.034516
         4.59e-06       3605.275437
          4.6e-06        3611.12703
         4.61e-06       3615.034232
         4.62e-06       3621.740363
         4.63e-06       3624.012231
         4.64e-06       3627.807761
         4.65e-06       3643.277345
         4.66e-06       3650.101113
         4.67e-06        3650.47007
         4.68e-06       3660.486384
         4.69e-06       3655.678474
          4.7e-06       3659.126804
         4.71e-06       3667.562204
         4.72e-06        3672.35494
         4.73e-06       3677.289801
         4.74e-06       3693.548969
         4.75e-06       3700.582234
         4.76e-06       3702.076505
         4.77e-06       3702.017306
         4.78e-06       3713.117026
         4.79e-06       3710.343757
          4.8e-06        3709.83099
         4.81e-06       3714.840546
         4.82e-06       3713.288414
         4.83e-06       3719.844087
         4.84e-06       3720.644997
         4.85e-06        3724.96338
         4.86e-06       3730.356922
         4.87e-06        3732.89786
         4.88e-06       3739.457947
         4.89e-06       3749.485066
          4.9e-06        3758.67892
         4.91e-06       3762.266154
         4.92e-06       3769.807593
         4.93e-06       3771.565416
         4.94e-06       3781.924571
         4.95e-06       3781.627662
         4.96e-06       3786.030969
         4.97e-06        3788.06033
         4.98e-06       3793.143535
         4.99e-06       3798.302241
            5e-06       3811.692864
         5.01e-06       3819.697771
         5.02e-06       3818.063976
         5.03e-06       3822.246052
         5.04e-06       3832.525309
         5.05e-06       3836.108627
         5.06e-06       3842.587758
         5.07e-06       3850.106945
         5.08e-06       3845.916306
         5.09e-06       3850.070067
          5.1e-06       3858.169048
         5.11e-06       3855.924111
         5.12e-06       3864.454869
         5.13e-06       3866.910931
         5.14e-06       3869.313292
         5.15e-06       3869.006262
         5.16e-06       3872.707748
         5.17e-06       3879.609715
         5.18e-06       3889.905242
         5.19e-06       3894.271499
          5.2e-06        3896.60955
         5.21e-06       3908.909973
         5.22e-06       3910.841359
         5.23e-06       3915.326702
         5.24e-06       3925.584221
         5.25e-06       3931.936191
         5.26e-06       3939.992703
         5.27e-06       3943.685439
         5.28e-06        3950.75708
         5.29e-06       3952.585998
          5.3e-06       3961.184565
         5.31e-06       3963.256492
         5.32e-06       3965.195716
         5.33e-06       3967.186915
         5.34e-06       3971.756845
         5.35e-06       3978.291225
         5.36e-06       3976.365955
         5.37e-06       3984.847419
         5.38e-06        3991.53386
         5.39e-06       3997.596217
          5.4e-06       4001.150518
         5.41e-06       4011.475203
         5.42e-06       4016.113375
         5.43e-06       4025.336622
         5.44e-06        4024.70564
         5.45e-06       4027.612099
         5.46e-06       4028.881731
         5.47e-06       4035.272683
         5.48e-06       4033.609768
         5.49e-06       4039.144136
          5.5e-06       4036.392237
         5.51e-06       4042.139914
         5.52e-06       4054.750151
         5.53e-06       4055.673527
         5.54e-06       4063.747858
         5.55e-06       4060.746141
         5.56e-06       4063.355013
         5.57e-06       4064.386016
         5.58e-06       4057.115614
         5.59e-06       4066.612018
          5.6e-06       4074.676092
         5.61e-06       4084.811924
         5.62e-06       4093.881816
         5.63e-06       4102.249895
         5.64e-06       4106.900183
         5.65e-06       4118.407286
         5.66e-06       4131.243531
         5.67e-06       4140.539245
         5.68e-06       4145.285914
         5.69e-06       4156.704423
          5.7e-06        4162.62957
         5.71e-06       4157.802248
         5.72e-06       4172.712059
         5.73e-06       4170.086025
         5.74e-06       4173.160761
         5.75e-06       4181.204693
         5.76e-06       4187.966725
         5.77e-06       4194.578266
         5.78e-06       4200.372336
         5.79e-06        4197.20493
          5.8e-06       4196.767692
         5.81e-06        4203.62302
         5.82e-06       4205.563277
         5.83e-06        4208.32502
         5.84e-06       4216.131595
         5.85e-06       4222.372946
         5.86e-06       4224.044236
         5.87e-06       4229.369766
         5.88e-06       4230.768446
         5.89e-06       4236.889466
          5.9e-06       4237.262291
         5.91e-06       4241.884611
         5.92e-06       4253.268685
         5.93e-06       4258.946822
         5.94e-06       4270.409584
         5.95e-06       4282.256288
         5.96e-06       4281.127155
         5.97e-06        4280.88684
         5.98e-06       4287.133376
         5.99e-06       4282.586546
            6e-06        4286.71418
         6.01e-06       4288.645184
         6.02e-06       4284.352411
         6.03e-06       4287.049783
         6.04e-06        4295.32051
         6.05e-06        4301.36263
         6.06e-06       4307.191785
         6.07e-06        4311.86126
         6.08e-06       4319.083116
         6.09e-06       4327.862527
          6.1e-06       4339.917439
         6.11e-06       4342.016685
         6.12e-06       4342.002993
         6.13e-06       4348.866013
         6.14e-06       4353.264484
         6.15e-06       4357.633321
         6.16e-06       4356.702325
         6.17e-06       4360.197115
         6.18e-06        4359.97733
         6.19e-06       4362.880941
          6.2e-06       4366.723728
         6.21e-06       4367.576908
         6.22e-06       4375.468294
         6.23e-06       4378.746008
         6.24e-06       4379.240064
         6.25e-06       4381.797124
         6.26e-06       4391.313489
         6.27e-06       4392.791633
         6.28e-06       4397.714379
         6.29e-06       4393.310412
          6.3e-06       4395.745489
         6.31e-06       4394.482465
         6.32e-06       4401.895472
         6.33e-06       4412.232097
         6.34e-06       4412.827479
         6.35e-06       4413.845206
         6.36e-06       4420.556638
         6.37e-06       4419.733055
         6.38e-06       4425.581334
         6.39e-06         4422.4413
          6.4e-06       4417.897466
         6.41e-06       4427.188888
         6.42e-06       4437.303425
         6.43e-06       4451.333297
         6.44e-06       4447.509785
         6.45e-06       4449.400179
         6.46e-06       4451.994916
         6.47e-06       4458.695077
         6.48e-06       4462.105828
         6.49e-06        4466.55865
          6.5e-06       4472.151822
         6.51e-06       4474.573324
         6.52e-06       4480.234133
         6.53e-06       4487.202201
         6.54e-06       4494.531823
         6.55e-06       4496.577056
         6.56e-06       4498.303938
         6.57e-06       4496.066686
         6.58e-06       4507.186247
         6.59e-06        4511.29089
          6.6e-06       4506.911438
         6.61e-06       4508.480465
         6.62e-06       4513.146638
         6.63e-06       4514.592495
         6.64e-06       4514.091103
         6.65e-06       4520.315493
         6.66e-06       4519.036383
         6.67e-06       4528.241006
         6.68e-06       4529.681372
         6.69e-06       4539.438896
          6.7e-06       4539.148303
         6.71e-06       4548.090436
         6.72e-06       4549.266169
         6.73e-06       4557.282823
         6.74e-06        4559.08945
         6.75e-06       4562.640177
         6.76e-06       4564.174794
         6.77e-06       4566.479016
         6.78e-06       4580.015807
         6.79e-06       4581.292032
          6.8e-06       4587.825552
         6.81e-06       4584.693527
         6.82e-06       4584.762826
         6.83e-06       4587.753621
         6.84e-06       4599.102223
         6.85e-06       4600.349493
         6.86e-06        4602.06324
         6.87e-06       4604.975419
         6.88e-06       4607.239196
         6.89e-06       4611.857919
          6.9e-06       4614.852883
         6.91e-06       4622.848788
         6.92e-06       4626.760252
         6.93e-06       4625.496686
         6.94e-06       4628.468021
         6.95e-06       4631.589344
         6.96e-06       4637.874029
         6.97e-06       4638.921971
         6.98e-06       4640.431021
         6.99e-06        4644.50862
            7e-06       4643.221772
         7.01e-06       4644.928085
         7.02e-06       4650.101372
         7.03e-06       4652.383951
         7.04e-06       4658.489828
         7.05e-06       4666.989528
         7.06e-06       4664.401737
         7.07e-06       4672.399842
         7.08e-06       4677.521582
         7.09e-06       4678.851512
          7.1e-06       4680.037628
         7.11e-06       4684.479149
         7.12e-06       4683.416239
         7.13e-06       4699.267788
         7.14e-06       4698.481404
         7.15e-06       4694.824618
         7.16e-06       4699.549348
         7.17e-06       4699.512264
         7.18e-06       4711.669617
         7.19e-06       4712.453451
          7.2e-06        4715.45484
         7.21e-06       4715.863312
         7.22e-06       4723.063991
         7.23e-06       4727.716484
         7.24e-06       4722.649437
         7.25e-06       4727.500392
         7.26e-06       4726.212887
         7.27e-06       4728.415102
         7.28e-06       4730.764106
         7.29e-06       4729.628699
          7.3e-06       4736.615872
         7.31e-06         4732.6292
         7.32e-06       4737.655209
         7.33e-06       4733.104863
         7.34e-06       4734.257822
         7.35e-06       4738.448687
         7.36e-06       4741.431838
         7.37e-06       4752.055403
         7.38e-06       4753.787944
         7.39e-06       4750.161491
          7.4e-06       4757.995807
         7.41e-06       4762.215467
         7.42e-06       4772.904081
         7.43e-06       4778.789436
         7.44e-06       4787.961666
         7.45e-06       4778.898704
         7.46e-06        4785.27694
         7.47e-06       4790.525566
         7.48e-06       4798.466053
         7.49e-06        4811.89018
          7.5e-06       4810.219595
         7.51e-06       4820.881956
         7.52e-06       4827.196846
         7.53e-06       4831.896877
         7.54e-06       4834.677155
         7.55e-06       4838.823661
         7.56e-06       4839.239806
         7.57e-06       4843.864586
         7.58e-06        4847.12408
         7.59e-06       4847.261179
          7.6e-06       4846.468105
         7.61e-06       4848.369865
         7.62e-06       4852.871946
         7.63e-06       4858.844367
         7.64e-06       4861.816952
         7.65e-06       4854.680752
         7.66e-06       4859.666062
         7.67e-06       4859.929034
         7.68e-06       4860.575245
         7.69e-06       4860.445233
          7.7e-06       4865.826917
         7.71e-06       4874.006756
         7.72e-06       4879.454231
         7.73e-06       4890.018054
         7.74e-06       4891.911333
         7.75e-06       4890.194002
         7.76e-06       4896.302738
         7.77e-06       4902.884318
         7.78e-06       4914.256212
         7.79e-06       4916.903288
          7.8e-06       4910.747347
         7.81e-06        4909.76731
         7.82e-06       4918.129934
         7.83e-06       4925.099419
         7.84e-06       4923.135697
         7.85e-06       4934.027406
         7.86e-06       4937.102126
         7.87e-06       4948.045728
         7.88e-06       4956.927275
         7.89e-06       4965.104721
          7.9e-06       4970.571007
         7.91e-06       4971.179758
         7.92e-06       4974.215914
         7.93e-06       4969.941287
         7.94e-06       4974.506034
         7.95e-06       4976.046216
         7.96e-06       4985.219842
         7.97e-06       4986.308684
         7.98e-06       4986.416318
         7.99e-06       4981.868475
            8e-06       4996.325987
         8.01e-06       4995.570246
         8.02e-06       4988.042283
         8.03e-06       4991.821376
         8.04e-06       4991.139526
         8.05e-06        5000.93483
         8.06e-06       4995.914024
         8.07e-06       4996.500724
         8.08e-06       4998.443331
         8.09e-06       5004.050725
          8.1e-06       5010.794926
         8.11e-06        5005.10497
         8.12e-06       5007.182357
         8.13e-06       5016.939725
         8.14e-06       5020.667227
         8.15e-06       5031.455809
         8.16e-06       5029.658278
         8.17e-06       5030.617172
         8.18e-06       5031.533671
         8.19e-06       5039.082426
          8.2e-06       5045.303051
         8.21e-06       5046.068371
         8.22e-06        5048.46685
         8.23e-06       5049.115947
         8.24e-06       5050.650794
         8.25e-06       5057.972332
         8.26e-06       5062.447277
         8.27e-06       5067.851983
         8.28e-06       5066.373991
         8.29e-06       5061.993822
          8.3e-06       5068.012684
         8.31e-06       5071.535573