# Probe 0 (5e-06 5e-06 5e-06)
#           Probe                 0
#            Time
            1e-08     1.3969012e-08
            2e-08   1.397053593e-08
            3e-08   1.396884812e-08
            4e-08   1.397643903e-08
            5e-08   1.397712577e-08
            6e-08   1.398157282e-08
            7e-08   1.398357772e-08
            8e-08    1.39875335e-08
            9e-08   1.399147964e-08
            1e-07   1.399021127e-08
          1.1e-07    1.39964652e-08
          1.2e-07   1.400209973e-08
          1.3e-07   1.400446929e-08
          1.4e-07   1.400927036e-08
          1.5e-07   1.400996323e-08
          1.6e-07    1.40095088e-08
          1.7e-07   1.400715579e-08
          1.8e-07   1.401127659e-08
          1.9e-07   1.401203693e-08
            2e-07   1.401739664e-08
          2.1e-07   1.402377458e-08
          2.2e-07   1.402976932e-08
          2.3e-07   1.403198598e-08
          2.4e-07   1.403561487e-08
          2.5e-07   1.404102171e-08
          2.6e-07   1.404327789e-08
          2.7e-07   1.404750547e-08
          2.8e-07   1.404961184e-08
          2.9e-07   1.405410068e-08
            3e-07    1.40520874e-08
          3.1e-07   1.405778653e-08
          3.2e-07   1.406400757e-08
          3.3e-07   1.406860643e-08
          3.4e-07   1.407074536e-08
          3.5e-07    1.40720137e-08
          3.6e-07   1.407172571e-08
          3.7e-07   1.407636551e-08
          3.8e-07   1.407702236e-08
          3.9e-07    1.40796144e-08
            4e-07   1.408034057e-08
          4.1e-07   1.408055358e-08
          4.2e-07   1.408516148e-08
          4.3e-07   1.408563506e-08
          4.4e-07   1.408789392e-08
          4.5e-07   1.409404155e-08
          4.6e-07   1.409503153e-08
          4.7e-07   1.410358667e-08
          4.8e-07   1.410138506e-08
          4.9e-07   1.409906183e-08
            5e-07   1.409964305e-08
          5.1e-07   1.410003021e-08
          5.2e-07   1.409672713e-08
          5.3e-07   1.410341586e-08
          5.4e-07   1.410734324e-08
          5.5e-07    1.41091445e-08
          5.6e-07   1.411152804e-08
          5.7e-07    1.41115894e-08
          5.8e-07    1.41137722e-08
          5.9e-07   1.411511436e-08
            6e-07   1.411434132e-08
          6.1e-07   1.411773943e-08
          6.2e-07   1.411730513e-08
          6.3e-07   1.412447825e-08
          6.4e-07   1.412950042e-08
          6.5e-07   1.413327566e-08
          6.6e-07   1.413794178e-08
          6.7e-07   1.413895854e-08
          6.8e-07   1.413648429e-08
          6.9e-07   1.413736777e-08
            7e-07   1.413799023e-08
          7.1e-07   1.413824992e-08
          7.2e-07   1.413920747e-08
          7.3e-07    1.41383107e-08
          7.4e-07   1.413849845e-08
          7.5e-07   1.414305698e-08
          7.6e-07   1.414887424e-08
          7.7e-07   1.414648619e-08
          7.8e-07   1.415068045e-08
          7.9e-07   1.415160308e-08
            8e-07   1.415325295e-08
          8.1e-07   1.415983936e-08
          8.2e-07   1.416403052e-08
          8.3e-07   1.416487423e-08
          8.4e-07   1.416697646e-08
          8.5e-07   1.416844381e-08
          8.6e-07   1.417449912e-08
          8.7e-07    1.41743429e-08
          8.8e-07   1.417474586e-08
          8.9e-07   1.417520488e-08
            9e-07     1.4175316e-08
          9.1e-07   1.417955936e-08
          9.2e-07   1.418288323e-08
          9.3e-07   1.418846488e-08
          9.4e-07    1.41936175e-08
          9.5e-07   1.419613271e-08
          9.6e-07   1.419672468e-08
          9.7e-07   1.419598067e-08
          9.8e-07   1.419900212e-08
          9.9e-07   1.420031033e-08
            1e-06   1.419955192e-08
         1.01e-06   1.420042901e-08
         1.02e-06   1.420542424e-08
         1.03e-06   1.420936845e-08
         1.04e-06   1.421437613e-08
         1.05e-06   1.421336408e-08
         1.06e-06   1.421272028e-08
         1.07e-06   1.421440896e-08
         1.08e-06   1.421791615e-08
         1.09e-06   1.422308873e-08
          1.1e-06    1.42216769e-08
         1.11e-06   1.422102509e-08
         1.12e-06   1.422429962e-08
         1.13e-06   1.422549893e-08
         1.14e-06   1.422642953e-08
         1.15e-06   1.422795132e-08
         1.16e-06   1.422719388e-08
         1.17e-06   1.422058012e-08
         1.18e-06     1.4223743e-08
         1.19e-06   1.422957007e-08
          1.2e-06   1.423413047e-08
         1.21e-06   1.424123394e-08
         1.22e-06   1.424360677e-08
         1.23e-06   1.424731929e-08
         1.24e-06   1.424741971e-08
         1.25e-06   1.425150655e-08
         1.26e-06   1.424905033e-08
         1.27e-06   1.425298286e-08
         1.28e-06   1.425419865e-08
         1.29e-06   1.425528394e-08
          1.3e-06   1.425559819e-08
         1.31e-06   1.425570576e-08
         1.32e-06    1.42555552e-08
         1.33e-06   1.426073058e-08
         1.34e-06   1.426474764e-08
         1.35e-06   1.426706793e-08
         1.36e-06   1.426482003e-08
         1.37e-06   1.426406668e-08
         1.38e-06   1.426937891e-08
         1.39e-06   1.427241513e-08
          1.4e-06   1.427651372e-08
         1.41e-06     1.4275682e-08
         1.42e-06   1.428284674e-08
         1.43e-06   1.428213932e-08
         1.44e-06    1.42826238e-08
         1.45e-06   1.428294792e-08
         1.46e-06   1.428664042e-08
         1.47e-06   1.428586762e-08
         1.48e-06   1.429421622e-08
         1.49e-06   1.429440429e-08
          1.5e-06   1.429563873e-08
         1.51e-06   1.429873291e-08
         1.52e-06    1.42983864e-08
         1.53e-06   1.429810867e-08
         1.54e-06   1.429110292e-08
         1.55e-06   1.429315695e-08
         1.56e-06   1.429405939e-08
         1.57e-06   1.429414826e-08
         1.58e-06     1.4290894e-08
         1.59e-06   1.428930606e-08
          1.6e-06   1.429208691e-08
         1.61e-06   1.429487621e-08
         1.62e-06   1.429247896e-08
         1.63e-06   1.429281176e-08
         1.64e-06   1.429628272e-08
         1.65e-06   1.429531406e-08
         1.66e-06   1.429462901e-08
         1.67e-06   1.429544689e-08
         1.68e-06   1.430646424e-08
         1.69e-06   1.430930103e-08
          1.7e-06   1.430994373e-08
         1.71e-06   1.431219206e-08
         1.72e-06   1.431898688e-08
         1.73e-06   1.432449893e-08
         1.74e-06   1.432489648e-08
         1.75e-06   1.432406275e-08
         1.76e-06    1.43239648e-08
         1.77e-06   1.432499414e-08
         1.78e-06   1.433035065e-08
         1.79e-06   1.432997647e-08
          1.8e-06   1.433469007e-08
         1.81e-06   1.433647384e-08
         1.82e-06   1.434388482e-08
         1.83e-06   1.433959751e-08
         1.84e-06   1.433910413e-08
         1.85e-06   1.433942938e-08
         1.86e-06   1.433777484e-08
         1.87e-06   1.434000779e-08
         1.88e-06   1.433803576e-08
         1.89e-06   1.433896872e-08
          1.9e-06   1.434065175e-08
         1.91e-06    1.43409943e-08
         1.92e-06    1.43373556e-08
         1.93e-06   1.434052324e-08
         1.94e-06   1.434641221e-08
         1.95e-06   1.435388614e-08
         1.96e-06   1.435282729e-08
         1.97e-06   1.435348168e-08
         1.98e-06   1.435163864e-08
         1.99e-06   1.435131103e-08
            2e-06    1.43521286e-08
         2.01e-06   1.435708632e-08
         2.02e-06   1.436209035e-08
         2.03e-06   1.436156259e-08
         2.04e-06    1.43607919e-08
         2.05e-06   1.436555699e-08
         2.06e-06    1.43715642e-08
         2.07e-06   1.437005499e-08
         2.08e-06   1.437542296e-08
         2.09e-06    1.43718409e-08
          2.1e-06   1.437076255e-08
         2.11e-06   1.436891913e-08
         2.12e-06   1.437331784e-08
         2.13e-06   1.437481133e-08
         2.14e-06   1.437661777e-08
         2.15e-06   1.437991089e-08
         2.16e-06   1.437637204e-08
         2.17e-06    1.43750776e-08
         2.18e-06   1.437736386e-08
         2.19e-06   1.437717993e-08
          2.2e-06   1.437914001e-08
         2.21e-06   1.438615088e-08
         2.22e-06   1.438816122e-08
         2.23e-06   1.438792345e-08
         2.24e-06   1.438589243e-08
         2.25e-06   1.439033494e-08
         2.26e-06    1.43925774e-08
         2.27e-06   1.439587282e-08
         2.28e-06   1.439622935e-08
         2.29e-06   1.440071053e-08
          2.3e-06   1.439840269e-08
         2.31e-06   1.439693742e-08
         2.32e-06   1.439834219e-08
         2.33e-06   1.439922835e-08
         2.34e-06   1.439684336e-08
         2.35e-06   1.439793228e-08
         2.36e-06   1.440296291e-08
         2.37e-06   1.440547034e-08
         2.38e-06   1.440833837e-08
         2.39e-06   1.440537826e-08
          2.4e-06   1.440900337e-08
         2.41e-06   1.440633728e-08
         2.42e-06    1.44127383e-08
         2.43e-06   1.441665524e-08
         2.44e-06   1.441628326e-08
         2.45e-06   1.441576766e-08
         2.46e-06   1.441541677e-08
         2.47e-06   1.441833797e-08
         2.48e-06   1.442524802e-08
         2.49e-06   1.442467986e-08
          2.5e-06   1.442773426e-08
         2.51e-06   1.442397575e-08
         2.52e-06   1.442843027e-08
         2.53e-06   1.442860261e-08
         2.54e-06   1.442951663e-08
         2.55e-06   1.443165007e-08
         2.56e-06   1.443866134e-08
         2.57e-06   1.443638996e-08
         2.58e-06   1.443724438e-08
         2.59e-06   1.443528633e-08
          2.6e-06   1.443208882e-08
         2.61e-06   1.442792089e-08
         2.62e-06   1.443172408e-08
         2.63e-06   1.442987041e-08
         2.64e-06   1.443632852e-08
         2.65e-06   1.444266522e-08
         2.66e-06   1.444525042e-08
         2.67e-06   1.444794425e-08
         2.68e-06   1.444796329e-08
         2.69e-06   1.444423385e-08
          2.7e-06   1.444889061e-08
         2.71e-06   1.444319441e-08
         2.72e-06   1.444342427e-08
         2.73e-06   1.444486042e-08
         2.74e-06   1.444274533e-08
         2.75e-06   1.443920969e-08
         2.76e-06   1.444124813e-08
         2.77e-06    1.44430287e-08
         2.78e-06   1.444224436e-08
         2.79e-06   1.444037133e-08
          2.8e-06   1.444380299e-08
         2.81e-06   1.444356059e-08
         2.82e-06   1.445049325e-08
         2.83e-06   1.445407429e-08
         2.84e-06   1.445431792e-08
         2.85e-06   1.445187456e-08
         2.86e-06   1.445557049e-08
         2.87e-06   1.445892524e-08
         2.88e-06   1.445826224e-08
         2.89e-06   1.446077804e-08
          2.9e-06   1.446274778e-08
         2.91e-06   1.446352217e-08
         2.92e-06   1.446401176e-08
         2.93e-06   1.446626873e-08
         2.94e-06   1.446759873e-08
         2.95e-06   1.447019328e-08
         2.96e-06     1.4472166e-08
         2.97e-06   1.447063214e-08
         2.98e-06   1.447543496e-08
         2.99e-06   1.447475242e-08
            3e-06   1.447399038e-08
         3.01e-06   1.447575172e-08
         3.02e-06   1.447729877e-08
         3.03e-06   1.447871567e-08
         3.04e-06   1.447832716e-08
         3.05e-06    1.44762345e-08
         3.06e-06   1.447468372e-08
         3.07e-06   1.447730702e-08
         3.08e-06   1.447575593e-08
         3.09e-06   1.447474386e-08
          3.1e-06   1.447764993e-08
         3.11e-06    1.44800819e-08
         3.12e-06   1.447997874e-08
         3.13e-06   1.448382294e-08
         3.14e-06    1.44841044e-08
         3.15e-06   1.448756628e-08
         3.16e-06   1.448822977e-08
         3.17e-06   1.449261452e-08
         3.18e-06     1.4491712e-08
         3.19e-06   1.449083458e-08
          3.2e-06   1.449476538e-08
         3.21e-06   1.449289383e-08
         3.22e-06    1.44949911e-08
         3.23e-06   1.450060801e-08
         3.24e-06   1.449807169e-08
         3.25e-06   1.449810898e-08
         3.26e-06   1.449628813e-08
         3.27e-06   1.449822014e-08
         3.28e-06   1.450078706e-08
         3.29e-06   1.450518245e-08
          3.3e-06   1.450128355e-08
         3.31e-06    1.44994274e-08
         3.32e-06   1.450027056e-08
         3.33e-06    1.45052529e-08
         3.34e-06   1.450193946e-08
         3.35e-06   1.450390896e-08
         3.36e-06   1.450497051e-08
         3.37e-06   1.450516777e-08
         3.38e-06   1.450806536e-08
         3.39e-06   1.451261764e-08
          3.4e-06   1.451641394e-08
         3.41e-06   1.451537698e-08
         3.42e-06   1.451809499e-08
         3.43e-06    1.45183658e-08
         3.44e-06   1.451787423e-08
         3.45e-06   1.451249501e-08
         3.46e-06   1.451847877e-08
         3.47e-06   1.452084426e-08
         3.48e-06   1.452342473e-08
         3.49e-06   1.452744822e-08
          3.5e-06   1.452164745e-08
         3.51e-06   1.452794899e-08
         3.52e-06   1.452373551e-08
         3.53e-06   1.451957989e-08
         3.54e-06   1.452533546e-08
         3.55e-06   1.452822425e-08
         3.56e-06    1.45303678e-08
         3.57e-06   1.453235748e-08
         3.58e-06   1.453388896e-08
         3.59e-06   1.453374723e-08
          3.6e-06   1.453724353e-08
         3.61e-06   1.453428755e-08
         3.62e-06   1.453392648e-08
         3.63e-06    1.45328273e-08
         3.64e-06   1.452964882e-08
         3.65e-06    1.45311195e-08
         3.66e-06   1.453536259e-08
         3.67e-06   1.453822755e-08
         3.68e-06   1.453380812e-08
         3.69e-06   1.453526093e-08
          3.7e-06   1.454106058e-08
         3.71e-06   1.454083977e-08
         3.72e-06   1.454156089e-08
         3.73e-06   1.454553915e-08
         3.74e-06   1.454672176e-08
         3.75e-06   1.454610873e-08
         3.76e-06   1.454249342e-08
         3.77e-06   1.454191501e-08
         3.78e-06   1.454405786e-08
         3.79e-06   1.454488975e-08
          3.8e-06   1.454977084e-08
         3.81e-06   1.455456706e-08
         3.82e-06   1.455112817e-08
         3.83e-06   1.454565326e-08
         3.84e-06   1.454346691e-08
         3.85e-06   1.454906761e-08
         3.86e-06   1.455203684e-08
         3.87e-06   1.455537233e-08
         3.88e-06   1.455590757e-08
         3.89e-06   1.455675624e-08
          3.9e-06   1.456023428e-08
         3.91e-06   1.456057656e-08
         3.92e-06   1.456105079e-08
         3.93e-06   1.455826562e-08
         3.94e-06   1.456124322e-08
         3.95e-06    1.45635807e-08
         3.96e-06    1.45657702e-08
         3.97e-06   1.456742882e-08
         3.98e-06   1.456594953e-08
         3.99e-06   1.456509833e-08
            4e-06   1.457009522e-08
         4.01e-06   1.457062367e-08
         4.02e-06    1.45780139e-08
         4.03e-06   1.457842142e-08
         4.04e-06   1.457934652e-08
         4.05e-06   1.457783432e-08
         4.06e-06    1.45803928e-08
         4.07e-06   1.457929271e-08
         4.08e-06   1.458039887e-08
         4.09e-06   1.458232365e-08
          4.1e-06   1.458396123e-08
         4.11e-06   1.459021642e-08
         4.12e-06    1.45891512e-08
         4.13e-06    1.45892553e-08
         4.14e-06   1.458805803e-08
         4.15e-06   1.458836792e-08
         4.16e-06   1.459050378e-08
         4.17e-06   1.458903175e-08
         4.18e-06   1.458872322e-08
         4.19e-06   1.458802968e-08
          4.2e-06   1.458933413e-08
         4.21e-06   1.459001561e-08
         4.22e-06   1.459093972e-08
         4.23e-06   1.458771131e-08
         4.24e-06   1.459025247e-08
         4.25e-06   1.458918479e-08
         4.26e-06   1.459150616e-08
         4.27e-06   1.459087624e-08
         4.28e-06    1.45889077e-08
         4.29e-06   1.459143342e-08
          4.3e-06   1.459142986e-08
         4.31e-06    1.45906934e-08
         4.32e-06   1.459054074e-08
         4.33e-06   1.459424727e-08
         4.34e-06   1.459281882e-08
         4.35e-06    1.45951667e-08
         4.36e-06    1.46017398e-08
         4.37e-06   1.460227977e-08
         4.38e-06   1.460420009e-08
         4.39e-06   1.460437921e-08
          4.4e-06   1.460130887e-08
         4.41e-06   1.460404443e-08
         4.42e-06   1.460446853e-08
         4.43e-06   1.460073824e-08
         4.44e-06   1.460455573e-08
         4.45e-06   1.460036489e-08
         4.46e-06   1.460278299e-08
         4.47e-06   1.460893961e-08
         4.48e-06   1.461110912e-08
         4.49e-06   1.461080509e-08
          4.5e-06   1.460894129e-08
         4.51e-06   1.460854658e-08
         4.52e-06   1.460664485e-08
         4.53e-06     1.4610272e-08
         4.54e-06   1.461108631e-08
         4.55e-06   1.461351317e-08
         4.56e-06   1.461418343e-08
         4.57e-06   1.461135255e-08
         4.58e-06   1.461157275e-08
         4.59e-06   1.461193945e-08
          4.6e-06   1.461712213e-08
         4.61e-06   1.461807646e-08
         4.62e-06   1.461998818e-08
         4.63e-06     1.4620112e-08
         4.64e-06   1.462028206e-08
         4.65e-06   1.462595413e-08
         4.66e-06   1.462544266e-08
         4.67e-06   1.462353822e-08
         4.68e-06   1.462787056e-08
         4.69e-06   1.462606998e-08
          4.7e-06   1.462287975e-08
         4.71e-06   1.462269595e-08
         4.72e-06   1.462335058e-08
         4.73e-06   1.462158251e-08
         4.74e-06   1.462920059e-08
         4.75e-06   1.462808626e-08
         4.76e-06   1.462943538e-08
         4.77e-06   1.462887141e-08
         4.78e-06   1.463512783e-08
         4.79e-06   1.462982813e-08
          4.8e-06   1.462718316e-08
         4.81e-06   1.463219921e-08
         4.82e-06   1.462829285e-08
         4.83e-06     1.4627604e-08
         4.84e-06   1.462661939e-08
         4.85e-06   1.462690825e-08
         4.86e-06   1.462658738e-08
         4.87e-06   1.462653629e-08
         4.88e-06   1.462836253e-08
         4.89e-06   1.463114729e-08
          4.9e-06   1.463799144e-08
         4.91e-06   1.463781341e-08
         4.92e-06   1.463704409e-08
         4.93e-06   1.463710825e-08
         4.94e-06   1.464552467e-08
         4.95e-06   1.464349709e-08
         4.96e-06   1.464583582e-08
         4.97e-06   1.464366772e-08
         4.98e-06   1.464478681e-08
         4.99e-06   1.464730756e-08
            5e-06   1.465282054e-08
         5.01e-06   1.465647035e-08
         5.02e-06    1.46552942e-08
         5.03e-06   1.465677822e-08
         5.04e-06   1.465895243e-08
         5.05e-06   1.465937025e-08
         5.06e-06   1.465980296e-08
         5.07e-06   1.465994588e-08
         5.08e-06    1.46521955e-08
         5.09e-06    1.46533985e-08
          5.1e-06   1.465455835e-08
         5.11e-06   1.465282054e-08
         5.12e-06   1.465432576e-08
         5.13e-06   1.465122863e-08
         5.14e-06   1.464814664e-08
         5.15e-06   1.464653678e-08
         5.16e-06   1.464804473e-08
         5.17e-06   1.465308987e-08
         5.18e-06   1.465547968e-08
         5.19e-06   1.465540698e-08
          5.2e-06   1.465062921e-08
         5.21e-06   1.465283072e-08
         5.22e-06   1.465328811e-08
         5.23e-06   1.465588133e-08
         5.24e-06   1.465617792e-08
         5.25e-06   1.465829385e-08
         5.26e-06   1.466328015e-08
         5.27e-06   1.466094457e-08
         5.28e-06   1.466394596e-08
         5.29e-06   1.466070299e-08
          5.3e-06   1.466393567e-08
         5.31e-06   1.466451173e-08
         5.32e-06   1.466510311e-08
         5.33e-06   1.466408452e-08
         5.34e-06   1.466297772e-08
         5.35e-06   1.466332149e-08
         5.36e-06   1.465847246e-08
         5.37e-06   1.466213698e-08
         5.38e-06   1.466487628e-08
         5.39e-06   1.466550008e-08
          5.4e-06    1.46659709e-08
         5.41e-06   1.467051115e-08
         5.42e-06   1.466964299e-08
         5.43e-06   1.466863567e-08
         5.44e-06    1.46684221e-08
         5.45e-06   1.466985597e-08
         5.46e-06   1.467091366e-08
         5.47e-06   1.467456234e-08
         5.48e-06   1.467285036e-08
         5.49e-06    1.46748694e-08
          5.5e-06   1.467169354e-08
         5.51e-06   1.467296133e-08
         5.52e-06   1.467623211e-08
         5.53e-06   1.467537871e-08
         5.54e-06   1.467777352e-08
         5.55e-06   1.467362047e-08
         5.56e-06   1.467454089e-08
         5.57e-06   1.467169623e-08
         5.58e-06   1.466147304e-08
         5.59e-06   1.466538258e-08
          5.6e-06   1.466940559e-08
         5.61e-06   1.467513965e-08
         5.62e-06   1.467851547e-08
         5.63e-06   1.467823772e-08
         5.64e-06    1.46787428e-08
         5.65e-06   1.468180785e-08
         5.66e-06   1.468522911e-08
         5.67e-06   1.468840786e-08
         5.68e-06   1.468771363e-08
         5.69e-06   1.468973642e-08
          5.7e-06   1.469268484e-08
         5.71e-06   1.468740806e-08
         5.72e-06   1.469304272e-08
         5.73e-06   1.469041502e-08
         5.74e-06   1.469129555e-08
         5.75e-06   1.469529827e-08
         5.76e-06   1.469703469e-08
         5.77e-06   1.469819536e-08
         5.78e-06   1.469620092e-08
         5.79e-06   1.469380685e-08
          5.8e-06   1.469137448e-08
         5.81e-06   1.469592597e-08
         5.82e-06    1.46946948e-08
         5.83e-06   1.469429473e-08
         5.84e-06   1.469664581e-08
         5.85e-06   1.470002534e-08
         5.86e-06   1.469590596e-08
         5.87e-06   1.469679915e-08
         5.88e-06   1.469482444e-08
         5.89e-06   1.469461785e-08
          5.9e-06   1.469520983e-08
         5.91e-06    1.46937378e-08
         5.92e-06   1.469620426e-08
         5.93e-06   1.469991766e-08
         5.94e-06   1.470426401e-08
         5.95e-06   1.471004386e-08
         5.96e-06   1.470277563e-08
         5.97e-06   1.470236354e-08
         5.98e-06   1.470400593e-08
         5.99e-06   1.470138845e-08
            6e-06   1.470198519e-08
         6.01e-06   1.470238664e-08
         6.02e-06   1.469864018e-08
         6.03e-06   1.470406338e-08
         6.04e-06   1.470668738e-08
         6.05e-06    1.47067055e-08
         6.06e-06   1.471072755e-08
         6.07e-06   1.471141848e-08
         6.08e-06    1.47115586e-08
         6.09e-06   1.471380194e-08
          6.1e-06   1.471944901e-08
         6.11e-06    1.47181997e-08
         6.12e-06   1.471623865e-08
         6.13e-06   1.471486537e-08
         6.14e-06   1.471438752e-08
         6.15e-06   1.471404233e-08
         6.16e-06   1.471438977e-08
         6.17e-06   1.471833181e-08
         6.18e-06   1.471515799e-08
         6.19e-06    1.47195862e-08
          6.2e-06   1.471803694e-08
         6.21e-06   1.471790698e-08
         6.22e-06   1.472203279e-08
         6.23e-06   1.472176954e-08
         6.24e-06   1.472063299e-08
         6.25e-06   1.471849898e-08
         6.26e-06   1.472051121e-08
         6.27e-06   1.472052296e-08
         6.28e-06   1.472019172e-08
         6.29e-06   1.471490336e-08
          6.3e-06   1.471318287e-08
         6.31e-06     1.4711625e-08
         6.32e-06   1.471489493e-08
         6.33e-06   1.471881252e-08
         6.34e-06   1.471945724e-08
         6.35e-06   1.471668219e-08
         6.36e-06   1.471924869e-08
         6.37e-06   1.471774211e-08
         6.38e-06   1.471889913e-08
         6.39e-06   1.471588382e-08
          6.4e-06   1.471220722e-08
         6.41e-06   1.471809223e-08
         6.42e-06   1.472124143e-08
         6.43e-06   1.472572743e-08
         6.44e-06   1.472151645e-08
         6.45e-06   1.472198887e-08
         6.46e-06   1.472302013e-08
         6.47e-06   1.472542697e-08
         6.48e-06    1.47249331e-08
         6.49e-06   1.472507098e-08
          6.5e-06   1.472703361e-08
         6.51e-06   1.472798775e-08
         6.52e-06   1.473021413e-08
         6.53e-06   1.473192359e-08
         6.54e-06   1.473465852e-08
         6.55e-06   1.473443457e-08
         6.56e-06   1.473507472e-08
         6.57e-06   1.473426926e-08
         6.58e-06   1.473685133e-08
         6.59e-06   1.473778938e-08
          6.6e-06   1.473221002e-08
         6.61e-06   1.473132199e-08
         6.62e-06   1.473336124e-08
         6.63e-06   1.473244114e-08
         6.64e-06   1.473038045e-08
         6.65e-06   1.473019064e-08
         6.66e-06   1.472549965e-08
         6.67e-06   1.473342602e-08
         6.68e-06   1.473416903e-08
         6.69e-06   1.473861512e-08
          6.7e-06   1.473623969e-08
         6.71e-06   1.473761864e-08
         6.72e-06   1.473454855e-08
         6.73e-06   1.473944457e-08
         6.74e-06   1.473869533e-08
         6.75e-06   1.473832705e-08
         6.76e-06   1.473612478e-08
         6.77e-06   1.473700194e-08
         6.78e-06   1.474547449e-08
         6.79e-06   1.474749039e-08
          6.8e-06   1.474740238e-08
         6.81e-06   1.474720696e-08
         6.82e-06   1.474432444e-08
         6.83e-06   1.474552793e-08
         6.84e-06   1.475022558e-08
         6.85e-06   1.474930169e-08
         6.86e-06   1.474959604e-08
         6.87e-06   1.474956478e-08
         6.88e-06   1.475223265e-08
         6.89e-06   1.475058059e-08
          6.9e-06   1.475065786e-08
         6.91e-06   1.475304481e-08
         6.92e-06   1.475167002e-08
         6.93e-06   1.475035915e-08
         6.94e-06    1.47491638e-08
         6.95e-06   1.474992997e-08
         6.96e-06   1.475265182e-08
         6.97e-06   1.475305264e-08
         6.98e-06   1.474882418e-08
         6.99e-06   1.474939173e-08
            7e-06   1.474932943e-08
         7.01e-06   1.474803907e-08
         7.02e-06   1.474872945e-08
         7.03e-06   1.474671145e-08
         7.04e-06   1.475013679e-08
         7.05e-06   1.475101016e-08
         7.06e-06   1.474830209e-08
         7.07e-06   1.475317731e-08
         7.08e-06   1.475262651e-08
         7.09e-06   1.475034968e-08
          7.1e-06   1.474933931e-08
         7.11e-06   1.475122714e-08
         7.12e-06   1.474758704e-08
         7.13e-06   1.475495119e-08
         7.14e-06   1.475374769e-08
         7.15e-06   1.475008159e-08
         7.16e-06   1.475036083e-08
         7.17e-06   1.474532053e-08
         7.18e-06   1.475150728e-08
         7.19e-06   1.475073743e-08
          7.2e-06   1.475597349e-08
         7.21e-06   1.475540958e-08
         7.22e-06   1.475812194e-08
         7.23e-06   1.475953044e-08
         7.24e-06   1.475800951e-08
         7.25e-06    1.47607537e-08
         7.26e-06   1.475818005e-08
         7.27e-06   1.475821911e-08
         7.28e-06   1.475764664e-08
         7.29e-06   1.475644732e-08
          7.3e-06   1.475973825e-08
         7.31e-06    1.47551219e-08
         7.32e-06   1.475815938e-08
         7.33e-06   1.475708069e-08
         7.34e-06   1.475722859e-08
         7.35e-06   1.475487182e-08
         7.36e-06   1.475427395e-08
         7.37e-06   1.475897747e-08
         7.38e-06   1.475875931e-08
         7.39e-06   1.475692287e-08
          7.4e-06   1.475943621e-08
         7.41e-06   1.475893261e-08
         7.42e-06   1.476380699e-08
         7.43e-06   1.476659072e-08
         7.44e-06   1.477141882e-08
         7.45e-06   1.476379907e-08
         7.46e-06   1.476568131e-08
         7.47e-06   1.476854613e-08
         7.48e-06   1.476917555e-08
         7.49e-06   1.477675242e-08
          7.5e-06   1.477211156e-08
         7.51e-06   1.477527439e-08
         7.52e-06   1.477667603e-08
         7.53e-06    1.47760415e-08
         7.54e-06    1.47782396e-08
         7.55e-06   1.477662198e-08
         7.56e-06   1.477530734e-08
         7.57e-06   1.477768383e-08
         7.58e-06   1.477628708e-08
         7.59e-06   1.477689812e-08
          7.6e-06   1.477419025e-08
         7.61e-06   1.477389392e-08
         7.62e-06   1.477540406e-08
         7.63e-06   1.477755333e-08
         7.64e-06   1.477729627e-08
         7.65e-06   1.476921056e-08
         7.66e-06   1.477127747e-08
         7.67e-06   1.477481511e-08
         7.68e-06    1.47725661e-08
         7.69e-06   1.476923213e-08
          7.7e-06   1.477033288e-08
         7.71e-06    1.47743314e-08
         7.72e-06   1.477683932e-08
         7.73e-06    1.47798251e-08
         7.74e-06   1.478011253e-08
         7.75e-06   1.478129399e-08
         7.76e-06   1.478216187e-08
         7.77e-06   1.478515859e-08
         7.78e-06   1.478635901e-08
         7.79e-06   1.478500634e-08
          7.8e-06   1.478042795e-08
         7.81e-06   1.477739193e-08
         7.82e-06   1.477998335e-08
         7.83e-06   1.478293969e-08
         7.84e-06    1.47817011e-08
         7.85e-06   1.478645098e-08
         7.86e-06   1.478617856e-08
         7.87e-06   1.479360609e-08
         7.88e-06   1.479558345e-08
         7.89e-06   1.479767192e-08
          7.9e-06   1.479700117e-08
         7.91e-06     1.4794244e-08
         7.92e-06    1.47939808e-08
         7.93e-06   1.479235387e-08
         7.94e-06   1.479331195e-08
         7.95e-06   1.479343124e-08
         7.96e-06   1.479476402e-08
         7.97e-06   1.479556027e-08
         7.98e-06   1.479464562e-08
         7.99e-06   1.479184386e-08
            8e-06   1.479556249e-08
         8.01e-06   1.479183941e-08
         8.02e-06    1.47876291e-08
         8.03e-06    1.47901919e-08
         8.04e-06   1.479083606e-08
         8.05e-06   1.479785995e-08
         8.06e-06   1.479429585e-08
         8.07e-06   1.479234578e-08
         8.08e-06    1.47918816e-08
         8.09e-06   1.479521848e-08
          8.1e-06   1.479696328e-08
         8.11e-06   1.479489764e-08
         8.12e-06    1.47976507e-08
         8.13e-06   1.479994635e-08
         8.14e-06    1.48005386e-08
         8.15e-06   1.480541858e-08
         8.16e-06   1.480451013e-08
         8.17e-06   1.480263832e-08
         8.18e-06   1.480381065e-08
         8.19e-06   1.480416784e-08
          8.2e-06   1.480914721e-08
         8.21e-06   1.480882753e-08
         8.22e-06   1.480868865e-08
         8.23e-06   1.481195835e-08
         8.24e-06   1.481337755e-08
         8.25e-06    1.48141289e-08
         8.26e-06   1.481518923e-08
         8.27e-06   1.481742089e-08
         8.28e-06   1.481569375e-08
         8.29e-06   1.481124457e-08
          8.3e-06   1.481272935e-08
         8.31e-06   1.481240179e-08