# Probe 0 (5e-06 5e-06 5e-06)
#           Probe                 0
#            Time
            1e-08       9819.241347
            2e-08       9713.097798
            3e-08       9615.894347
            4e-08       9536.124277
            5e-08       9473.985001
            6e-08       9402.704346
            7e-08        9349.81358
            8e-08       9289.713979
            9e-08       9243.719345
            1e-07       9195.474941
          1.1e-07       9150.901437
          1.2e-07       9101.698473
          1.3e-07       9061.595877
          1.4e-07       9023.578789
          1.5e-07       8989.178001
          1.6e-07        8957.65354
          1.7e-07       8922.347411
          1.8e-07       8888.156022
          1.9e-07       8860.687621
            2e-07       8828.855226
          2.1e-07       8800.126738
          2.2e-07       8778.383962
          2.3e-07       8748.665428
          2.4e-07       8727.707109
          2.5e-07       8703.252351
          2.6e-07       8684.906776
          2.7e-07       8659.237782
          2.8e-07       8640.373965
          2.9e-07        8619.54266
            3e-07       8601.098023
          3.1e-07       8585.570371
          3.2e-07       8566.111811
          3.3e-07       8549.593811
          3.4e-07       8531.135835
          3.5e-07       8515.569179
          3.6e-07       8496.321747
          3.7e-07       8480.294309
          3.8e-07       8462.989075
          3.9e-07       8444.733413
            4e-07       8429.448792
          4.1e-07       8416.856128
          4.2e-07       8402.279405
          4.3e-07       8387.314364
          4.4e-07        8373.11938
          4.5e-07       8357.855585
          4.6e-07       8347.584303
          4.7e-07       8334.220362
          4.8e-07       8320.961661
          4.9e-07       8311.446328
            5e-07       8301.461876
          5.1e-07       8289.683301
          5.2e-07       8278.998322
          5.3e-07       8270.195042
          5.4e-07       8258.311171
          5.5e-07       8246.525622
          5.6e-07       8233.981085
          5.7e-07       8222.866873
          5.8e-07       8213.602936
          5.9e-07       8204.705534
            6e-07       8194.385254
          6.1e-07       8185.982602
          6.2e-07       8176.893887
          6.3e-07       8169.757786
          6.4e-07       8159.659485
          6.5e-07       8151.206267
          6.6e-07       8142.284858
          6.7e-07        8132.96465
          6.8e-07       8127.846548
          6.9e-07       8117.958941
            7e-07       8109.913092
          7.1e-07        8100.82272
          7.2e-07       8092.592868
          7.3e-07       8082.246804
          7.4e-07       8074.457311
          7.5e-07       8066.914932
          7.6e-07        8058.09627
          7.7e-07       8050.745749
          7.8e-07       8043.870281
          7.9e-07       8035.645153
            8e-07       8026.461024
          8.1e-07        8018.76293
          8.2e-07        8011.72044
          8.3e-07       8004.398657
          8.4e-07       7996.860637
          8.5e-07       7991.553754
          8.6e-07       7984.350478
          8.7e-07       7977.549069
          8.8e-07       7970.637521
          8.9e-07       7964.361371
            9e-07       7958.534039
          9.1e-07       7951.625756
          9.2e-07       7943.911357
          9.3e-07       7937.127175
          9.4e-07        7932.55838
          9.5e-07       7927.622214
          9.6e-07       7922.052747
          9.7e-07       7918.072925
          9.8e-07       7911.181363
          9.9e-07       7906.109794
            1e-06       7900.318722
         1.01e-06       7896.268456
         1.02e-06       7890.661235
         1.03e-06       7884.707121
         1.04e-06       7879.963636
         1.05e-06       7875.715662
         1.06e-06       7869.365233
         1.07e-06       7864.756653
         1.08e-06       7859.645031
         1.09e-06       7854.126845
          1.1e-06       7850.761822
         1.11e-06       7845.997866
         1.12e-06       7840.499919
         1.13e-06       7835.461502
         1.14e-06        7831.14222
         1.15e-06       7825.551408
         1.16e-06       7820.269283
         1.17e-06       7815.067116
         1.18e-06        7812.36357
         1.19e-06       7808.065395
          1.2e-06       7804.276667
         1.21e-06       7798.656509
         1.22e-06       7795.329456
         1.23e-06       7790.847552
         1.24e-06       7786.155565
         1.25e-06       7780.526049
         1.26e-06       7776.981692
         1.27e-06       7770.987557
         1.28e-06       7766.228839
         1.29e-06       7761.327002
          1.3e-06       7757.755912
         1.31e-06       7754.589906
         1.32e-06       7750.991635
         1.33e-06       7746.393128
         1.34e-06       7742.668756
         1.35e-06       7738.326869
         1.36e-06       7734.257572
         1.37e-06       7730.797864
         1.38e-06       7725.929239
         1.39e-06       7722.191066
          1.4e-06       7717.561321
         1.41e-06       7713.779806
         1.42e-06       7709.727906
         1.43e-06       7705.243271
         1.44e-06       7701.587631
         1.45e-06       7698.089283
         1.46e-06       7693.837055
         1.47e-06       7690.143187
         1.48e-06        7687.39423
         1.49e-06       7684.805451
          1.5e-06       7680.229122
         1.51e-06       7676.263991
         1.52e-06       7671.132885
         1.53e-06       7668.585951
         1.54e-06       7666.296649
         1.55e-06       7663.974149
         1.56e-06       7660.133311
         1.57e-06       7657.848349
         1.58e-06       7655.194785
         1.59e-06       7651.792122
          1.6e-06       7647.863692
         1.61e-06       7644.574229
         1.62e-06       7642.553924
         1.63e-06       7639.125208
         1.64e-06       7636.515845
         1.65e-06       7634.172932
         1.66e-06       7632.324053
         1.67e-06       7629.936649
         1.68e-06       7627.075412
         1.69e-06        7625.22997
          1.7e-06       7622.130677
         1.71e-06       7619.234502
         1.72e-06       7615.223447
         1.73e-06       7611.627045
         1.74e-06       7608.222903
         1.75e-06       7605.514032
         1.76e-06       7603.415537
         1.77e-06       7601.406202
         1.78e-06       7597.592182
         1.79e-06       7594.144895
          1.8e-06       7591.788057
         1.81e-06       7588.569768
         1.82e-06       7585.828682
         1.83e-06        7582.93189
         1.84e-06       7580.179579
         1.85e-06       7578.058195
         1.86e-06       7576.018385
         1.87e-06       7573.591383
         1.88e-06       7571.191388
         1.89e-06       7569.397671
          1.9e-06       7565.294526
         1.91e-06       7561.872724
         1.92e-06       7559.212918
         1.93e-06       7555.714727
         1.94e-06       7552.767477
         1.95e-06       7549.042477
         1.96e-06       7546.650542
         1.97e-06       7543.811875
         1.98e-06       7541.015034
         1.99e-06       7538.800866
            2e-06       7536.748364
         2.01e-06       7534.969713
         2.02e-06       7532.459155
         2.03e-06       7530.181632
         2.04e-06       7527.037782
         2.05e-06       7525.338691
         2.06e-06       7522.904001
         2.07e-06       7520.805172
         2.08e-06        7518.61845
         2.09e-06       7516.831336
          2.1e-06       7514.466056
         2.11e-06       7512.790294
         2.12e-06       7510.336753
         2.13e-06       7507.719907
         2.14e-06       7504.748296
         2.15e-06       7502.598454
         2.16e-06       7500.310003
         2.17e-06       7498.775447
         2.18e-06       7495.464511
         2.19e-06       7492.501748
          2.2e-06       7490.630095
         2.21e-06       7488.121858
         2.22e-06       7485.626712
         2.23e-06       7484.052594
         2.24e-06       7481.234046
         2.25e-06       7479.023627
         2.26e-06       7476.367671
         2.27e-06       7474.209322
         2.28e-06       7471.776581
         2.29e-06       7469.676421
          2.3e-06       7468.351563
         2.31e-06       7466.965216
         2.32e-06       7466.250651
         2.33e-06       7463.811137
         2.34e-06       7462.060292
         2.35e-06       7459.774116
         2.36e-06       7457.702894
         2.37e-06       7455.895079
         2.38e-06       7453.646416
         2.39e-06        7452.94916
          2.4e-06       7451.330051
         2.41e-06       7450.277225
         2.42e-06       7448.720195
         2.43e-06       7447.113514
         2.44e-06       7445.693256
         2.45e-06       7443.445688
         2.46e-06       7441.968592
         2.47e-06       7439.903519
         2.48e-06       7437.024511
         2.49e-06        7436.18256
          2.5e-06       7434.398026
         2.51e-06       7433.028317
         2.52e-06       7431.146912
         2.53e-06       7429.854584
         2.54e-06        7427.42415
         2.55e-06       7425.804441
         2.56e-06       7423.678232
         2.57e-06       7421.545336
         2.58e-06       7420.074263
         2.59e-06       7418.952375
          2.6e-06       7416.961612
         2.61e-06       7415.914424
         2.62e-06       7413.195243
         2.63e-06       7411.700286
         2.64e-06       7409.438354
         2.65e-06       7408.061748
         2.66e-06       7406.466978
         2.67e-06       7404.980956
         2.68e-06       7402.910472
         2.69e-06       7401.379904
          2.7e-06       7400.017228
         2.71e-06       7398.374355
         2.72e-06       7397.090195
         2.73e-06       7395.293035
         2.74e-06        7394.07958
         2.75e-06       7392.386403
         2.76e-06       7390.681958
         2.77e-06       7389.282509
         2.78e-06       7387.803186
         2.79e-06       7387.005028
          2.8e-06       7386.133422
         2.81e-06       7384.817464
         2.82e-06       7383.303422
         2.83e-06       7381.414553
         2.84e-06       7378.978171
         2.85e-06       7377.195235
         2.86e-06       7375.364199
         2.87e-06       7373.709794
         2.88e-06       7372.223677
         2.89e-06       7371.350106
          2.9e-06       7369.415935
         2.91e-06       7367.609231
         2.92e-06       7366.696444
         2.93e-06       7364.967564
         2.94e-06       7363.194489
         2.95e-06       7362.699763
         2.96e-06       7360.974287
         2.97e-06       7360.826559
         2.98e-06       7359.581821
         2.99e-06       7357.949754
            3e-06       7356.776032
         3.01e-06        7355.59777
         3.02e-06       7354.252149
         3.03e-06       7352.691672
         3.04e-06         7351.3549
         3.05e-06       7350.552643
         3.06e-06       7349.234726
         3.07e-06       7347.262332
         3.08e-06       7346.808275
         3.09e-06       7345.824394
          3.1e-06       7344.062238
         3.11e-06       7343.295385
         3.12e-06        7341.78516
         3.13e-06       7340.620337
         3.14e-06       7339.421467
         3.15e-06       7338.361867
         3.16e-06       7337.437517
         3.17e-06       7336.392641
         3.18e-06       7335.325213
         3.19e-06       7334.486599
          3.2e-06       7332.713933
         3.21e-06       7331.962472
         3.22e-06        7330.52315
         3.23e-06       7328.743049
         3.24e-06       7327.414055
         3.25e-06        7326.52656
         3.26e-06        7325.57951
         3.27e-06       7324.590873
         3.28e-06       7323.296418
         3.29e-06        7322.15818
          3.3e-06       7321.238129
         3.31e-06       7319.716023
         3.32e-06       7318.419019
         3.33e-06       7316.916986
         3.34e-06       7316.081123
         3.35e-06       7314.531367
         3.36e-06       7313.418944
         3.37e-06       7312.309824
         3.38e-06       7311.164742
         3.39e-06       7309.870365
          3.4e-06       7307.986756
         3.41e-06       7306.183272
         3.42e-06       7304.616622
         3.43e-06       7303.385557
         3.44e-06       7302.350328
         3.45e-06       7302.141131
         3.46e-06       7300.443815
         3.47e-06       7298.978328
         3.48e-06        7298.67263
         3.49e-06       7297.797654
          3.5e-06       7296.622046
         3.51e-06       7295.304766
         3.52e-06       7293.756918
         3.53e-06        7292.62614
         3.54e-06       7291.057578
         3.55e-06       7289.895643
         3.56e-06       7288.682239
         3.57e-06       7286.819095
         3.58e-06       7286.014793
         3.59e-06       7284.643216
          3.6e-06       7283.819522
         3.61e-06       7282.584465
         3.62e-06       7281.333042
         3.63e-06       7280.011174
         3.64e-06       7278.696692
         3.65e-06       7277.405476
         3.66e-06        7276.63707
         3.67e-06       7275.972998
         3.68e-06       7274.891623
         3.69e-06       7273.864129
          3.7e-06       7272.466636
         3.71e-06       7271.530326
         3.72e-06       7270.322059
         3.73e-06       7269.061824
         3.74e-06       7267.380905
         3.75e-06       7266.038914
         3.76e-06       7265.180009
         3.77e-06       7263.989837
         3.78e-06       7263.582846
         3.79e-06       7261.816937
          3.8e-06       7260.318637
         3.81e-06       7258.874022
         3.82e-06       7258.036044
         3.83e-06       7256.875502
         3.84e-06       7256.027155
         3.85e-06       7255.007356
         3.86e-06         7253.6932
         3.87e-06        7252.99918
         3.88e-06       7252.576623
         3.89e-06       7252.165942
          3.9e-06       7250.739074
         3.91e-06       7249.738181
         3.92e-06       7248.678181
         3.93e-06       7248.055886
         3.94e-06       7246.781481
         3.95e-06       7245.031421
         3.96e-06       7244.617162
         3.97e-06       7244.066439
         3.98e-06       7242.713574
         3.99e-06       7241.553243
            4e-06       7240.885522
         4.01e-06       7239.589641
         4.02e-06       7238.409236
         4.03e-06       7237.780845
         4.04e-06       7237.079977
         4.05e-06       7236.562839
         4.06e-06       7235.943496
         4.07e-06       7235.037085
         4.08e-06       7233.968699
         4.09e-06       7233.569702
          4.1e-06       7232.538866
         4.11e-06       7231.591377
         4.12e-06       7230.772771
         4.13e-06       7230.151891
         4.14e-06       7228.871817
         4.15e-06       7228.223225
         4.16e-06       7227.269931
         4.17e-06       7226.866434
         4.18e-06       7225.630699
         4.19e-06       7224.499756
          4.2e-06       7223.187091
         4.21e-06       7222.227376
         4.22e-06        7221.61118
         4.23e-06       7220.754198
         4.24e-06       7219.708997
         4.25e-06        7218.88576
         4.26e-06       7217.944769
         4.27e-06       7217.608526
         4.28e-06       7216.727605
         4.29e-06       7216.101247
          4.3e-06       7215.267202
         4.31e-06       7214.142306
         4.32e-06        7213.48201
         4.33e-06       7212.383646
         4.34e-06       7211.454478
         4.35e-06       7210.890174
         4.36e-06       7210.283492
         4.37e-06        7208.95572
         4.38e-06       7207.836861
         4.39e-06       7207.733022
          4.4e-06        7207.25307
         4.41e-06       7206.433865
         4.42e-06       7205.790324
         4.43e-06       7205.116833
         4.44e-06        7204.16071
         4.45e-06       7203.795095
         4.46e-06       7203.259088
         4.47e-06       7202.685831
         4.48e-06        7201.97841
         4.49e-06       7200.593804
          4.5e-06       7199.643447
         4.51e-06       7199.033921
         4.52e-06       7198.333986
         4.53e-06       7197.283285
         4.54e-06       7196.563257
         4.55e-06       7195.827749
         4.56e-06       7194.841229
         4.57e-06       7194.382774
         4.58e-06       7193.893079
         4.59e-06       7193.395796
          4.6e-06       7192.869435
         4.61e-06       7191.975267
         4.62e-06       7191.275804
         4.63e-06       7190.794825
         4.64e-06       7190.201617
         4.65e-06        7189.00403
         4.66e-06       7188.455355
         4.67e-06       7188.037374
         4.68e-06       7187.244026
         4.69e-06       7187.239128
          4.7e-06       7186.046699
         4.71e-06       7185.155174
         4.72e-06       7184.625808
         4.73e-06       7184.135998
         4.74e-06       7183.104656
         4.75e-06       7182.120523
         4.76e-06       7181.922986
         4.77e-06       7181.564051
         4.78e-06       7180.858819
         4.79e-06       7180.666192
          4.8e-06       7180.219265
         4.81e-06       7179.987897
         4.82e-06       7179.452874
         4.83e-06       7178.337452
         4.84e-06       7178.274663
         4.85e-06       7177.575285
         4.86e-06       7176.771844
         4.87e-06        7176.01037
         4.88e-06        7175.23231
         4.89e-06       7174.482372
          4.9e-06       7174.026012
         4.91e-06       7173.660315
         4.92e-06       7172.759193
         4.93e-06        7172.23364
         4.94e-06       7172.223184
         4.95e-06       7171.470055
         4.96e-06       7171.107761
         4.97e-06       7170.611941
         4.98e-06        7170.29867
         4.99e-06       7169.966132
            5e-06       7168.926641
         5.01e-06       7168.083782
         5.02e-06       7167.914331
         5.03e-06       7167.398025
         5.04e-06         7166.3379
         5.05e-06       7165.763716
         5.06e-06       7164.666366
         5.07e-06       7163.675893
         5.08e-06       7163.235593
         5.09e-06       7163.113335
          5.1e-06       7162.121139
         5.11e-06       7162.015436
         5.12e-06       7161.110802
         5.13e-06       7160.321611
         5.14e-06       7159.892379
         5.15e-06       7159.384333
         5.16e-06       7159.025696
         5.17e-06       7158.751195
         5.18e-06       7157.645113
         5.19e-06       7157.214688
          5.2e-06       7156.661084
         5.21e-06       7155.516648
         5.22e-06       7155.058044
         5.23e-06       7154.901512
         5.24e-06       7154.063608
         5.25e-06       7153.464974
         5.26e-06       7152.678377
         5.27e-06       7151.944748
         5.28e-06       7151.303366
         5.29e-06       7151.028634
          5.3e-06       7150.357789
         5.31e-06       7149.711631
         5.32e-06       7149.311789
         5.33e-06       7148.733728
         5.34e-06       7148.168346
         5.35e-06       7147.429664
         5.36e-06       7147.133214
         5.37e-06        7146.80483
         5.38e-06       7146.307751
         5.39e-06       7145.627012
          5.4e-06       7145.231342
         5.41e-06       7144.319529
         5.42e-06       7143.413771
         5.43e-06       7142.436787
         5.44e-06       7141.996004
         5.45e-06       7141.951072
         5.46e-06       7141.376835
         5.47e-06       7141.044939
         5.48e-06       7140.633177
         5.49e-06        7140.01298
          5.5e-06       7139.894147
         5.51e-06       7139.282042
         5.52e-06       7138.361464
         5.53e-06       7138.250663
         5.54e-06       7137.352158
         5.55e-06       7136.891581
         5.56e-06       7136.876088
         5.57e-06       7136.159795
         5.58e-06       7135.646924
         5.59e-06       7135.169678
          5.6e-06       7134.939943
         5.61e-06       7134.654762
         5.62e-06       7134.314677
         5.63e-06       7133.554171
         5.64e-06       7133.095656
         5.65e-06       7132.144687
         5.66e-06       7131.159381
         5.67e-06       7130.546332
         5.68e-06       7130.097481
         5.69e-06       7129.313182
          5.7e-06       7128.913699
         5.71e-06        7128.27051
         5.72e-06       7127.334557
         5.73e-06       7127.281087
         5.74e-06       7127.200167
         5.75e-06       7126.899783
         5.76e-06       7126.545072
         5.77e-06       7125.838954
         5.78e-06       7125.065355
         5.79e-06       7124.961417
          5.8e-06       7124.417622
         5.81e-06        7124.05137
         5.82e-06       7123.719603
         5.83e-06       7122.949949
         5.84e-06        7122.17233
         5.85e-06       7121.653626
         5.86e-06        7120.96764
         5.87e-06       7120.376513
         5.88e-06        7120.00005
         5.89e-06       7119.311702
          5.9e-06       7119.290188
         5.91e-06       7118.684463
         5.92e-06       7117.916351
         5.93e-06       7117.729038
         5.94e-06       7116.897639
         5.95e-06       7116.065585
         5.96e-06       7115.431828
         5.97e-06       7115.402105
         5.98e-06       7114.694332
         5.99e-06       7114.606119
            6e-06       7114.408982
         6.01e-06       7114.015071
         6.02e-06       7114.033899
         6.03e-06       7114.179901
         6.04e-06       7113.454812
         6.05e-06       7112.941438
         6.06e-06       7112.436176
         6.07e-06       7111.808748
         6.08e-06       7111.257827
         6.09e-06        7110.82447
          6.1e-06        7110.58236
         6.11e-06       7110.203688
         6.12e-06       7109.532841
         6.13e-06       7109.027375
         6.14e-06       7108.441495
         6.15e-06       7107.973431
         6.16e-06       7108.006062
         6.17e-06       7108.103553
         6.18e-06       7107.676916
         6.19e-06       7107.559346
          6.2e-06       7106.984924
         6.21e-06        7106.92052
         6.22e-06       7106.643166
         6.23e-06       7106.218127
         6.24e-06       7106.030812
         6.25e-06       7105.429621
         6.26e-06       7104.604489
         6.27e-06       7104.393281
         6.28e-06       7103.764509
         6.29e-06       7103.199096
          6.3e-06       7102.652804
         6.31e-06       7102.287202
         6.32e-06       7101.936102
         6.33e-06       7101.441242
         6.34e-06       7101.100871
         6.35e-06       7100.715597
         6.36e-06       7100.399952
         6.37e-06       7100.318643
         6.38e-06       7099.935557
         6.39e-06       7099.942908
          6.4e-06        7099.47543
         6.41e-06       7099.137806
         6.42e-06       7098.308706
         6.43e-06       7097.956695
         6.44e-06       7097.796497
         6.45e-06       7097.545223
         6.46e-06       7097.345176
         6.47e-06       7097.034148
         6.48e-06       7096.576253
         6.49e-06       7096.027301
          6.5e-06        7095.61446
         6.51e-06       7095.368586
         6.52e-06       7095.035075
         6.53e-06       7094.381263
         6.54e-06       7094.139468
         6.55e-06       7093.981176
         6.56e-06       7093.950913
         6.57e-06        7093.96472
         6.58e-06       7093.440657
         6.59e-06       7093.243771
          6.6e-06       7092.894041
         6.61e-06       7092.287629
         6.62e-06       7092.317415
         6.63e-06       7091.848122
         6.64e-06       7091.727824
         6.65e-06       7091.329459
         6.66e-06       7090.795246
         6.67e-06        7090.89377
         6.68e-06       7090.681708
         6.69e-06        7090.27421
          6.7e-06       7089.603101
         6.71e-06       7088.985803
         6.72e-06       7088.456072
         6.73e-06       7088.419235
         6.74e-06       7088.162536
         6.75e-06       7087.700457
         6.76e-06       7087.302512
         6.77e-06       7086.826301
         6.78e-06       7086.369324
         6.79e-06       7086.504597
          6.8e-06       7085.579106
         6.81e-06       7085.571135
         6.82e-06       7085.251083
         6.83e-06       7085.069748
         6.84e-06       7084.571424
         6.85e-06       7084.381373
         6.86e-06       7084.448343
         6.87e-06       7084.341727
         6.88e-06       7084.336271
         6.89e-06       7083.690287
          6.9e-06       7083.291486
         6.91e-06       7082.949293
         6.92e-06       7082.324766
         6.93e-06       7082.236655
         6.94e-06       7082.036226
         6.95e-06       7081.596306
         6.96e-06       7081.438964
         6.97e-06       7081.273745
         6.98e-06       7080.638733
         6.99e-06       7080.148974
            7e-06       7079.972395
         7.01e-06       7079.463358
         7.02e-06       7079.023482
         7.03e-06       7078.493052
         7.04e-06       7078.361894
         7.05e-06       7077.664452
         7.06e-06       7077.287423
         7.07e-06       7077.024502
         7.08e-06       7076.581052
         7.09e-06       7076.206557
          7.1e-06       7075.885083
         7.11e-06       7075.666729
         7.12e-06       7075.709508
         7.13e-06       7075.392543
         7.14e-06       7075.373728
         7.15e-06       7075.222983
         7.16e-06       7074.908638
         7.17e-06       7074.197387
         7.18e-06       7073.936559
         7.19e-06       7073.802454
          7.2e-06       7073.843439
         7.21e-06       7073.759092
         7.22e-06       7073.302252
         7.23e-06       7073.016749
         7.24e-06       7072.880839
         7.25e-06       7072.760762
         7.26e-06       7072.611365
         7.27e-06       7072.320567
         7.28e-06       7071.928233
         7.29e-06       7071.624827
          7.3e-06       7071.305058
         7.31e-06       7070.864384
         7.32e-06       7070.516698
         7.33e-06       7070.157248
         7.34e-06       7069.792613
         7.35e-06       7069.419963
         7.36e-06       7069.246558
         7.37e-06       7068.717178
         7.38e-06       7068.513977
         7.39e-06       7068.529745
          7.4e-06       7068.213838
         7.41e-06       7067.803648
         7.42e-06       7067.487113
         7.43e-06        7067.31405
         7.44e-06       7067.132455
         7.45e-06       7066.710647
         7.46e-06        7066.28056
         7.47e-06        7066.23097
         7.48e-06       7065.770429
         7.49e-06       7065.696957
          7.5e-06       7065.115338
         7.51e-06       7064.791934
         7.52e-06        7064.34096
         7.53e-06       7064.015853
         7.54e-06        7063.89474
         7.55e-06       7063.384079
         7.56e-06       7063.055715
         7.57e-06       7062.829928
         7.58e-06       7062.224607
         7.59e-06       7062.172994
          7.6e-06       7061.739721
         7.61e-06       7061.459279
         7.62e-06       7061.485137
         7.63e-06       7061.209975
         7.64e-06       7060.917743
         7.65e-06        7060.20043
         7.66e-06       7059.879075
         7.67e-06       7060.222495
         7.68e-06        7059.66478
         7.69e-06       7059.104289
          7.7e-06       7058.819388
         7.71e-06       7058.627062
         7.72e-06       7058.580924
         7.73e-06         7058.2741
         7.74e-06       7058.128053
         7.75e-06       7058.468608
         7.76e-06       7058.305521
         7.77e-06       7058.071101
         7.78e-06       7057.346367
         7.79e-06       7056.771733
          7.8e-06       7056.550146
         7.81e-06       7055.911156
         7.82e-06       7055.520187
         7.83e-06       7055.491959
         7.84e-06       7055.294806
         7.85e-06       7055.014288
         7.86e-06        7054.86741
         7.87e-06        7054.71784
         7.88e-06       7054.409221
         7.89e-06       7054.248766
          7.9e-06       7053.937652
         7.91e-06       7053.647894
         7.92e-06       7053.354452
         7.93e-06       7053.164184
         7.94e-06       7053.120497
         7.95e-06       7053.177282
         7.96e-06       7052.756368
         7.97e-06       7052.589131
         7.98e-06       7052.574273
         7.99e-06       7052.405001
            8e-06         7051.8366
         8.01e-06        7051.23083
         8.02e-06       7051.012505
         8.03e-06       7050.885113
         8.04e-06       7050.688773
         8.05e-06       7050.915508
         8.06e-06       7050.702506
         8.07e-06       7050.276102
         8.08e-06       7049.861306
         8.09e-06       7049.657666
          8.1e-06       7049.432454
         8.11e-06       7049.454617
         8.12e-06       7049.230079
         8.13e-06       7048.937673
         8.14e-06        7048.92852
         8.15e-06       7048.836047
         8.16e-06       7048.789318
         8.17e-06       7048.549329
         8.18e-06       7048.504498
         8.19e-06       7048.140937
          8.2e-06        7048.35628
         8.21e-06       7047.939531
         8.22e-06       7047.722353
         8.23e-06       7047.994036
         8.24e-06       7047.810648
         8.25e-06       7047.774383
         8.26e-06       7047.585688
         8.27e-06       7047.699925
         8.28e-06       7047.435886
         8.29e-06        7046.93263
          8.3e-06       7046.652076
         8.31e-06       7046.232228