# Probe 0 (5e-06 5e-06 5e-06)
#           Probe                 0
#            Time
            1e-08       10035.97569
            2e-08       10021.36878
            3e-08       9990.804149
            4e-08       10002.43848
            5e-08       9987.008766
            6e-08       9983.439702
            7e-08       9973.151169
            8e-08       9968.010765
            9e-08       9966.484085
            1e-07       9938.506181
          1.1e-07        9945.98725
          1.2e-07       9946.720228
          1.3e-07       9937.084338
          1.4e-07       9937.877053
          1.5e-07       9920.365354
          1.6e-07       9898.674155
          1.7e-07       9865.134105
          1.8e-07       9860.506623
          1.9e-07        9844.99664
            2e-07       9847.492832
          2.1e-07       9855.600851
          2.2e-07       9866.990619
          2.3e-07       9853.447092
          2.4e-07       9852.233429
          2.5e-07        9856.32894
          2.6e-07       9849.693102
          2.7e-07       9846.415163
          2.8e-07       9838.660011
          2.9e-07       9839.806022
            3e-07       9812.920983
          3.1e-07       9823.621869
          3.2e-07       9832.144195
          3.3e-07        9835.59248
          3.4e-07       9826.056083
          3.5e-07       9815.055055
          3.6e-07       9792.916859
          3.7e-07       9795.749838
          3.8e-07       9779.205561
          3.9e-07       9770.197972
            4e-07       9755.400429
          4.1e-07       9740.889346
          4.2e-07       9743.372074
          4.3e-07       9726.886105
          4.4e-07       9718.785353
          4.5e-07       9726.547346
          4.6e-07        9717.11533
          4.7e-07       9736.956994
          4.8e-07       9708.806275
          4.9e-07       9685.071317
            5e-07       9673.626318
          5.1e-07       9658.320569
          5.2e-07       9627.901373
          5.3e-07       9644.758726
          5.4e-07       9644.518312
          5.5e-07       9634.490002
          5.6e-07       9625.682829
          5.7e-07       9608.298326
          5.8e-07       9603.421013
          5.9e-07       9594.974589
            6e-07       9574.644824
          6.1e-07       9575.827471
          6.2e-07       9558.715523
          6.3e-07       9578.366247
          6.4e-07       9583.254584
          6.5e-07        9585.29078
          6.6e-07       9590.222095
          6.7e-07       9578.061417
          6.8e-07       9558.171726
          6.9e-07       9544.152329
            7e-07       9532.154205
          7.1e-07       9516.437298
          7.2e-07       9505.242991
          7.3e-07       9481.562982
          7.4e-07       9467.443017
          7.5e-07       9472.905425
          7.6e-07       9481.168627
          7.7e-07        9455.82913
          7.8e-07       9460.541002
          7.9e-07       9447.883818
            8e-07       9436.257787
          8.1e-07       9449.276127
          8.2e-07       9452.962376
          8.3e-07        9441.12506
          8.4e-07       9434.089717
          8.5e-07       9429.289141
          8.6e-07       9439.846784
          8.7e-07       9424.139757
          8.8e-07       9410.406327
          8.9e-07       9398.421872
            9e-07       9385.719788
          9.1e-07       9388.608305
          9.2e-07       9385.214841
          9.3e-07       9393.975722
          9.4e-07       9405.600617
          9.5e-07       9405.061981
          9.6e-07        9394.43526
          9.7e-07        9382.00364
          9.8e-07       9378.748884
          9.9e-07       9372.111857
            1e-06        9355.53896
         1.01e-06       9350.087533
         1.02e-06       9358.347599
         1.03e-06       9360.512475
         1.04e-06       9370.581447
         1.05e-06       9355.824517
         1.06e-06       9337.002274
         1.07e-06        9333.40433
         1.08e-06       9335.255275
         1.09e-06       9343.000987
          1.1e-06       9328.699801
         1.11e-06       9313.123196
         1.12e-06       9312.666642
         1.13e-06       9304.609545
         1.14e-06       9296.941886
         1.15e-06       9288.475169
         1.16e-06       9270.987685
         1.17e-06       9228.022697
         1.18e-06       9234.576097
         1.19e-06       9247.400037
          1.2e-06       9256.691134
         1.21e-06       9270.686307
         1.22e-06       9272.097371
         1.23e-06       9275.735364
         1.24e-06       9263.256371
         1.25e-06       9265.140658
         1.26e-06       9244.669009
         1.27e-06        9243.18973
         1.28e-06       9234.480557
         1.29e-06       9224.886899
          1.3e-06       9216.146869
         1.31e-06       9207.803238
         1.32e-06       9196.131025
         1.33e-06       9204.294522
         1.34e-06       9209.767742
         1.35e-06       9207.018635
         1.36e-06       9185.122721
         1.37e-06       9171.255744
         1.38e-06       9179.015807
         1.39e-06       9180.319363
          1.4e-06       9183.660659
         1.41e-06       9168.362274
         1.42e-06       9185.611211
         1.43e-06       9168.535119
         1.44e-06       9159.426347
         1.45e-06       9149.008148
         1.46e-06       9150.774793
         1.47e-06       9136.102657
         1.48e-06       9161.852975
         1.49e-06       9154.707074
          1.5e-06       9145.344715
         1.51e-06       9145.689469
         1.52e-06       9126.330329
         1.53e-06       9117.358296
         1.54e-06       9080.180995
         1.55e-06       9080.998686
         1.56e-06       9071.649129
         1.57e-06       9064.394089
         1.58e-06       9042.271893
         1.59e-06        9023.70954
          1.6e-06       9021.772348
         1.61e-06       9023.394087
         1.62e-06       9005.818404
         1.63e-06        8995.59354
         1.64e-06        9000.97286
         1.65e-06        8989.37314
         1.66e-06       8980.352943
         1.67e-06       8975.770119
         1.68e-06       9011.801027
         1.69e-06       9017.049849
          1.7e-06       9009.682931
         1.71e-06       9008.540547
         1.72e-06         9023.2632
         1.73e-06       9033.809906
         1.74e-06       9024.171164
         1.75e-06       9011.554601
         1.76e-06       9003.591636
         1.77e-06       9000.630648
         1.78e-06       9008.950426
         1.79e-06        8995.45311
          1.8e-06        9006.07796
         1.81e-06       9002.154334
         1.82e-06       9021.721663
         1.83e-06        8991.73351
         1.84e-06       8979.111149
         1.85e-06       8971.911135
         1.86e-06       8957.093066
         1.87e-06       8956.503921
         1.88e-06       8939.545176
         1.89e-06       8936.859307
          1.9e-06       8927.317168
         1.91e-06       8915.370262
         1.92e-06       8891.172998
         1.93e-06        8891.32516
         1.94e-06       8903.416228
         1.95e-06       8919.852133
         1.96e-06       8906.710174
         1.97e-06       8897.586335
         1.98e-06       8878.915234
         1.99e-06       8870.297698
            2e-06       8866.101333
         2.01e-06       8879.262478
         2.02e-06       8889.789264
         2.03e-06       8878.308716
         2.04e-06       8862.990914
         2.05e-06       8875.638744
         2.06e-06       8890.692633
         2.07e-06       8876.555588
         2.08e-06       8890.017432
         2.09e-06        8867.80208
          2.1e-06       8853.310208
         2.11e-06       8838.386314
         2.12e-06       8846.050575
         2.13e-06       8841.683313
         2.14e-06       8838.407675
         2.15e-06       8841.197951
         2.16e-06       8815.677573
         2.17e-06       8802.640289
         2.18e-06       8798.704606
         2.19e-06       8786.994304
          2.2e-06       8786.626885
         2.21e-06       8803.108152
         2.22e-06       8801.640806
         2.23e-06       8793.526033
         2.24e-06       8773.117127
         2.25e-06       8780.895754
         2.26e-06       8779.516896
         2.27e-06       8784.040643
         2.28e-06       8774.216847
         2.29e-06       8784.009304
          2.3e-06        8768.75349
         2.31e-06       8757.680894
         2.32e-06       8761.964728
         2.33e-06       8754.625943
         2.34e-06       8738.486158
         2.35e-06       8735.278848
         2.36e-06       8746.594479
         2.37e-06       8748.694223
         2.38e-06       8750.602734
         2.39e-06       8734.981239
          2.4e-06       8743.611658
         2.41e-06       8729.919208
         2.42e-06       8749.721899
         2.43e-06       8759.267552
         2.44e-06       8752.267851
         2.45e-06       8742.177972
         2.46e-06       8733.923682
         2.47e-06       8736.710075
         2.48e-06       8753.461161
         2.49e-06       8747.224258
          2.5e-06        8751.53764
         2.51e-06       8729.131759
         2.52e-06       8738.764249
         2.53e-06       8732.872048
         2.54e-06       8725.248717
         2.55e-06        8727.24016
         2.56e-06       8744.917933
         2.57e-06       8726.493694
         2.58e-06       8722.959479
         2.59e-06       8708.343713
          2.6e-06       8686.249776
         2.61e-06       8664.987712
         2.62e-06       8669.699606
         2.63e-06       8654.804956
         2.64e-06       8670.255601
         2.65e-06       8689.602076
         2.66e-06       8694.694035
         2.67e-06       8698.024993
         2.68e-06       8687.193039
         2.69e-06       8665.438734
          2.7e-06       8677.893079
         2.71e-06       8648.814445
         2.72e-06       8645.312076
         2.73e-06       8643.391544
         2.74e-06        8629.10987
         2.75e-06       8609.098591
         2.76e-06       8608.464279
         2.77e-06       8607.699644
         2.78e-06       8597.635559
         2.79e-06       8586.342088
          2.8e-06       8595.758714
         2.81e-06       8588.348871
         2.82e-06       8608.212741
         2.83e-06       8613.702239
         2.84e-06       8604.253613
         2.85e-06       8585.873978
         2.86e-06       8594.206818
         2.87e-06        8598.66552
         2.88e-06       8587.795575
         2.89e-06       8594.927612
          2.9e-06       8593.695877
         2.91e-06       8587.965098
         2.92e-06       8584.448159
         2.93e-06       8585.824952
         2.94e-06       8582.128363
         2.95e-06       8589.448574
         2.96e-06       8587.554528
         2.97e-06       8580.892763
         2.98e-06       8594.086912
         2.99e-06       8581.898548
            3e-06        8572.65124
         3.01e-06       8574.732415
         3.02e-06       8572.693615
         3.03e-06       8570.555355
         3.04e-06       8563.550298
         3.05e-06       8550.476721
         3.06e-06       8537.190274
         3.07e-06       8538.060368
         3.08e-06       8529.002434
         3.09e-06        8519.41275
          3.1e-06       8523.443036
         3.11e-06       8528.798321
         3.12e-06       8521.844158
         3.13e-06       8530.134557
         3.14e-06        8526.37107
         3.15e-06       8534.241607
         3.16e-06       8532.120766
         3.17e-06       8544.810603
         3.18e-06       8537.278043
         3.19e-06       8530.134822
          3.2e-06       8536.326492
         3.21e-06        8526.17459
         3.22e-06         8525.5293
         3.23e-06       8537.712434
         3.24e-06       8522.210621
         3.25e-06       8518.428555
         3.26e-06       8506.673628
         3.27e-06       8510.205477
         3.28e-06       8514.143039
         3.29e-06        8526.67374
          3.3e-06       8506.296587
         3.31e-06       8491.763607
         3.32e-06       8489.638083
         3.33e-06       8501.396209
         3.34e-06       8483.520617
         3.35e-06       8483.894323
         3.36e-06       8482.560505
         3.37e-06       8478.270058
         3.38e-06       8484.405873
         3.39e-06       8495.650386
          3.4e-06       8501.905388
         3.41e-06       8486.023573
         3.42e-06       8488.965323
         3.43e-06       8484.310213
         3.44e-06       8475.958221
         3.45e-06       8454.060808
         3.46e-06       8468.164297
         3.47e-06       8469.874602
         3.48e-06       8477.895842
         3.49e-06       8489.267565
          3.5e-06       8461.428658
         3.51e-06       8481.031782
         3.52e-06       8456.692776
         3.53e-06       8434.667767
         3.54e-06       8448.727343
         3.55e-06       8453.345058
         3.56e-06       8455.795389
         3.57e-06       8453.068604
         3.58e-06       8455.213189
         3.59e-06       8446.625429
          3.6e-06       8454.610647
         3.61e-06       8435.747417
         3.62e-06       8427.493843
         3.63e-06       8416.128738
         3.64e-06       8399.314402
         3.65e-06       8398.140152
         3.66e-06       8410.043165
         3.67e-06       8418.747441
         3.68e-06       8395.525615
         3.69e-06        8395.05184
          3.7e-06       8408.400464
         3.71e-06       8402.411815
         3.72e-06       8399.356042
         3.73e-06       8407.175145
         3.74e-06       8401.056364
         3.75e-06        8390.68746
         3.76e-06       8371.328245
         3.77e-06       8363.242787
         3.78e-06        8369.02075
         3.79e-06       8363.291749
          3.8e-06       8372.638937
         3.81e-06        8381.97049
         3.82e-06       8365.753813
         3.83e-06       8337.791858
         3.84e-06       8325.878165
         3.85e-06       8341.470211
         3.86e-06       8345.943763
         3.87e-06       8354.435627
         3.88e-06       8354.011945
         3.89e-06       8355.505853
          3.9e-06       8361.573108
         3.91e-06       8356.925556
         3.92e-06       8354.745304
         3.93e-06       8341.297923
         3.94e-06       8346.119814
         3.95e-06       8344.743762
         3.96e-06       8351.035442
         3.97e-06       8354.409727
         3.98e-06       8340.920322
         3.99e-06       8330.807859
            4e-06       8347.061296
         4.01e-06        8340.58131
         4.02e-06       8361.118616
         4.03e-06       8358.355401
         4.04e-06       8359.492378
         4.05e-06         8350.1439
         4.06e-06       8357.159227
         4.07e-06       8348.445173
         4.08e-06       8344.346336
         4.09e-06       8349.346365
          4.1e-06       8348.597315
         4.11e-06       8366.284142
         4.12e-06        8357.66599
         4.13e-06       8355.589309
         4.14e-06       8342.320442
         4.15e-06        8340.38322
         4.16e-06       8343.585873
         4.17e-06       8336.034827
         4.18e-06       8326.969628
         4.19e-06       8317.923387
          4.2e-06       8315.769645
         4.21e-06       8312.574478
         4.22e-06       8312.177568
         4.23e-06       8296.312334
         4.24e-06       8298.352496
         4.25e-06       8290.265505
         4.26e-06       8295.388843
         4.27e-06       8291.060999
         4.28e-06       8278.749921
         4.29e-06       8284.664837
          4.3e-06       8279.364167
         4.31e-06       8268.738799
         4.32e-06       8265.008853
         4.33e-06       8272.481183
         4.34e-06       8261.780961
         4.35e-06       8267.786958
         4.36e-06       8284.837376
         4.37e-06       8277.028336
         4.38e-06       8277.629135
         4.39e-06       8279.025827
          4.4e-06        8263.58899
         4.41e-06        8268.40466
         4.42e-06       8266.812412
         4.43e-06       8249.592601
         4.44e-06       8257.558387
         4.45e-06       8240.459159
         4.46e-06       8245.455531
         4.47e-06       8265.482994
         4.48e-06       8269.075378
         4.49e-06       8259.739216
          4.5e-06       8245.476565
         4.51e-06       8240.243589
         4.52e-06       8229.392757
         4.53e-06       8236.506916
         4.54e-06       8234.435008
         4.55e-06       8239.886099
         4.56e-06        8237.25623
         4.57e-06       8225.982147
         4.58e-06       8222.688644
         4.59e-06       8221.604777
          4.6e-06       8235.457786
         4.61e-06       8231.823282
         4.62e-06       8234.970989
         4.63e-06       8231.692561
         4.64e-06       8228.374589
         4.65e-06       8242.719772
         4.66e-06       8239.419644
         4.67e-06       8229.560643
         4.68e-06       8240.540034
         4.69e-06       8232.091405
          4.7e-06       8212.478735
         4.71e-06       8207.313333
         4.72e-06       8206.761263
         4.73e-06       8199.117852
         4.74e-06       8221.554805
         4.75e-06       8211.872108
         4.76e-06       8214.752972
         4.77e-06       8209.378679
         4.78e-06       8227.678823
         4.79e-06       8208.083773
          4.8e-06       8195.441359
         4.81e-06       8210.788851
         4.82e-06       8192.402343
         4.83e-06       8182.966564
         4.84e-06       8179.388607
         4.85e-06       8175.677185
         4.86e-06       8169.324119
         4.87e-06        8162.87555
         4.88e-06       8164.566224
         4.89e-06       8170.523934
          4.9e-06       8192.240074
         4.91e-06       8189.743138
         4.92e-06       8181.858266
         4.93e-06       8178.238346
         4.94e-06       8208.965758
         4.95e-06       8194.885324
         4.96e-06       8200.790711
         4.97e-06       8189.899638
         4.98e-06       8192.773926
         4.99e-06       8199.829114
            5e-06       8212.998888
         5.01e-06       8220.157908
         5.02e-06       8213.625391
         5.03e-06         8214.6669
         5.04e-06       8216.049011
         5.05e-06       8212.917267
         5.06e-06       8206.244502
         5.07e-06       8200.431976
         5.08e-06        8170.73411
         5.09e-06       8174.819939
          5.1e-06        8172.18914
         5.11e-06       8164.699837
         5.12e-06       8164.411138
         5.13e-06       8148.179319
         5.14e-06       8135.742233
         5.15e-06       8125.467839
         5.16e-06       8128.041776
         5.17e-06       8144.097349
         5.18e-06       8145.473037
         5.19e-06       8142.690818
          5.2e-06       8123.717701
         5.21e-06       8124.591313
         5.22e-06       8122.206859
         5.23e-06       8131.004217
         5.24e-06       8127.992267
         5.25e-06       8131.294233
         5.26e-06        8142.02061
         5.27e-06       8129.266872
         5.28e-06       8135.289978
         5.29e-06       8123.437943
          5.3e-06       8130.285311
         5.31e-06       8126.375129
         5.32e-06       8124.458596
         5.33e-06       8116.776682
         5.34e-06       8109.764647
         5.35e-06       8106.046035
         5.36e-06         8087.4051
         5.37e-06       8099.584452
         5.38e-06       8105.531774
         5.39e-06       8103.190989
          5.4e-06       8102.013904
         5.41e-06       8111.049254
         5.42e-06       8101.419818
         5.43e-06       8092.181142
         5.44e-06       8086.472832
         5.45e-06       8091.615671
         5.46e-06       8088.944769
         5.47e-06        8099.24141
         5.48e-06       8089.120132
         5.49e-06       8090.880382
          5.5e-06       8078.736675
         5.51e-06       8079.925139
         5.52e-06       8085.145646
         5.53e-06       8081.499367
         5.54e-06       8082.930296
         5.55e-06        8064.28552
         5.56e-06       8067.992852
         5.57e-06       8052.763214
         5.58e-06       8013.230064
         5.59e-06       8024.161051
          5.6e-06       8037.955886
         5.61e-06       8056.332748
         5.62e-06       8067.141112
         5.63e-06        8062.12221
         5.64e-06       8060.958725
         5.65e-06       8065.326638
         5.66e-06       8070.693371
         5.67e-06       8077.545484
         5.68e-06       8072.920057
         5.69e-06       8075.810919
          5.7e-06       8082.507492
         5.71e-06       8057.860182
         5.72e-06       8071.520966
         5.73e-06       8061.761543
         5.74e-06       8064.744355
         5.75e-06        8076.87588
         5.76e-06       8081.085111
         5.77e-06         8079.7046
         5.78e-06       8068.184173
         5.79e-06       8058.619842
          5.8e-06       8045.350052
         5.81e-06       8057.526098
         5.82e-06       8051.388848
         5.83e-06       8042.843261
         5.84e-06       8044.591412
         5.85e-06        8051.32748
         5.86e-06       8032.642138
         5.87e-06       8031.111379
         5.88e-06       8021.954073
         5.89e-06       8016.683573
          5.9e-06       8018.034365
         5.91e-06       8009.305367
         5.92e-06       8013.446878
         5.93e-06       8024.211484
         5.94e-06       8032.420452
         5.95e-06       8044.838504
         5.96e-06       8017.163323
         5.97e-06       8015.242829
         5.98e-06       8014.621443
         5.99e-06       8004.201813
            6e-06       8005.605041
         6.01e-06        8002.99186
         6.02e-06       7990.723345
         6.03e-06       8008.594431
         6.04e-06       8012.297877
         6.05e-06       8008.884872
         6.06e-06       8017.467075
         6.07e-06       8013.568461
         6.08e-06       8011.182969
         6.09e-06       8016.814285
          6.1e-06       8035.208789
         6.11e-06       8028.428838
         6.12e-06       8015.488125
         6.13e-06       8009.046022
         6.14e-06       8002.762583
         6.15e-06        7998.52364
         6.16e-06       7999.229495
         6.17e-06       8013.093431
         6.18e-06       7999.373663
         6.19e-06         8011.0978
          6.2e-06       8001.945228
         6.21e-06       8001.664046
         6.22e-06       8013.111715
         6.23e-06       8009.335762
         6.24e-06        8004.32819
         6.25e-06        7992.22138
         6.26e-06         7992.5695
         6.27e-06       7990.731871
         6.28e-06       7985.020733
         6.29e-06       7961.410261
          6.3e-06       7951.583223
         6.31e-06       7942.206328
         6.32e-06       7950.571372
         6.33e-06       7960.126495
         6.34e-06       7958.205731
         6.35e-06        7946.52396
         6.36e-06       7953.037004
         6.37e-06       7947.646977
         6.38e-06       7949.029647
         6.39e-06       7939.289618
          6.4e-06       7921.426348
         6.41e-06       7937.795103
         6.42e-06       7942.291568
         6.43e-06       7956.401031
         6.44e-06       7940.873487
         6.45e-06       7939.818405
         6.46e-06       7942.323046
         6.47e-06       7947.322344
         6.48e-06       7942.238469
         6.49e-06       7938.039618
          6.5e-06       7940.806769
         6.51e-06       7941.403765
         6.52e-06        7946.08615
         6.53e-06       7946.057849
         6.54e-06       7953.979458
         6.55e-06       7952.344579
         6.56e-06        7954.59817
         6.57e-06       7952.310942
         6.58e-06       7957.423324
         6.59e-06       7959.182152
          6.6e-06       7938.293486
         6.61e-06       7929.503385
         6.62e-06       7936.972243
         6.63e-06       7929.396536
         6.64e-06       7922.209584
         6.65e-06       7919.781056
         6.66e-06       7900.743898
         6.67e-06       7926.602489
         6.68e-06       7927.221865
         6.69e-06       7938.705703
          6.7e-06       7923.424903
         6.71e-06       7923.482334
         6.72e-06       7909.745354
         6.73e-06       7925.548603
         6.74e-06       7921.314824
         6.75e-06        7916.10861
         6.76e-06       7906.370667
         6.77e-06       7903.546808
         6.78e-06       7926.380609
         6.79e-06       7933.704678
          6.8e-06       7925.204474
         6.81e-06       7923.253406
         6.82e-06       7911.386624
         6.83e-06       7913.877606
         6.84e-06       7925.093319
         6.85e-06       7921.015906
         6.86e-06       7923.047668
         6.87e-06       7922.954707
         6.88e-06       7931.241017
         6.89e-06       7920.687112
          6.9e-06       7917.557891
         6.91e-06       7922.690822
         6.92e-06       7913.326129
         6.93e-06       7908.033863
         6.94e-06       7904.001536
         6.95e-06       7901.970275
         6.96e-06       7909.792657
         6.97e-06       7909.254299
         6.98e-06        7890.80999
         6.99e-06       7888.159228
            7e-06       7884.897452
         7.01e-06       7876.004852
         7.02e-06       7875.082976
         7.03e-06       7864.363087
         7.04e-06       7873.773659
         7.05e-06       7871.017943
         7.06e-06       7857.822754
         7.07e-06        7870.28025
         7.08e-06       7865.860006
         7.09e-06       7856.027969
          7.1e-06       7850.082584
         7.11e-06       7853.934203
         7.12e-06       7844.395762
         7.13e-06       7866.435835
         7.14e-06       7862.520705
         7.15e-06       7849.822365
         7.16e-06        7848.58827
         7.17e-06       7827.139676
         7.18e-06       7844.437446
         7.19e-06       7841.351513
          7.2e-06       7856.360766
         7.21e-06        7854.00247
         7.22e-06       7858.013042
         7.23e-06       7859.807466
         7.24e-06        7852.17171
         7.25e-06       7859.732526
         7.26e-06       7850.864859
         7.27e-06       7848.014644
         7.28e-06       7842.569912
         7.29e-06       7834.916742
          7.3e-06       7842.111091
         7.31e-06       7823.387734
         7.32e-06       7828.212345
         7.33e-06        7819.16339
         7.34e-06       7815.670376
         7.35e-06       7806.336732
         7.36e-06        7803.87529
         7.37e-06       7813.174407
         7.38e-06       7811.059208
         7.39e-06        7804.91939
          7.4e-06       7810.772992
         7.41e-06       7805.926785
         7.42e-06       7818.501501
         7.43e-06       7825.727288
         7.44e-06       7839.318243
         7.45e-06         7811.1943
         7.46e-06       7812.698637
         7.47e-06       7821.311921
         7.48e-06       7820.459708
         7.49e-06        7843.88255
          7.5e-06       7824.784879
         7.51e-06        7832.36082
         7.52e-06       7833.003247
         7.53e-06       7828.305878
         7.54e-06       7833.253875
         7.55e-06       7824.328678
         7.56e-06       7817.280417
         7.57e-06       7821.871608
         7.58e-06       7812.037418
         7.59e-06       7812.367866
          7.6e-06       7799.978159
         7.61e-06       7796.910675
         7.62e-06       7802.235705
         7.63e-06       7806.167918
         7.64e-06       7802.940951
         7.65e-06       7770.566433
         7.66e-06       7773.858787
         7.67e-06       7786.740514
         7.68e-06       7774.353811
         7.69e-06       7758.379889
          7.7e-06       7759.851237
         7.71e-06       7770.750594
         7.72e-06       7777.815676
         7.73e-06       7785.519494
         7.74e-06       7785.164156
         7.75e-06       7791.906443
         7.76e-06       7794.072912
         7.77e-06       7801.351251
         7.78e-06       7798.984644
         7.79e-06       7789.419902
          7.8e-06       7772.571815
         7.81e-06       7756.203461
         7.82e-06       7760.760863
         7.83e-06       7769.951943
         7.84e-06       7763.790622
         7.85e-06       7775.523004
         7.86e-06       7774.251014
         7.87e-06       7794.759387
         7.88e-06       7798.170237
         7.89e-06       7804.698689
          7.9e-06       7801.203247
         7.91e-06       7790.679094
         7.92e-06       7787.341851
         7.93e-06       7779.304251
         7.94e-06       7782.764896
         7.95e-06       7784.359289
         7.96e-06       7785.942414
         7.97e-06       7785.433438
         7.98e-06       7783.392919
         7.99e-06       7772.197982
            8e-06        7779.20124
         8.01e-06       7761.826659
         8.02e-06       7746.169363
         8.03e-06       7751.701231
         8.04e-06       7750.161413
         8.05e-06       7773.745634
         8.06e-06       7760.332771
         8.07e-06       7750.205503
         8.08e-06       7744.387279
         8.09e-06        7751.40307
          8.1e-06       7754.841539
         8.11e-06       7748.109822
         8.12e-06        7752.39128
         8.13e-06       7757.442199
         8.14e-06       7760.210285
         8.15e-06       7774.862779
         8.16e-06       7770.801844
         8.17e-06         7763.5538
         8.18e-06       7766.211445
         8.19e-06         7764.8224
          8.2e-06       7781.757075
         8.21e-06       7775.311784
         8.22e-06       7773.121969
         8.23e-06       7784.725899
         8.24e-06       7786.301131
         8.25e-06       7789.868079
         8.26e-06       7791.789611
         8.27e-06       7800.299244
         8.28e-06       7792.094559
         8.29e-06       7773.165106
          8.3e-06       7774.992697
         8.31e-06        7770.08269