# Probe 0 (5e-06 5e-06 5e-06)
#           Probe                 0
#            Time
            1e-08       9983.383485
            2e-08        9978.64954
            3e-08       9983.892717
            4e-08       9960.338178
            5e-08       9958.210598
            6e-08       9944.446818
            7e-08       9938.249238
            8e-08       9926.034958
            9e-08       9913.868843
            1e-07        9917.77729
          1.1e-07       9898.524368
          1.2e-07        9881.21766
          1.3e-07       9873.950574
          1.4e-07       9859.246538
          1.5e-07       9857.126719
          1.6e-07       9858.516972
          1.7e-07       9865.719404
          1.8e-07       9853.110116
          1.9e-07        9850.78571
            2e-07       9834.419839
          2.1e-07        9814.98838
          2.2e-07       9796.767416
          2.3e-07       9790.040425
          2.4e-07       9779.039968
          2.5e-07       9762.678078
          2.6e-07       9755.860529
          2.7e-07       9743.101648
          2.8e-07        9736.75228
          2.9e-07       9723.238262
            3e-07       9729.296555
          3.1e-07       9712.158942
          3.2e-07       9693.494256
          3.3e-07       9679.724894
          3.4e-07       9673.328966
          3.5e-07       9669.538748
          3.6e-07       9670.399218
          3.7e-07       9656.548047
          3.8e-07       9654.589159
          3.9e-07       9646.863696
            4e-07       9644.700756
          4.1e-07       9644.066395
          4.2e-07       9630.356463
          4.3e-07       9628.948764
          4.4e-07       9622.237934
          4.5e-07       9604.003019
          4.6e-07       9601.070558
          4.7e-07       9575.774764
          4.8e-07       9582.276634
          4.9e-07       9589.143547
            5e-07       9587.425035
          5.1e-07       9586.280499
          5.2e-07       9596.050472
          5.3e-07       9576.279006
          5.4e-07        9564.69326
          5.5e-07       9559.385304
          5.6e-07       9552.367086
          5.7e-07       9552.186483
          5.8e-07       9545.765036
          5.9e-07       9541.819253
            6e-07       9544.091639
          6.1e-07       9534.107666
          6.2e-07       9535.382965
          6.3e-07       9514.346288
          6.4e-07       9499.651719
          6.5e-07       9488.623938
          6.6e-07       9475.015601
          6.7e-07       9472.053503
          6.8e-07       9479.263673
          6.9e-07       9476.688367
            7e-07       9474.874429
          7.1e-07       9474.117802
          7.2e-07       9471.328477
          7.3e-07       9473.940714
          7.4e-07       9473.393718
          7.5e-07       9460.125133
          7.6e-07       9443.225922
          7.7e-07       9450.158727
          7.8e-07       9437.986388
          7.9e-07       9435.311394
            8e-07       9430.530183
          8.1e-07       9411.472923
          8.2e-07       9399.370775
          8.3e-07       9396.936843
          8.4e-07       9390.875711
          8.5e-07       9386.647926
          8.6e-07       9369.225816
          8.7e-07       9369.674788
          8.8e-07       9368.516756
          8.9e-07       9367.197821
            9e-07        9366.87856
          9.1e-07       9354.697178
          9.2e-07       9345.168985
          9.3e-07       9329.195452
          9.4e-07       9314.479547
          9.5e-07       9307.306443
          9.6e-07        9305.61921
          9.7e-07       9307.739856
          9.8e-07       9299.131513
          9.9e-07       9295.407378
            1e-06        9297.56614
         1.01e-06       9295.069616
         1.02e-06       9280.866914
         1.03e-06       9269.671396
         1.04e-06       9255.481176
         1.05e-06       9258.346862
         1.06e-06       9260.170391
         1.07e-06        9255.38824
         1.08e-06       9245.465971
         1.09e-06       9230.855979
          1.1e-06        9234.84088
         1.11e-06       9236.681355
         1.12e-06       9227.439926
         1.13e-06       9224.058066
         1.14e-06        9221.43497
         1.15e-06       9217.147444
         1.16e-06        9219.28117
         1.17e-06       9237.938022
         1.18e-06       9229.010015
         1.19e-06       9212.589458
          1.2e-06       9199.763397
         1.21e-06       9179.828725
         1.22e-06       9173.181619
         1.23e-06       9162.793477
         1.24e-06        9162.51269
         1.25e-06       9151.094296
         1.26e-06       9157.954719
         1.27e-06       9146.973883
         1.28e-06        9143.58229
         1.29e-06       9140.556049
          1.3e-06       9139.680005
         1.31e-06        9139.38017
         1.32e-06       9139.799859
         1.33e-06       9125.387135
         1.34e-06       9114.219467
         1.35e-06       9107.776571
         1.36e-06       9114.018366
         1.37e-06       9116.111387
         1.38e-06         9101.3651
         1.39e-06       9092.950001
          1.4e-06       9081.605607
         1.41e-06       9083.906313
         1.42e-06       9064.110822
         1.43e-06       9066.063007
         1.44e-06       9064.726002
         1.45e-06       9063.831653
         1.46e-06       9053.650754
         1.47e-06       9055.780353
         1.48e-06       9032.806868
         1.49e-06       9032.290153
          1.5e-06       9028.899573
         1.51e-06       9020.407818
         1.52e-06       9021.358315
         1.53e-06       9022.120205
         1.54e-06       9041.365567
         1.55e-06       9035.717759
         1.56e-06       9033.237756
         1.57e-06       9032.993588
         1.58e-06       9041.940273
         1.59e-06       9046.309843
          1.6e-06       9038.659425
         1.61e-06       9030.993787
         1.62e-06       9037.581502
         1.63e-06       9036.666603
         1.64e-06        9027.13138
         1.65e-06       9029.791184
         1.66e-06       9031.672828
         1.67e-06       9029.426393
         1.68e-06       8999.232633
         1.69e-06       8991.478342
          1.7e-06       8989.722689
         1.71e-06       8983.584231
         1.72e-06       8965.064177
         1.73e-06       8950.074922
         1.74e-06       8948.995054
         1.75e-06       8951.259929
         1.76e-06        8951.52608
         1.77e-06       8948.729798
         1.78e-06       8934.195743
         1.79e-06       8935.210072
          1.8e-06       8922.442684
         1.81e-06       8917.616959
         1.82e-06       8897.602008
         1.83e-06       8909.174073
         1.84e-06       8910.506963
         1.85e-06       8909.628245
         1.86e-06       8914.099318
         1.87e-06       8908.065863
         1.88e-06       8913.394063
         1.89e-06       8910.872808
          1.9e-06       8906.326807
         1.91e-06       8905.401902
         1.92e-06       8915.232661
         1.93e-06       8906.673815
         1.94e-06       8890.788908
         1.95e-06       8870.678826
         1.96e-06       8873.524462
         1.97e-06        8871.76568
         1.98e-06       8876.720274
         1.99e-06       8877.601333
            2e-06       8875.402807
         2.01e-06       8862.085228
         2.02e-06       8848.668182
         2.03e-06       8850.082063
         2.04e-06       8852.147253
         2.05e-06       8839.387894
         2.06e-06       8823.334783
         2.07e-06       8827.364492
         2.08e-06       8813.041917
         2.09e-06       8822.596234
          2.1e-06       8825.474983
         2.11e-06       8830.398816
         2.12e-06       8818.655296
         2.13e-06       8814.672393
         2.14e-06       8809.857852
         2.15e-06       8801.089361
         2.16e-06        8810.51259
         2.17e-06       8813.962518
         2.18e-06       8807.870316
         2.19e-06       8808.360248
          2.2e-06       8803.141002
         2.21e-06       8784.503692
         2.22e-06       8779.168478
         2.23e-06       8779.799282
         2.24e-06       8785.189882
         2.25e-06       8773.404155
         2.26e-06       8767.462429
         2.27e-06       8758.739693
         2.28e-06       8757.796621
         2.29e-06        8745.95398
          2.3e-06       8752.050561
         2.31e-06        8755.92407
         2.32e-06       8752.210454
         2.33e-06       8749.868815
         2.34e-06       8756.172792
         2.35e-06       8753.293886
         2.36e-06       8740.008925
         2.37e-06       8733.396513
         2.38e-06       8725.840734
         2.39e-06       8733.639227
          2.4e-06       8724.089927
         2.41e-06       8731.111734
         2.42e-06       8714.264767
         2.43e-06       8703.975425
         2.44e-06       8704.951916
         2.45e-06       8706.305672
         2.46e-06       8707.227114
         2.47e-06       8699.559663
         2.48e-06       8681.455481
         2.49e-06       8682.942299
          2.5e-06       8674.952915
         2.51e-06       8684.785313
         2.52e-06        8673.13364
         2.53e-06       8672.683242
         2.54e-06       8670.294963
         2.55e-06       8664.723595
         2.56e-06       8646.444956
         2.57e-06        8652.36133
         2.58e-06       8650.135186
         2.59e-06       8655.237805
          2.6e-06       8663.578352
         2.61e-06       8674.465049
         2.62e-06       8664.530378
         2.63e-06       8669.370788
         2.64e-06       8652.521433
         2.65e-06       8636.027966
         2.66e-06       8629.310212
         2.67e-06       8622.316986
         2.68e-06       8622.267582
         2.69e-06       8631.951037
          2.7e-06       8619.861889
         2.71e-06       8634.652319
         2.72e-06       8634.054882
         2.73e-06       8630.323229
         2.74e-06         8635.8197
         2.75e-06       8645.017399
         2.76e-06       8639.713069
         2.77e-06        8635.08306
         2.78e-06       8637.122219
         2.79e-06       8641.994147
          2.8e-06       8633.070618
         2.81e-06       8633.700583
         2.82e-06       8615.706176
         2.83e-06       8606.429285
         2.84e-06       8605.798597
         2.85e-06       8612.126359
         2.86e-06       8602.556951
         2.87e-06       8593.882222
         2.88e-06       8595.595762
         2.89e-06        8589.09586
          2.9e-06       8584.011026
         2.91e-06        8582.01296
         2.92e-06       8580.750009
         2.93e-06       8574.930957
         2.94e-06       8571.504147
         2.95e-06       8564.823987
         2.96e-06       8559.749126
         2.97e-06        8563.69469
         2.98e-06       8551.347829
         2.99e-06       8553.101131
            3e-06       8555.059182
         3.01e-06       8550.534266
         3.02e-06       8546.562313
         3.03e-06       8542.926508
         3.04e-06       8543.923253
         3.05e-06       8549.294528
         3.06e-06       8553.277637
         3.07e-06       8546.541135
         3.08e-06       8550.523476
         3.09e-06       8553.123115
          3.1e-06       8545.661058
         3.11e-06       8539.422512
         3.12e-06       8539.687021
         3.13e-06       8529.836848
         3.14e-06       8529.116211
         3.15e-06       8520.258552
         3.16e-06       8518.562204
         3.17e-06       8507.362259
         3.18e-06       8509.666061
         3.19e-06        8511.90656
          3.2e-06       8501.874928
         3.21e-06       8506.649416
         3.22e-06        8501.29932
         3.23e-06        8486.99105
         3.24e-06       8493.448284
         3.25e-06       8493.353305
         3.26e-06       8497.992689
         3.27e-06       8493.070179
         3.28e-06       8486.535431
         3.29e-06       8475.360205
          3.3e-06       8485.272197
         3.31e-06       8489.996012
         3.32e-06       8487.849826
         3.33e-06       8475.181227
         3.34e-06       8483.603708
         3.35e-06       8478.596178
         3.36e-06       8475.898636
         3.37e-06       8475.397495
         3.38e-06       8468.040271
         3.39e-06       8456.497495
          3.4e-06       8446.886381
         3.41e-06       8449.510328
         3.42e-06       8442.634752
         3.43e-06       8441.950076
         3.44e-06       8443.192924
         3.45e-06       8456.808178
         3.46e-06       8441.664483
         3.47e-06       8435.687082
         3.48e-06       8429.172395
         3.49e-06       8419.027014
          3.5e-06       8433.658691
         3.51e-06       8417.765342
         3.52e-06       8428.388217
         3.53e-06       8438.881389
         3.54e-06       8424.352533
         3.55e-06       8417.071934
         3.56e-06       8411.674555
         3.57e-06       8406.668427
         3.58e-06       8402.817639
         3.59e-06       8403.173919
          3.6e-06       8394.390421
         3.61e-06       8401.815775
         3.62e-06       8402.723334
         3.63e-06       8405.486879
         3.64e-06        8413.48445
         3.65e-06       8409.782806
         3.66e-06       8399.114364
         3.67e-06       8391.920381
         3.68e-06       8403.020862
         3.69e-06       8399.369774
          3.7e-06       8384.814019
         3.71e-06       8385.367652
         3.72e-06       8383.559834
         3.73e-06       8373.595091
         3.74e-06       8370.635726
         3.75e-06       8372.169626
         3.76e-06        8381.22271
         3.77e-06       8382.672227
         3.78e-06       8377.303735
         3.79e-06       8375.220718
          3.8e-06       8363.011564
         3.81e-06        8351.03603
         3.82e-06       8359.620365
         3.83e-06       8373.309484
         3.84e-06       8378.783813
         3.85e-06       8364.769221
         3.86e-06       8357.351032
         3.87e-06       8349.027444
         3.88e-06       8347.692726
         3.89e-06       8345.576938
          3.9e-06       8336.912899
         3.91e-06       8336.060862
         3.92e-06       8334.880507
         3.93e-06       8341.815607
         3.94e-06       8334.401616
         3.95e-06       8328.587161
         3.96e-06       8323.145332
         3.97e-06        8319.02586
         3.98e-06       8322.699798
         3.99e-06       8324.814733
            4e-06       8312.408662
         4.01e-06       8311.097969
         4.02e-06       8292.794994
         4.03e-06       8291.787147
         4.04e-06       8289.499858
         4.05e-06       8293.239172
         4.06e-06       8286.913858
         4.07e-06       8289.632866
         4.08e-06       8286.898843
         4.09e-06       8282.144155
          4.1e-06       8278.101575
         4.11e-06       8262.682073
         4.12e-06       8265.305411
         4.13e-06       8265.049015
         4.14e-06        8267.99866
         4.15e-06       8267.235091
         4.16e-06       8261.974554
         4.17e-06       8265.599647
         4.18e-06       8266.359701
         4.19e-06       8268.068535
          4.2e-06       8264.854852
         4.21e-06       8263.176542
         4.22e-06       8260.901358
         4.23e-06         8268.8531
         4.24e-06       8262.593322
         4.25e-06       8265.222679
         4.26e-06       8259.507175
         4.27e-06       8261.057634
         4.28e-06       8265.905229
         4.29e-06       8259.686192
          4.3e-06        8259.69496
         4.31e-06       8261.507744
         4.32e-06       8261.883575
         4.33e-06       8252.764451
         4.34e-06       8256.277385
         4.35e-06       8250.504305
         4.36e-06       8234.368489
         4.37e-06       8233.044687
         4.38e-06       8228.338899
         4.39e-06       8227.900119
          4.4e-06       8235.425166
         4.41e-06       8228.720227
         4.42e-06       8227.681347
         4.43e-06       8236.824657
         4.44e-06       8227.467762
         4.45e-06       8237.740458
         4.46e-06       8231.811222
         4.47e-06        8216.73872
         4.48e-06       8211.435477
         4.49e-06       8212.178416
          4.5e-06       8216.734627
         4.51e-06       8217.699923
         4.52e-06       8222.352737
         4.53e-06       8213.481278
         4.54e-06       8211.491229
         4.55e-06       8205.563822
         4.56e-06       8203.927698
         4.57e-06       8210.840686
         4.58e-06        8210.30271
         4.59e-06       8209.406887
          4.6e-06       8196.759001
         4.61e-06       8194.432641
         4.62e-06       8189.774928
         4.63e-06       8189.473359
         4.64e-06       8189.059209
         4.65e-06       8175.260389
         4.66e-06       8176.503499
         4.67e-06       8181.134239
         4.68e-06        8170.60462
         4.69e-06       8174.978863
          4.7e-06       8182.736077
         4.71e-06        8183.18328
         4.72e-06       8181.590666
         4.73e-06       8185.892985
         4.74e-06       8167.375397
         4.75e-06       8170.080806
         4.76e-06         8166.8055
         4.77e-06       8168.174478
         4.78e-06       8153.003414
         4.79e-06        8165.85229
          4.8e-06       8172.274216
         4.81e-06       8160.100655
         4.82e-06       8169.579162
         4.83e-06       8171.252025
         4.84e-06       8173.643834
         4.85e-06       8172.942053
         4.86e-06       8173.721608
         4.87e-06       8173.845743
         4.88e-06       8169.409963
         4.89e-06       8162.651735
          4.9e-06       8146.071068
         4.91e-06       8146.501854
         4.92e-06       8148.363656
         4.93e-06       8148.208353
         4.94e-06       8127.868922
         4.95e-06       8132.763128
         4.96e-06       8127.118197
         4.97e-06       8132.351129
         4.98e-06        8129.64957
         4.99e-06       8123.568343
            5e-06       8110.287963
         5.01e-06       8101.510504
         5.02e-06       8104.337759
         5.03e-06        8100.77066
         5.04e-06        8095.54802
         5.05e-06       8094.544848
         5.06e-06       8093.506104
         5.07e-06       8093.163048
         5.08e-06       8111.792291
         5.09e-06       8108.897251
          5.1e-06       8106.107222
         5.11e-06       8110.287963
         5.12e-06       8106.666635
         5.13e-06       8114.120005
         5.14e-06       8121.545332
         5.15e-06       8125.427223
         5.16e-06        8121.79101
         5.17e-06        8109.63984
         5.18e-06       8103.891835
         5.19e-06       8104.066606
          5.2e-06       8115.563521
         5.21e-06       8110.263456
         5.22e-06       8109.162857
         5.23e-06       8102.926267
         5.24e-06       8102.213337
         5.25e-06       8097.129541
         5.26e-06       8085.164813
         5.27e-06       8090.766372
         5.28e-06       8083.568811
         5.29e-06       8091.346052
          5.3e-06       8083.593486
         5.31e-06       8082.212938
         5.32e-06       8080.795999
         5.33e-06       8083.236746
         5.34e-06       8085.889875
         5.35e-06       8085.065687
         5.36e-06       8096.700592
         5.37e-06       8087.905934
         5.38e-06       8081.339446
         5.39e-06       8079.845015
          5.4e-06       8078.717318
         5.41e-06       8067.852451
         5.42e-06       8069.928582
         5.43e-06       8072.338333
         5.44e-06       8072.849347
         5.45e-06         8069.4192
         5.46e-06       8066.890119
         5.47e-06       8058.173096
         5.48e-06       8062.261723
         5.49e-06       8057.440041
          5.5e-06        8065.02594
         5.51e-06       8061.996621
         5.52e-06       8054.187722
         5.53e-06       8056.224308
         5.54e-06       8050.510873
         5.55e-06       8060.422189
         5.56e-06       8058.224301
         5.57e-06       8065.019513
         5.58e-06       8089.498498
         5.59e-06       8080.126489
          5.6e-06       8070.496414
         5.61e-06       8056.794908
         5.62e-06       8048.741796
         5.63e-06          8049.404
         5.64e-06       8048.199849
         5.65e-06       8040.897251
         5.66e-06       8032.755597
         5.67e-06       8025.200132
         5.68e-06       8026.849486
         5.69e-06       8022.044919
          5.7e-06       8015.048114
         5.71e-06        8027.57558
         5.72e-06       8014.199345
         5.73e-06       8020.433873
         5.74e-06       8018.344056
         5.75e-06        8008.85253
         5.76e-06       8004.739311
         5.77e-06       8001.991378
         5.78e-06       8006.714014
         5.79e-06        8012.38747
          5.8e-06       8018.156764
         5.81e-06       8007.365351
         5.82e-06       8010.282648
         5.83e-06       8011.230892
         5.84e-06        8005.66028
         5.85e-06       7997.661179
         5.86e-06       8007.412756
         5.87e-06       8005.297103
         5.88e-06       8009.975384
         5.89e-06        8010.46503
          5.9e-06         8009.0621
         5.91e-06       8012.551179
         5.92e-06       8006.706105
         5.93e-06       7997.915909
         5.94e-06       7987.642479
         5.95e-06       7974.005822
         5.96e-06       7991.158724
         5.97e-06       7992.132596
         5.98e-06       7988.252038
         5.99e-06       7994.437582
            6e-06       7993.026882
         6.01e-06       7992.078002
         6.02e-06       8000.938555
         6.03e-06       7988.116332
         6.04e-06       7981.921428
         6.05e-06       7981.878671
         6.06e-06       7972.394649
         6.07e-06       7970.766842
         6.08e-06       7970.436754
         6.09e-06       7965.154581
          6.1e-06       7951.876994
         6.11e-06       7954.812062
         6.12e-06       7959.421957
         6.13e-06       7962.652121
         6.14e-06       7963.776479
         6.15e-06        7964.58882
         6.16e-06       7963.771191
         6.17e-06       7954.501625
         6.18e-06       7961.963693
         6.19e-06       7951.554757
          6.2e-06        7955.19455
         6.21e-06       7955.499962
         6.22e-06       7945.811006
         6.23e-06       7946.428777
         6.24e-06       7949.096638
         6.25e-06       7954.108825
         6.26e-06       7949.382556
         6.27e-06       7949.354956
         6.28e-06       7950.132739
         6.29e-06       7962.562735
          6.3e-06       7966.611818
         6.31e-06       7970.280348
         6.32e-06       7962.582575
         6.33e-06       7953.372172
         6.34e-06       7951.857653
         6.35e-06       7958.379036
         6.36e-06       7952.347534
         6.37e-06       7955.887434
         6.38e-06       7953.168682
         6.39e-06       7960.256426
          6.4e-06       7968.909065
         6.41e-06       7955.064608
         6.42e-06       7947.668286
         6.43e-06       7937.146904
         6.44e-06       7947.022768
         6.45e-06       7945.914074
         6.46e-06       7943.494508
         6.47e-06       7937.851052
         6.48e-06        7939.00866
         6.49e-06       7938.685456
          6.5e-06       7934.086621
         6.51e-06       7931.852072
         6.52e-06       7926.640997
         6.53e-06        7922.64269
         6.54e-06       7916.251044
         6.55e-06       7916.774186
         6.56e-06       7915.278922
         6.57e-06       7917.160366
         6.58e-06        7911.13092
         6.59e-06        7908.94185
          6.6e-06       7921.972997
         6.61e-06       7924.049518
         6.62e-06       7919.282047
         6.63e-06       7921.432659
         6.64e-06       7926.251878
         6.65e-06        7926.69596
         6.66e-06        7937.68073
         6.67e-06        7919.13065
         6.68e-06       7917.394529
         6.69e-06         7907.0155
          6.7e-06       7912.558665
         6.71e-06       7909.340258
         6.72e-06        7916.50791
         6.73e-06       7905.081072
         6.74e-06       7906.828424
         6.75e-06       7907.687466
         6.76e-06       7912.826938
         6.77e-06       7910.779399
         6.78e-06       7891.035689
         6.79e-06       7886.346913
          6.8e-06        7886.55156
         6.81e-06       7887.005933
         6.82e-06       7893.712097
         6.83e-06       7890.911337
         6.84e-06       7879.990647
         6.85e-06       7882.136966
         6.86e-06       7881.453076
         6.87e-06       7881.525701
         6.88e-06       7875.330455
         6.89e-06       7879.166125
          6.9e-06       7878.986674
         6.91e-06       7873.445694
         6.92e-06       7876.636477
         6.93e-06       7879.680404
         6.94e-06       7882.457368
         6.95e-06       7880.677312
         6.96e-06       7874.357619
         6.97e-06       7873.427519
         6.98e-06       7883.246563
         6.99e-06        7881.92775
            7e-06         7882.0725
         7.01e-06       7885.071356
         7.02e-06       7883.466716
         7.03e-06       7888.158241
         7.04e-06       7880.196895
         7.05e-06       7878.168545
         7.06e-06       7884.459957
         7.07e-06       7873.138234
         7.08e-06       7874.416372
         7.09e-06       7879.702402
          7.1e-06       7882.049562
         7.11e-06       7877.664729
         7.12e-06       7886.122219
         7.13e-06       7869.023732
         7.14e-06       7871.814954
         7.15e-06       7880.325117
         7.16e-06       7879.676505
         7.17e-06       7891.393923
         7.18e-06        7877.01429
         7.19e-06        7878.80188
          7.2e-06       7866.653695
         7.21e-06       7867.960908
         7.22e-06       7861.675739
         7.23e-06       7858.414363
         7.24e-06       7861.936155
         7.25e-06       7855.583247
         7.26e-06       7861.541155
         7.27e-06       7861.450694
         7.28e-06       7862.776676
         7.29e-06       7865.555503
          7.3e-06       7857.933326
         7.31e-06       7868.627894
         7.32e-06       7861.589028
         7.33e-06       7864.087826
         7.34e-06        7863.74517
         7.35e-06       7869.207755
         7.36e-06       7870.594273
         7.37e-06       7859.694556
         7.38e-06       7860.199713
         7.39e-06       7864.453498
          7.4e-06       7858.632507
         7.41e-06       7859.798445
         7.42e-06        7848.52219
         7.43e-06       7842.091317
         7.44e-06       7830.952972
         7.45e-06       7848.540492
         7.46e-06       7844.191492
         7.47e-06       7837.577865
         7.48e-06       7836.125733
         7.49e-06       7818.671071
          7.5e-06       7829.356441
         7.51e-06       7822.072218
         7.52e-06       7818.846813
         7.53e-06       7820.306754
         7.54e-06       7815.250692
         7.55e-06       7818.971153
         7.56e-06       7821.996378
         7.57e-06       7816.528691
         7.58e-06       7819.741689
         7.59e-06       7818.335895
          7.6e-06       7824.568129
         7.61e-06       7825.250503
         7.62e-06       7821.773761
         7.63e-06       7816.828827
         7.64e-06       7817.420058
         7.65e-06       7836.044977
         7.66e-06       7831.278789
         7.67e-06       7823.129461
         7.68e-06       7828.309086
         7.69e-06       7835.995228
          7.7e-06        7833.45652
         7.71e-06       7824.243118
         7.72e-06       7818.471153
         7.73e-06       7811.606243
         7.74e-06       7810.945763
         7.75e-06       7808.231664
         7.76e-06       7806.238679
         7.77e-06       7799.361877
         7.78e-06       7796.609278
         7.79e-06        7799.71109
          7.8e-06       7810.221047
         7.81e-06       7817.200032
         7.82e-06       7811.242581
         7.83e-06       7804.453039
         7.84e-06       7807.296726
         7.85e-06       7796.398425
         7.86e-06       7797.022975
         7.87e-06       7780.016822
         7.88e-06       7775.497128
         7.89e-06       7770.726972
          7.9e-06       7772.258592
         7.91e-06       7778.558379
         7.92e-06       7779.160087
         7.93e-06       7782.880718
         7.94e-06       7780.689414
         7.95e-06       7780.416639
         7.96e-06       7777.369707
         7.97e-06       7775.550094
         7.98e-06       7777.640328
         7.99e-06       7784.047509
            8e-06       7775.545002
         8.01e-06       7784.057684
         8.02e-06       7793.698206
         8.03e-06       7787.828306
         8.04e-06       7786.353779
         8.05e-06       7770.297667
         8.06e-06       7778.439851
         8.07e-06       7782.899209
         8.08e-06       7783.961155
         8.09e-06       7776.331088
          8.1e-06       7772.345119
         8.11e-06       7777.064335
         8.12e-06       7770.775411
         8.13e-06       7765.536158
         8.14e-06       7764.185204
         8.15e-06       7753.064667
         8.16e-06       7755.133362
         8.17e-06       7759.397932
         8.18e-06       7756.726662
         8.19e-06       7755.912982
          8.2e-06       7744.581027
         8.21e-06       7745.307948
         8.22e-06       7745.623774
         8.23e-06       7738.192496
         8.24e-06       7734.969698
         8.25e-06       7733.264164
         8.26e-06       7730.858056
         8.27e-06       7725.796939
         8.28e-06       7729.713513
         8.29e-06       7739.813995
          8.3e-06       7736.441469
         8.31e-06       7737.185319