# Probe 0 (5e-06 5e-06 5e-06)
#           Probe                 0
#            Time
            1e-08       497.6320108
            2e-08       568.7252107
            3e-08       629.1813772
            4e-08       676.1447563
            5e-08       713.4578444
            6e-08       756.2316635
            7e-08       788.1786695
            8e-08       825.6042245
            9e-08       854.3301735
            1e-07       885.0654315
          1.1e-07       914.2371582
          1.2e-07       947.0490918
          1.3e-07       975.3792916
          1.4e-07       1002.270539
          1.5e-07       1026.783077
          1.6e-07       1049.689453
          1.7e-07        1076.16798
          1.8e-07       1101.860113
          1.9e-07        1123.48382
            2e-07       1149.781342
          2.1e-07       1173.804866
          2.2e-07        1192.87957
          2.3e-07        1218.37704
          2.4e-07       1236.151431
          2.5e-07       1257.955397
          2.6e-07       1273.374619
          2.7e-07       1297.456899
          2.8e-07       1315.112979
          2.9e-07       1335.620205
            3e-07       1353.694721
          3.1e-07       1369.102391
          3.2e-07       1388.606954
          3.3e-07       1404.907332
          3.4e-07       1424.343454
          3.5e-07       1440.725513
          3.6e-07       1461.834213
          3.7e-07       1479.172336
          3.8e-07       1499.286748
          3.9e-07       1521.518675
            4e-07       1539.791844
          4.1e-07       1554.318948
          4.2e-07       1571.284967
          4.3e-07       1590.000004
          4.4e-07       1607.609812
          4.5e-07       1627.958657
          4.6e-07       1640.145811
          4.7e-07       1656.588921
          4.8e-07       1673.454664
          4.9e-07       1685.646482
            5e-07       1699.299213
          5.1e-07       1714.767527
          5.2e-07       1728.873564
          5.3e-07       1741.109379
          5.4e-07       1758.024736
          5.5e-07       1774.510213
          5.6e-07       1791.752421
          5.7e-07       1807.131339
          5.8e-07       1821.197469
          5.9e-07       1834.700026
            6e-07       1849.172788
          6.1e-07       1861.734413
          6.2e-07       1875.038344
          6.3e-07       1885.680702
          6.4e-07       1900.389355
          6.5e-07       1912.542276
          6.6e-07       1926.067134
          6.7e-07       1941.310865
          6.8e-07        1949.17476
          6.9e-07       1965.259111
            7e-07       1979.381913
          7.1e-07       1995.739683
          7.2e-07       2008.540407
          7.3e-07       2026.573241
          7.4e-07       2040.382229
          7.5e-07       2052.677225
          7.6e-07        2067.12336
          7.7e-07       2080.804141
          7.8e-07       2093.623497
          7.9e-07       2107.767119
            8e-07       2124.344637
          8.1e-07       2137.584511
          8.2e-07       2150.117672
          8.3e-07       2163.402783
          8.4e-07       2178.152491
          8.5e-07       2187.097336
          8.6e-07       2201.523816
          8.7e-07        2214.87719
          8.8e-07       2228.855286
          8.9e-07       2241.150706
            9e-07       2252.503581
          9.1e-07       2265.242909
          9.2e-07        2280.75936
          9.3e-07       2293.106553
          9.4e-07        2302.17073
          9.5e-07       2311.131651
          9.6e-07       2322.575181
          9.7e-07       2329.378592
          9.8e-07       2342.732691
          9.9e-07       2353.227497
            1e-06        2362.18267
         1.01e-06        2367.75275
         1.02e-06       2377.574689
         1.03e-06        2390.23226
         1.04e-06       2398.802731
         1.05e-06        2406.98059
         1.06e-06        2419.95503
         1.07e-06       2427.274526
         1.08e-06       2438.877514
         1.09e-06       2451.392288
          1.1e-06       2457.247205
         1.11e-06       2468.782038
         1.12e-06       2481.010071
         1.13e-06       2492.046926
         1.14e-06       2502.112008
         1.15e-06       2514.486817
         1.16e-06       2526.660774
         1.17e-06       2539.886716
         1.18e-06       2545.136061
         1.19e-06       2555.799007
          1.2e-06        2563.61808
         1.21e-06       2578.261665
         1.22e-06       2584.342034
         1.23e-06       2593.423201
         1.24e-06        2603.46073
         1.25e-06       2615.005179
         1.26e-06       2623.305638
         1.27e-06       2639.729227
         1.28e-06       2651.757389
         1.29e-06       2663.132631
          1.3e-06       2670.816645
         1.31e-06       2677.086406
         1.32e-06       2686.846588
         1.33e-06       2698.156554
         1.34e-06       2708.146861
         1.35e-06       2717.607476
         1.36e-06       2728.091013
         1.37e-06       2737.042602
         1.38e-06       2748.615136
         1.39e-06       2757.988497
          1.4e-06       2768.717043
         1.41e-06       2778.178226
         1.42e-06       2788.993527
         1.43e-06       2800.137605
         1.44e-06       2809.135125
         1.45e-06       2819.842466
         1.46e-06       2831.187564
         1.47e-06       2839.770519
         1.48e-06       2847.685367
         1.49e-06       2853.340828
          1.5e-06       2864.529539
         1.51e-06       2874.407994
         1.52e-06       2890.453143
         1.53e-06       2895.862795
         1.54e-06       2902.955499
         1.55e-06       2909.121663
         1.56e-06       2920.312316
         1.57e-06       2926.427452
         1.58e-06       2932.849367
         1.59e-06       2942.894186
          1.6e-06       2954.309026
         1.61e-06       2960.819737
         1.62e-06       2967.660425
         1.63e-06       2976.865759
         1.64e-06       2984.105076
         1.65e-06       2989.781812
         1.66e-06       2994.488004
         1.67e-06       3000.470252
         1.68e-06       3008.224238
         1.69e-06        3013.61311
          1.7e-06       3020.466089
         1.71e-06       3029.278334
         1.72e-06       3039.056469
         1.73e-06       3048.170702
         1.74e-06       3056.007914
         1.75e-06       3062.781395
         1.76e-06       3068.869302
         1.77e-06       3074.696637
         1.78e-06         3085.6173
         1.79e-06       3094.506981
          1.8e-06       3101.626539
         1.81e-06       3110.111565
         1.82e-06       3119.725496
         1.83e-06       3131.692209
         1.84e-06       3140.641121
         1.85e-06       3148.104734
         1.86e-06       3154.978406
         1.87e-06       3163.615782
         1.88e-06       3170.463082
         1.89e-06       3175.309563
          1.9e-06       3189.586637
         1.91e-06       3200.590721
         1.92e-06       3206.820287
         1.93e-06       3216.456534
         1.94e-06        3226.84225
         1.95e-06        3237.81246
         1.96e-06       3244.247552
         1.97e-06       3254.461755
         1.98e-06       3263.452841
         1.99e-06       3267.771622
            2e-06       3272.793985
         2.01e-06        3278.84818
         2.02e-06       3286.543722
         2.03e-06       3294.261317
         2.04e-06       3303.431468
         2.05e-06       3308.801309
         2.06e-06       3315.694359
         2.07e-06       3321.672136
         2.08e-06       3327.649093
         2.09e-06       3334.281387
          2.1e-06       3342.857362
         2.11e-06       3349.370246
         2.12e-06       3357.638834
         2.13e-06       3365.531223
         2.14e-06       3372.228135
         2.15e-06       3382.271659
         2.16e-06       3392.804466
         2.17e-06       3400.456805
         2.18e-06       3410.213473
         2.19e-06       3417.488713
          2.2e-06       3424.435407
         2.21e-06       3435.005541
         2.22e-06       3441.715902
         2.23e-06       3447.770795
         2.24e-06       3457.587941
         2.25e-06       3466.234751
         2.26e-06       3473.501576
         2.27e-06       3479.879618
         2.28e-06        3489.50355
         2.29e-06       3495.155586
          2.3e-06       3500.106437
         2.31e-06       3503.258851
         2.32e-06       3502.721787
         2.33e-06       3511.594298
         2.34e-06       3515.703152
         2.35e-06       3519.274788
         2.36e-06       3526.137239
         2.37e-06       3532.298669
         2.38e-06       3539.602757
         2.39e-06       3543.149425
          2.4e-06        3546.60253
         2.41e-06       3547.279125
         2.42e-06       3550.848607
         2.43e-06       3554.557815
         2.44e-06       3558.266764
         2.45e-06       3562.675181
         2.46e-06       3568.226005
         2.47e-06        3574.84893
         2.48e-06       3581.261203
         2.49e-06       3584.548658
          2.5e-06        3590.47024
         2.51e-06       3597.463413
         2.52e-06       3603.313688
         2.53e-06       3609.140042
         2.54e-06       3618.088137
         2.55e-06       3622.258767
         2.56e-06       3630.482626
         2.57e-06       3637.540682
         2.58e-06       3643.060731
         2.59e-06       3649.954225
          2.6e-06       3657.429008
         2.61e-06       3660.898284
         2.62e-06       3666.904998
         2.63e-06       3673.399937
         2.64e-06       3680.871721
         2.65e-06       3684.711991
         2.66e-06       3686.643669
         2.67e-06       3692.531408
         2.68e-06       3702.071573
         2.69e-06       3707.352915
          2.7e-06       3711.470646
         2.71e-06       3715.471789
         2.72e-06       3717.449001
         2.73e-06       3722.473157
         2.74e-06       3727.194557
         2.75e-06       3729.892337
         2.76e-06       3737.217609
         2.77e-06       3744.146751
         2.78e-06       3749.494218
         2.79e-06       3752.539745
          2.8e-06       3755.701357
         2.81e-06       3760.768904
         2.82e-06       3766.649537
         2.83e-06       3772.924709
         2.84e-06       3779.710497
         2.85e-06       3786.542036
         2.86e-06       3788.935226
         2.87e-06       3796.230425
         2.88e-06       3803.408657
         2.89e-06       3804.175218
          2.9e-06        3810.65578
         2.91e-06       3817.275049
         2.92e-06       3822.151979
         2.93e-06       3827.051771
         2.94e-06       3833.971242
         2.95e-06       3836.478792
         2.96e-06       3844.766972
         2.97e-06       3845.161622
         2.98e-06       3848.899073
         2.99e-06       3857.394622
            3e-06       3862.570352
         3.01e-06       3865.285713
         3.02e-06       3872.618969
         3.03e-06       3878.327229
         3.04e-06       3881.459611
         3.05e-06       3885.914309
         3.06e-06       3891.923061
         3.07e-06       3898.488017
         3.08e-06        3901.48032
         3.09e-06        3906.30485
          3.1e-06       3910.479659
         3.11e-06       3913.796137
         3.12e-06       3917.854553
         3.13e-06       3923.535949
         3.14e-06       3926.156195
         3.15e-06       3930.561704
         3.16e-06       3934.062732
         3.17e-06       3936.497121
         3.18e-06       3938.328655
         3.19e-06       3940.623804
          3.2e-06       3947.485633
         3.21e-06       3948.853285
         3.22e-06       3956.595104
         3.23e-06       3964.081177
         3.24e-06       3967.441551
         3.25e-06       3969.758961
         3.26e-06        3973.14225
         3.27e-06       3975.181419
         3.28e-06        3979.05105
         3.29e-06       3981.136398
          3.3e-06       3985.608113
         3.31e-06       3990.635578
         3.32e-06       3993.508264
         3.33e-06       3998.790015
         3.34e-06        4003.16803
         3.35e-06       4007.777413
         3.36e-06       4011.575892
         3.37e-06       4014.702546
         3.38e-06       4017.597483
         3.39e-06       4021.835474
          3.4e-06       4026.698456
         3.41e-06       4037.558012
         3.42e-06       4042.466313
         3.43e-06       4045.938981
         3.44e-06       4051.633825
         3.45e-06       4052.652371
         3.46e-06       4059.110576
         3.47e-06       4064.156405
         3.48e-06       4065.776558
         3.49e-06       4068.160437
          3.5e-06       4071.817122
         3.51e-06       4072.997409
         3.52e-06       4079.014287
         3.53e-06        4083.54979
         3.54e-06       4089.033705
         3.55e-06       4093.869424
         3.56e-06       4097.455537
         3.57e-06       4105.298163
         3.58e-06       4107.426416
         3.59e-06       4113.880237
          3.6e-06       4118.529451
         3.61e-06       4124.889892
         3.62e-06       4129.977895
         3.63e-06       4135.227464
         3.64e-06       4136.522461
         3.65e-06       4141.262906
         3.66e-06       4144.453884
         3.67e-06       4144.870089
         3.68e-06        4149.93376
         3.69e-06       4154.627211
          3.7e-06       4161.863405
         3.71e-06       4165.631531
         3.72e-06       4169.075869
         3.73e-06       4174.692849
         3.74e-06       4183.475871
         3.75e-06       4189.854561
         3.76e-06       4194.707599
         3.77e-06       4198.312538
         3.78e-06       4200.161168
         3.79e-06       4205.799247
          3.8e-06       4213.077382
         3.81e-06       4220.054587
         3.82e-06       4221.140395
         3.83e-06       4226.985045
         3.84e-06       4228.625175
         3.85e-06       4232.621421
         3.86e-06       4236.963962
         3.87e-06       4240.059049
         3.88e-06       4241.883715
         3.89e-06       4242.599713
          3.9e-06         4246.8032
         3.91e-06       4251.329814
         3.92e-06       4252.438339
         3.93e-06       4254.078006
         3.94e-06       4257.957665
         3.95e-06       4265.439401
         3.96e-06       4266.478483
         3.97e-06        4268.27953
         3.98e-06       4274.144234
         3.99e-06       4279.339036
            4e-06       4280.008567
         4.01e-06       4286.934467
         4.02e-06       4292.336312
         4.03e-06       4295.960453
         4.04e-06       4296.122035
         4.05e-06       4299.399794
         4.06e-06       4300.346168
         4.07e-06       4303.092906
         4.08e-06       4310.709495
         4.09e-06       4312.163501
          4.1e-06       4317.794681
         4.11e-06       4321.879386
         4.12e-06       4325.110102
         4.13e-06       4325.871612
         4.14e-06       4333.301788
         4.15e-06       4334.893894
         4.16e-06       4337.547346
         4.17e-06       4338.793289
         4.18e-06       4344.999694
         4.19e-06       4349.452372
          4.2e-06        4353.81257
         4.21e-06        4357.94189
         4.22e-06        4360.82539
         4.23e-06       4362.532382
         4.24e-06       4368.829543
         4.25e-06       4371.113029
         4.26e-06       4371.804985
         4.27e-06       4373.211945
         4.28e-06        4376.55628
         4.29e-06       4378.770398
          4.3e-06       4382.806423
         4.31e-06       4389.402091
         4.32e-06       4390.970228
         4.33e-06       4395.144119
         4.34e-06       4398.833603
         4.35e-06       4400.147949
         4.36e-06       4408.379516
         4.37e-06       4416.840962
         4.38e-06       4421.198218
         4.39e-06       4419.515279
          4.4e-06        4423.43441
         4.41e-06       4427.422548
         4.42e-06       4429.036201
         4.43e-06       4430.926449
         4.44e-06       4435.513612
         4.45e-06       4436.159026
         4.46e-06       4439.501283
         4.47e-06        4440.67681
         4.48e-06       4443.834531
         4.49e-06        4449.41217
          4.5e-06       4455.980494
         4.51e-06       4458.676845
         4.52e-06       4461.004408
         4.53e-06         4465.1985
         4.54e-06       4469.300254
         4.55e-06       4470.821088
         4.56e-06       4473.540101
         4.57e-06       4472.480155
         4.58e-06       4476.282086
         4.59e-06       4477.434159
          4.6e-06       4482.687456
         4.61e-06       4489.046363
         4.62e-06       4491.327183
         4.63e-06       4494.575541
         4.64e-06       4497.547356
         4.65e-06       4501.094997
         4.66e-06       4500.380871
         4.67e-06       4502.661451
         4.68e-06       4505.932502
         4.69e-06       4508.834901
          4.7e-06       4514.823734
         4.71e-06       4517.011879
         4.72e-06        4518.73933
         4.73e-06        4517.93319
         4.74e-06       4520.697076
         4.75e-06       4524.105774
         4.76e-06       4526.201609
         4.77e-06       4529.425893
         4.78e-06       4532.534935
         4.79e-06       4531.982223
          4.8e-06       4534.239114
         4.81e-06        4537.50922
         4.82e-06       4541.078592
         4.83e-06        4545.77617
         4.84e-06        4545.40774
         4.85e-06       4548.999884
         4.86e-06       4552.660989
         4.87e-06       4558.233006
         4.88e-06       4561.686596
         4.89e-06       4564.034977
          4.9e-06       4566.406331
         4.91e-06       4567.258165
         4.92e-06       4570.181977
         4.93e-06       4573.289884
         4.94e-06       4572.806437
         4.95e-06       4579.137122
         4.96e-06       4581.093807
         4.97e-06       4583.073478
         4.98e-06       4583.142536
         4.99e-06       4584.477642
            5e-06       4589.104357
         5.01e-06       4593.707868
         5.02e-06       4596.331786
         5.03e-06        4600.10644
         5.04e-06       4604.157152
         5.05e-06       4608.115664
         5.06e-06       4614.720555
         5.07e-06       4618.954853
         5.08e-06       4619.346057
         5.09e-06       4619.000877
          5.1e-06       4623.948364
         5.11e-06          4625.283
         5.12e-06       4629.010694
         5.13e-06       4632.439147
         5.14e-06       4632.070996
         5.15e-06       4636.143605
         5.16e-06       4638.536485
         5.17e-06       4640.239082
         5.18e-06       4645.139662
         5.19e-06       4646.566084
          5.2e-06        4646.17497
         5.21e-06       4650.523165
         5.22e-06       4654.158042
         5.23e-06       4654.066022
         5.24e-06       4655.515342
         5.25e-06       4658.712985
         5.26e-06       4665.246035
         5.27e-06       4667.822352
         5.28e-06       4671.433702
         5.29e-06       4670.191594
          5.3e-06        4673.59586
         5.31e-06       4679.139089
         5.32e-06       4683.049098
         5.33e-06       4685.993022
         5.34e-06        4687.41896
         5.35e-06       4690.753748
         5.36e-06       4691.029727
         5.37e-06       4690.546764
         5.38e-06         4693.5595
         5.39e-06       4696.641153
          5.4e-06       4698.733873
         5.41e-06       4704.459925
         5.42e-06       4709.288919
         5.43e-06       4712.209219
         5.44e-06        4717.31383
         5.45e-06        4716.96893
         5.46e-06       4723.567842
         5.47e-06       4725.729082
         5.48e-06       4729.591631
         5.49e-06       4734.281708
          5.5e-06       4734.902441
         5.51e-06       4736.488743
         5.52e-06        4740.81074
         5.53e-06       4741.063618
         5.54e-06       4746.649799
         5.55e-06       4749.982999
         5.56e-06       4749.178442
         5.57e-06       4752.879364
         5.58e-06       4754.672319
         5.59e-06       4756.419276
          5.6e-06       4755.844622
         5.61e-06       4757.131844
         5.62e-06       4756.833026
         5.63e-06       4758.442039
         5.64e-06       4760.234915
         5.65e-06        4764.48715
         5.66e-06       4768.854162
         5.67e-06       4771.819049
         5.68e-06       4772.416615
         5.69e-06       4774.117364
          5.7e-06       4777.334936
         5.71e-06        4782.89655
         5.72e-06       4786.688423
         5.73e-06       4787.148036
         5.74e-06       4786.780346
         5.75e-06       4787.883414
         5.76e-06       4788.549847
         5.77e-06       4792.617311
         5.78e-06        4794.80036
         5.79e-06       4795.995277
          5.8e-06       4799.993573
         5.81e-06       4803.601127
         5.82e-06        4804.35939
         5.83e-06       4810.678077
         5.84e-06       4815.893638
         5.85e-06       4820.557599
         5.86e-06       4822.855057
         5.87e-06        4826.37009
         5.88e-06       4827.472827
         5.89e-06       4830.183681
          5.9e-06       4831.148549
         5.91e-06       4832.848536
         5.92e-06       4834.939031
         5.93e-06       4837.144353
         5.94e-06       4842.634528
         5.95e-06       4849.295946
         5.96e-06       4848.951398
         5.97e-06       4849.479705
         5.98e-06       4854.808595
         5.99e-06       4856.324534
            6e-06       4856.071878
         6.01e-06       4859.792755
         6.02e-06       4858.690283
         6.03e-06       4861.239735
         6.04e-06       4865.098272
         6.05e-06       4867.096401
         6.06e-06        4872.30977
         6.07e-06       4877.959277
         6.08e-06        4878.80898
         6.09e-06       4879.291241
          6.1e-06         4879.3831
         6.11e-06       4880.738014
         6.12e-06        4886.04272
         6.13e-06       4885.261954
         6.14e-06       4888.591662
         6.15e-06       4890.245005
         6.16e-06       4891.232408
         6.17e-06       4891.530924
         6.18e-06       4893.023495
         6.19e-06       4897.822573
          6.2e-06       4899.935033
         6.21e-06       4899.292114
         6.22e-06       4901.726007
         6.23e-06       4903.425115
         6.24e-06        4903.88433
         6.25e-06       4907.236552
         6.26e-06       4912.012181
         6.27e-06       4913.527491
         6.28e-06       4916.489186
         6.29e-06       4921.103796
          6.3e-06       4923.537311
         6.31e-06       4927.348202
         6.32e-06       4929.552044
         6.33e-06       4932.329755
         6.34e-06       4936.576562
         6.35e-06       4937.265222
         6.36e-06       4938.757306
         6.37e-06       4938.527756
         6.38e-06       4939.973917
         6.39e-06       4938.986856
          6.4e-06       4943.990955
         6.41e-06       4947.824252
         6.42e-06       4952.254222
         6.43e-06       4951.680399
         6.44e-06       4952.208316
         6.45e-06       4954.664252
         6.46e-06       4955.054443
         6.47e-06        4957.85461
         6.48e-06        4960.03503
         6.49e-06       4963.569536
          6.5e-06       4966.897401
         6.51e-06       4969.376037
         6.52e-06       4971.671033
         6.53e-06       4976.352711
         6.54e-06       4976.857589
         6.55e-06       4977.087078
         6.56e-06       4976.765793
         6.57e-06       4976.283864
         6.58e-06        4978.23452
         6.59e-06       4979.037724
          6.6e-06       4979.588489
         6.61e-06       4984.476444
         6.62e-06       4983.742114
         6.63e-06       4987.436675
         6.64e-06       4986.817097
         6.65e-06       4986.748255
         6.66e-06       4987.826779
         6.67e-06       4990.259165
         6.68e-06       4991.888383
         6.69e-06       4994.733734
          6.7e-06       5001.273245
         6.71e-06        5004.09547
         6.72e-06       5005.563924
         6.73e-06       5006.504645
         6.74e-06       5007.330638
         6.75e-06        5010.22158
         6.76e-06       5010.955778
         6.77e-06       5016.691579
         6.78e-06        5022.67952
         6.79e-06       5022.817171
          6.8e-06        5029.12604
         6.81e-06       5031.190703
         6.82e-06       5032.131263
         6.83e-06       5033.347099
         6.84e-06       5037.017489
         6.85e-06       5037.155127
         6.86e-06       5035.893442
         6.87e-06       5035.044666
         6.88e-06       5036.214599
         6.89e-06       5039.288498
          6.9e-06       5041.788863
         6.91e-06        5043.73866
         6.92e-06       5046.674778
         6.93e-06        5047.38586
         6.94e-06       5045.894877
         6.95e-06        5050.00078
         6.96e-06       5050.895348
         6.97e-06       5052.684467
         6.98e-06        5054.58825
         6.99e-06       5058.235191
            7e-06       5061.767365
         7.01e-06       5065.230652
         7.02e-06       5067.180149
         7.03e-06       5069.473645
         7.04e-06       5071.721237
         7.05e-06        5075.48244
         7.06e-06       5079.151819
         7.07e-06       5083.325632
         7.08e-06        5084.08241
         7.09e-06       5084.747454
          7.1e-06       5086.421519
         7.11e-06       5088.668865
         7.12e-06       5084.586926
         7.13e-06        5086.32979
         7.14e-06       5085.939941
         7.15e-06       5085.504225
         7.16e-06       5086.513248
         7.17e-06       5088.416614
         7.18e-06       5091.741715
         7.19e-06       5091.558263
          7.2e-06        5095.91519
         7.21e-06       5096.006914
         7.22e-06       5100.501299
         7.23e-06       5102.886022
         7.24e-06        5106.07324
         7.25e-06       5107.678289
         7.26e-06       5106.990413
         7.27e-06       5109.466753
         7.28e-06       5112.080626
         7.29e-06       5115.565723
          7.3e-06       5119.096598
         7.31e-06       5121.114205
         7.32e-06       5126.800052
         7.33e-06       5132.921282
         7.34e-06       5136.566397
         7.35e-06       5135.832795
         7.36e-06       5135.167966
         7.37e-06       5141.128405
         7.38e-06       5141.816134
         7.39e-06       5141.976604
          7.4e-06       5143.512519
         7.41e-06       5145.300581
         7.42e-06       5148.509874
         7.43e-06       5150.320804
         7.44e-06       5152.658936
         7.45e-06       5154.080137
         7.46e-06       5158.160291
         7.47e-06       5159.100087
         7.48e-06       5160.085721
         7.49e-06       5161.919443
          7.5e-06       5163.523932
         7.51e-06       5165.265932
         7.52e-06       5168.085181
         7.53e-06       5169.368725
         7.54e-06       5172.073303
         7.55e-06       5173.677693
         7.56e-06       5175.488343
         7.57e-06       5178.788716
         7.58e-06       5182.341127
         7.59e-06       5184.518373
          7.6e-06        5186.69559
         7.61e-06       5187.910236
         7.62e-06       5187.314373
         7.63e-06       5190.018656
         7.64e-06       5191.439533
         7.65e-06       5194.945838
         7.66e-06       5198.062491
         7.67e-06       5198.795813
         7.68e-06       5202.347794
         7.69e-06       5205.739292
          7.7e-06       5206.885053
         7.71e-06       5208.924488
         7.72e-06         5210.1848
         7.73e-06       5210.895154
         7.74e-06       5211.788821
         7.75e-06       5210.001483
         7.76e-06       5209.543188
         7.77e-06       5211.720077
         7.78e-06       5215.615493
         7.79e-06       5219.212944
          7.8e-06       5220.427352
         7.81e-06       5225.536938
         7.82e-06       5228.538461
         7.83e-06       5228.836319
         7.84e-06       5230.738016
         7.85e-06       5234.243499
         7.86e-06       5233.579066
         7.87e-06       5238.230038
         7.88e-06        5240.13163
         7.89e-06       5239.100649
          7.9e-06       5238.482057
         7.91e-06       5238.459146
         7.92e-06       5239.948345
         7.93e-06       5242.972523
         7.94e-06       5241.895738
         7.95e-06       5240.337825
         7.96e-06       5241.116784
         7.97e-06       5244.576232
         7.98e-06       5242.995433
         7.99e-06       5244.965702
            8e-06        5248.05852
         8.01e-06       5251.517827
         8.02e-06       5253.144365
         8.03e-06        5256.46612
         8.04e-06       5260.727035
         8.05e-06       5261.139376
         8.06e-06       5262.445116
         8.07e-06       5264.987844
         8.08e-06       5268.469718
         8.09e-06       5272.730337
          8.1e-06        5274.15052
         8.11e-06       5274.585735
         8.12e-06       5280.220526
         8.13e-06       5281.251261
         8.14e-06       5279.670798
         8.15e-06       5280.449579
         8.16e-06       5281.778078
         8.17e-06       5281.640648
         8.18e-06       5283.129473
         8.19e-06       5283.839523
          8.2e-06       5284.068571
         8.21e-06        5289.22207
         8.22e-06       5290.161135
         8.23e-06       5290.756638
         8.24e-06       5294.077672
         8.25e-06       5291.466657
         8.26e-06       5292.199578
         8.27e-06        5290.71083
         8.28e-06       5292.817977
         8.29e-06       5296.161875
          8.3e-06       5298.314762
         8.31e-06       5300.925675