/*--------------------------------*- C++ -*----------------------------------*\
| =========                 |                                                 |
| \\      /  F ield         | OpenFOAM: The Open Source CFD Toolbox           |
|  \\    /   O peration     | Version:  v1706                                 |
|   \\  /    A nd           | Web:      www.OpenFOAM.com                      |
|    \\/     M anipulation  |                                                 |
\*---------------------------------------------------------------------------*/
FoamFile
{
    version     2.0;
    format      ascii;
    class       vectorField;
    location    "0.00026/lagrangian/dsmc";
    object      U;
}
// * * * * * * * * * * * * * * * * * * * * * * * * * * * * * * * * * * * * * //


100000
(
(1441.405213 690.0805138 -726.1107237)
(-671.584086 -1247.666523 -1186.731095)
(1359.44532 12.76088296 297.1555248)
(706.9234651 162.0864651 -1450.295253)
(-3002.032298 52.23455507 -691.8779659)
(1677.348067 671.1707886 1264.793473)
(-1026.350048 857.6746381 57.77971335)
(-503.0229705 344.9096215 -1638.490114)
(-208.601856 -1205.683848 -903.4263232)
(112.6527064 267.1665437 -2066.578551)
(1860.913194 -822.4593602 -908.7684117)
(-1164.838788 1699.714971 -382.5078723)
(-366.7398625 -537.9726436 -445.6925712)
(1034.567022 557.5468455 1651.422075)
(-1342.519577 905.2487604 205.8023398)
(-2380.689904 -1118.412603 1332.350426)
(-357.7389783 1479.605097 -246.0470621)
(-925.5231213 70.42449 258.4210329)
(425.9111638 115.6107656 -575.6901767)
(-1638.894153 444.9766845 732.0171668)
(346.4697218 344.2233691 283.7365361)
(207.3798491 1717.010188 1054.018173)
(1673.530737 -732.031038 -2418.381707)
(-1726.529113 -580.8925642 1889.633851)
(-1466.33421 -819.548729 -598.9317798)
(1284.859782 87.41975693 -1541.705454)
(272.0267656 -2024.461904 -167.964695)
(662.9446315 -1424.469162 -408.794775)
(-1179.991326 -311.4157575 -851.4102308)
(-1807.749826 1073.176368 2116.454808)
(-52.35653374 -1151.418285 678.6157598)
(-836.8950082 162.1702172 -423.8343813)
(-321.3447465 539.7451999 1315.44541)
(-429.6631431 2273.403501 -1437.681014)
(570.5926455 -2103.404868 -303.8290334)
(1081.232799 -891.3135138 89.25419035)
(-1210.780036 511.6014606 -32.16806026)
(746.9012668 1293.439065 2433.185283)
(-845.6235546 202.3365811 -1751.429587)
(1946.904698 -777.2612832 1665.875897)
(573.2738442 -524.3637587 -1234.074938)
(1273.006013 384.1617672 -824.3504367)
(-1693.668127 -1298.191917 1052.629489)
(-596.7994394 211.0033245 -374.2874103)
(-553.8291438 544.7549003 -789.1804634)
(-149.5792724 -974.013335 -469.4838235)
(180.0596042 -723.8158128 -284.5662645)
(602.208282 484.274576 -367.3088549)
(-1732.562254 -756.0619043 -1027.663999)
(901.8403039 157.9356438 -776.6759394)
(2037.447074 -1093.579104 735.5209658)
(-648.8887787 883.9961179 -937.9439344)
(-325.3926975 215.8800795 371.1009162)
(339.2490257 1529.047673 -32.06080951)
(-1136.024478 -162.5366722 1563.50856)
(177.5002242 514.182408 590.9438096)
(232.1354483 -667.0550263 -793.1262672)
(-790.9319903 259.267233 123.0120801)
(-176.7997987 2044.754734 -1252.643611)
(90.74968437 -1793.281427 411.3682673)
(-1846.27896 660.156531 1236.342887)
(963.7514121 1764.602806 -75.65582389)
(228.7778198 184.4003786 779.4387555)
(-861.4305396 -288.981684 45.93211032)
(-136.7529669 -1582.208827 313.4258061)
(427.444465 -22.22809608 -220.4751674)
(1282.630767 -641.965936 1243.557577)
(-1086.130572 1088.136406 1079.79897)
(666.1718046 804.2221283 644.5094808)
(-239.0313948 -391.594939 -1424.733563)
(625.3197146 934.0876709 -620.970836)
(-846.4720914 2418.361205 -966.1088263)
(707.323244 116.6353789 -889.9301058)
(-49.67417238 1127.534414 -2275.739439)
(782.1784116 -121.7397178 -347.5814376)
(136.3593216 -294.2335289 1092.98444)
(413.1407413 -717.2836281 -201.8687094)
(231.8133883 1605.800781 1203.917458)
(-362.5643767 1427.127269 -1313.398359)
(-694.2292614 -1906.568997 -259.6008204)
(-485.4329677 -53.23921601 1063.577843)
(993.7531451 662.5132912 -418.674575)
(298.3296481 -1819.693414 -789.5951393)
(-83.2490545 1204.848037 140.3216632)
(-362.0939287 815.8849757 -987.4264447)
(55.92886265 349.7742565 594.3482305)
(-433.8236459 59.20056198 268.0032426)
(-222.2641578 2017.470186 565.5349565)
(199.756289 478.0642705 -1395.797088)
(-1525.782786 824.4138886 -2167.860858)
(758.6480217 773.0892166 -1871.755503)
(637.7032088 -968.9668796 -176.1363841)
(170.9052491 -163.4808898 1324.989613)
(-423.7413788 -873.9819803 -224.9824922)
(-633.2285525 1672.078594 -1061.604204)
(-1482.707535 -932.0475207 1177.740182)
(1224.434296 -64.59788413 -1669.991518)
(-1154.772439 -1416.285482 501.8187136)
(-508.7609351 -711.8803871 2114.862559)
(-995.3295599 123.9255457 152.1967992)
(371.61696 100.5658215 -372.5541639)
(1112.772508 -776.0097808 -1195.218962)
(213.3111543 686.5961286 155.5594752)
(143.2485465 -521.6273071 430.4893812)
(385.4234256 -1395.71744 528.7106368)
(-170.4552444 48.93083044 -250.5384079)
(408.0736637 933.110794 213.5479914)
(1986.479068 -1427.827851 736.8049777)
(-151.2633174 -927.191116 -1455.270682)
(1854.18178 -562.1789771 346.5049083)
(527.3031911 -17.95361552 286.368821)
(909.1452511 2070.496345 393.8218509)
(-197.4244868 -623.6498692 -841.2900187)
(2015.183913 -1919.267554 -1105.470916)
(-829.2651608 -1566.785296 842.2658919)
(-336.5472482 -423.480487 -1791.130047)
(-1003.226386 332.1232879 464.1519389)
(152.865009 -1366.732163 1179.323579)
(1036.858434 1025.609607 -2235.653953)
(453.7796257 -1751.330644 -313.0956833)
(-1360.59177 1136.119601 1033.637241)
(1084.353454 1045.111644 -826.481893)
(-1084.375955 -500.4356835 2899.964916)
(-539.6139036 671.8880803 1027.686735)
(835.6693808 -21.877808 1283.866877)
(812.8339459 -665.0992299 -1740.144567)
(1588.35638 -1181.48992 -1076.835149)
(1549.849162 -730.2613209 2278.511747)
(488.1214056 -80.72434771 868.9325178)
(742.5593559 455.076073 -1364.634389)
(455.3726512 -233.953932 -1318.512948)
(107.5024913 -432.3752614 597.4942626)
(-1009.945127 1893.83377 -108.6039145)
(381.1052763 945.0270244 272.0067424)
(361.1327459 -291.8823453 493.5238876)
(1282.503397 -1033.644498 -2376.370479)
(255.6845376 660.5667814 284.9078002)
(625.5628737 228.2317885 -638.0281334)
(1438.778267 -32.9521002 244.6655186)
(1017.2088 570.4450077 1818.061136)
(-24.4575985 183.9783411 -877.3522457)
(1483.83164 1187.444113 157.7932443)
(-86.91716261 789.8719623 -180.9570209)
(-517.0981365 -1446.794187 1362.622593)
(-1922.802331 100.6628057 308.9977643)
(-2639.790133 685.6492373 827.8476278)
(50.18078104 456.3859933 529.6587841)
(123.5158518 1597.916095 412.0773881)
(1183.585352 -1565.106297 1261.994531)
(670.4257456 951.0728475 -814.0172383)
(-310.7656195 -1018.768817 34.36846381)
(-1788.141287 385.3259289 623.0643814)
(-515.1219459 -132.37986 -871.8998107)
(-165.3850619 -814.3351835 -1830.644258)
(-634.0239601 -1563.247727 -1199.295352)
(-340.2597891 -1967.568082 820.3062993)
(1272.930888 -609.6254168 702.4427703)
(-551.9767059 104.4801695 -129.4315652)
(951.2939408 -1065.401492 1687.041458)
(168.1008117 1390.757048 1060.001402)
(1401.781739 -2079.027487 2016.376607)
(798.123901 287.0465373 367.1088769)
(252.3220327 731.5820935 1042.292925)
(1676.257544 476.4374227 558.9732807)
(553.8209331 701.4970309 -180.7310714)
(-228.2057686 558.7796013 -3260.205227)
(607.9689991 483.2435211 -883.8941869)
(1108.096565 -614.7353512 -2272.771017)
(1238.887011 -2069.945255 809.1371434)
(1328.825154 993.0213966 123.7375866)
(-407.0872361 -28.51824153 -1975.465913)
(-49.49206437 1403.129465 -270.8070957)
(-129.0758676 94.73536153 1157.000079)
(-513.586169 594.0536307 -2483.664318)
(-779.5276119 -510.3955405 -2111.171867)
(1909.005091 1218.125384 -587.4717438)
(993.6911648 386.2184672 -865.6789994)
(-428.4358298 982.4137218 -1078.588648)
(-1480.428344 1127.757827 -96.67809859)
(1225.983105 -498.1288466 -1282.709217)
(1078.28223 1722.068029 987.9184552)
(824.8774486 1001.799575 750.6413455)
(-448.2415728 -2162.737455 671.6470821)
(-1966.172832 -326.9026619 1626.798445)
(177.5851168 34.91387493 434.8604244)
(384.6104539 147.9489521 -832.8433747)
(154.9944969 89.63265254 109.6987311)
(356.8538523 342.8828274 -1430.196484)
(872.4456573 426.8201244 1476.101653)
(-509.0860317 -1552.720585 1171.140867)
(323.4567772 164.5993644 349.6970131)
(-783.3560161 717.88091 280.1649132)
(321.2478005 1057.840268 1083.522777)
(-1213.881706 -709.4512935 2698.977047)
(810.3873911 622.6703514 -1225.580783)
(-81.04889862 598.3622523 -715.7211043)
(-363.142855 -789.3715631 848.4652464)
(2440.263 -295.2730894 -855.9897076)
(-549.9293423 -706.7951559 -1159.244544)
(-858.8130668 607.0183052 -1603.474675)
(389.6180047 -413.3426341 230.9118111)
(-758.039625 -212.0519046 -172.1576122)
(1603.950678 1069.520843 -1183.460086)
(621.7886454 81.74348044 191.4514957)
(343.1051363 1342.853941 267.2908277)
(-2495.957014 -384.6453387 107.1268756)
(251.4082905 2486.01543 -1215.134221)
(211.3623772 -1197.866787 753.3596612)
(634.287684 1640.536982 -1220.053608)
(-1723.412067 -424.3756553 695.3072171)
(-449.2297411 -140.0235616 -893.5473463)
(1116.24757 -246.5905581 1855.126339)
(373.0767305 -409.0914875 -213.8967664)
(542.4821873 -650.5484363 809.0298022)
(579.4171364 -380.1179941 2721.532117)
(252.6034052 -1404.870476 -69.31505956)
(-493.530543 1306.686286 93.40408206)
(-1153.426433 -215.0021932 -677.7277575)
(-665.1758123 1.851049335 -312.5276232)
(-156.7081949 58.84267914 459.1321104)
(20.33434019 -1038.774773 439.0336749)
(1588.260525 -91.81151169 866.3579513)
(-126.6036795 -1140.70149 1180.642516)
(919.8478874 1066.63211 -315.6313865)
(133.9157737 589.0793819 1008.329419)
(-212.4440072 -528.1177967 1259.914667)
(-1656.542497 325.223938 587.1134238)
(1162.63693 454.1720192 536.4429335)
(-1469.053124 1284.954359 1610.200605)
(-1118.361889 -504.5734175 -1369.970273)
(-294.3682719 -407.811193 1703.795724)
(-1239.9453 -143.7759698 739.1424471)
(523.8337893 -787.0325627 -1310.859471)
(-1308.14418 -37.6939564 280.1869929)
(-1439.40153 -427.1971058 -156.0890564)
(898.2952215 -1170.637861 653.9329379)
(-1328.434861 -374.932905 -608.6215273)
(-508.3818484 1158.151827 533.9778699)
(477.0680391 637.4851649 -13.0559689)
(-1103.485804 -1282.597012 283.2408475)
(-566.1211978 -332.7983176 -488.8311524)
(318.4611082 859.0013561 -1110.66886)
(-823.7685512 377.4427193 -136.8258454)
(-790.3097011 -1269.472869 -119.2609199)
(-1281.514256 -645.3824615 -1757.601061)
(-180.0461786 643.2540233 731.5661098)
(-509.4218666 99.60482628 -774.271709)
(430.1162111 563.2715016 -348.2639114)
(1408.186275 -197.8704762 521.3199218)
(100.4416655 -486.2308034 2080.9804)
(-433.7625914 102.4791492 393.8333833)
(-1409.912556 1550.119957 1521.35553)
(-1628.179566 -919.6524508 -1159.665425)
(78.29509599 428.4629956 761.7889891)
(-235.0967078 -822.1053562 -1242.808517)
(-56.53170345 -786.2399808 -780.3942952)
(322.1307265 -432.6083357 1066.785748)
(-414.5136274 723.9332536 840.8033179)
(783.1075239 -401.0997786 782.7294296)
(786.9668148 -1018.012263 1394.69211)
(1730.746024 834.1033432 577.3452577)
(694.6918724 223.9132779 -1062.420786)
(1058.702688 2844.671191 1066.931755)
(-204.9660525 62.77557977 630.5550732)
(894.3141229 -462.5665552 -368.9187903)
(-303.7848151 -417.7721366 -1127.129841)
(156.588129 1550.412748 816.2199079)
(192.7126348 299.0567806 -1344.423727)
(1048.542482 695.6113128 -369.4430841)
(-801.3395015 157.0626616 -403.6241315)
(1439.405769 -1232.811246 596.9782688)
(1022.240939 -239.0045286 331.913377)
(640.9607842 -1821.667861 1088.649011)
(-356.9299255 634.188395 -770.7955947)
(754.651919 452.4588368 601.351921)
(-566.9831608 -165.5098637 1661.457069)
(116.3166928 567.8274689 551.3979633)
(328.253105 -323.1433411 -1806.275642)
(-1571.497022 -666.2197097 -1546.520142)
(84.2539827 -1432.452828 -966.2355812)
(341.9608182 -526.7233665 -825.8198795)
(1524.227607 -245.0775287 1153.243913)
(-913.7141027 1361.771851 -882.5546275)
(-120.1443656 479.2843211 -302.7912654)
(-267.2977446 634.9700231 -1202.497502)
(2152.399298 1228.492793 642.7769693)
(-521.4076784 57.76677001 939.5867735)
(-1717.989217 91.73388684 1244.722064)
(948.0859678 -1488.007535 -130.3687851)
(-1149.160993 350.8000837 438.6587429)
(-1557.175344 -789.6283062 436.1565269)
(-978.9826569 -9.700489961 -70.4184207)
(-1515.833906 794.3674606 167.5154225)
(1485.626585 -701.4822582 31.27677899)
(-89.64116884 588.9505359 -856.7224196)
(147.5776361 -608.0733938 -1196.984954)
(1305.505484 456.274685 -2295.249635)
(-926.2510096 224.4142435 -59.95131306)
(-1143.017666 -1126.398096 -2137.309231)
(-1841.756342 -391.4911253 -1436.499639)
(-2290.541821 965.0887252 20.45682777)
(-946.6274359 459.6756044 12.75184916)
(740.2500234 255.8147461 971.4337766)
(549.7186674 -1081.487396 -421.1032567)
(-525.8750615 2038.646858 -2736.404427)
(357.5254898 1969.923311 -695.1604872)
(-749.958731 -474.5563358 -2191.570188)
(-613.9675332 -1152.417635 -1229.684165)
(976.1537713 -694.1666958 -364.7702068)
(-1259.693274 2146.994453 -871.331293)
(-1467.587381 188.3346318 711.7122278)
(-1516.676647 -667.8356836 20.56508665)
(-378.8021971 253.9679995 394.4118204)
(952.9189951 -270.8525101 -279.8161003)
(-344.2973397 -209.3854214 -521.7907481)
(-1082.016063 1502.637002 -77.06750326)
(-283.290405 125.4874195 -1682.644111)
(526.6122254 772.7370895 29.1534011)
(-1272.793038 420.3720008 1044.188004)
(-2695.127546 452.0757483 2158.293118)
(30.41452379 784.7015138 51.43188489)
(-1120.67889 -664.761572 -957.1669969)
(1136.673461 -813.1408587 -1225.50587)
(-41.57355078 133.1714973 53.5892329)
(254.7991167 -1034.568553 -3003.335845)
(-1806.47243 61.9396602 561.5658213)
(1384.231797 171.2806943 -1205.4843)
(244.0865507 376.6199769 1068.05609)
(1909.133164 418.7618066 990.7973473)
(-390.9402892 766.1696992 -1359.804731)
(670.6249438 -405.2501493 -383.6270265)
(-1805.898139 -596.9030837 -979.0510047)
(191.7104078 -1222.523898 793.1898901)
(-939.1437997 645.7146356 -189.4697208)
(-1886.463749 -1120.469963 110.055784)
(-268.3231266 -46.17580701 -67.03673766)
(827.4155293 -1271.970296 248.0178904)
(256.2886357 -48.05071417 1802.836242)
(1087.061167 29.39712178 47.40799297)
(337.2956417 669.1708809 1096.529707)
(1293.147203 1582.722336 91.50167907)
(-565.9894902 -908.6977506 -954.0871149)
(373.2524734 -766.003641 456.805513)
(389.0105864 1230.473702 1544.887819)
(-133.1360028 -667.7118347 -502.8979198)
(1942.917201 959.149942 -22.56308791)
(-329.1357625 -1610.144767 646.1792179)
(1479.287603 650.5959187 174.4288245)
(-880.6004026 306.1771479 -2754.751863)
(-439.1848008 25.32685562 834.5492838)
(871.8195082 -1186.111532 724.7568273)
(-264.0428786 431.3079179 -537.0814551)
(685.1431953 1032.30216 747.6560589)
(-1105.934317 -723.1808952 452.0087863)
(-614.3750886 -487.5456487 -699.3634869)
(-2390.769688 425.3248329 -1437.981551)
(-558.7765015 -2496.290344 -293.5675892)
(-1582.194958 759.5907402 -592.5745705)
(-357.3351688 -818.1793145 597.9299222)
(908.793365 -697.2175323 296.2973269)
(-1579.991833 161.9018409 103.9202432)
(619.3799997 755.8672685 915.3735739)
(-190.2617452 -100.3446189 -382.7718087)
(1946.451308 -1603.185401 4.791424931)
(-368.9578864 -20.37343213 481.9210265)
(-72.58509091 861.6173898 399.484899)
(-1041.665944 -536.1109252 -623.7720754)
(466.6301909 -42.53070999 -364.939602)
(-2681.404237 -76.62392175 488.2010232)
(-1532.013664 -214.1805266 1087.374192)
(-737.4582866 -345.4685975 480.525854)
(894.1617067 -597.0413193 -1061.309001)
(177.4584188 2261.675085 344.3069704)
(-673.2828233 1001.188826 -737.371674)
(2266.101981 805.4319747 155.2582824)
(388.0412256 418.9636336 1004.347631)
(1116.490254 -437.2110502 61.84816855)
(728.991817 -128.7343156 1204.948001)
(-1144.880027 1166.808098 945.3126947)
(-1257.28609 256.9281937 -760.2954859)
(1103.681141 957.2769537 161.9558033)
(-443.7169128 1088.297402 2673.581256)
(-371.4482212 1110.01911 496.4809294)
(1112.274807 474.845045 339.6505717)
(-793.8722057 811.6099903 403.5886366)
(-1008.241997 -944.7023959 -107.1679416)
(-1504.634966 2596.449397 1080.129329)
(-559.4693152 434.8687359 17.02080076)
(1522.02316 309.5236426 -1478.562405)
(3421.809831 1161.811268 694.3381713)
(67.16745995 687.353774 -366.7828919)
(1254.835683 78.70608074 334.4788752)
(860.7088014 -519.3381724 1363.996047)
(801.9945938 894.5057029 1603.635538)
(-2008.879238 988.4955183 -291.1514442)
(-90.93520269 988.1142094 261.4143903)
(790.4560494 251.9728502 -411.1805351)
(334.3851861 -512.4516497 -619.4840171)
(-1014.67933 -297.714655 488.3106846)
(393.4682436 35.43971529 -92.08078355)
(-1888.229855 -1481.52488 578.4201922)
(224.4073994 -558.2475089 1639.877056)
(374.7848264 -49.71059968 1271.825242)
(-37.0525233 -995.3280672 111.7150038)
(273.5880265 418.7746403 -724.0537603)
(-438.9675385 -984.1377907 778.3840099)
(-1100.945317 -1810.355291 -881.0082694)
(-772.7330625 -397.669644 -597.4545456)
(56.97402575 -670.5116229 -1137.998786)
(-589.1768342 561.9893714 -518.5963331)
(-672.2149071 1654.631805 -1282.174717)
(440.4379961 -151.0472029 -85.85211832)
(-621.6323187 255.6614104 205.210431)
(1060.298557 -814.352684 -264.8784421)
(1249.658184 147.8528072 461.6032908)
(-309.8264437 502.5147913 -1198.112805)
(-813.5566612 -1080.268657 -699.7523153)
(2034.262225 940.2199756 808.6824466)
(-831.1635781 -296.4356332 -466.1395318)
(1813.386877 1131.541191 -250.000476)
(-71.37183761 -410.5138366 45.0055219)
(1582.648901 -379.5391027 375.5919044)
(-764.3882432 408.6321393 677.7499847)
(-887.8009018 -387.113069 369.3954209)
(-376.634993 1314.058227 991.82961)
(-1156.632142 1172.06566 279.4919899)
(1174.995544 -1024.271708 517.1871849)
(2069.647325 331.2925759 1219.974251)
(-243.9242498 -249.5126619 -95.50002922)
(687.133993 317.257864 -1300.256844)
(-622.1132401 -739.7121354 -1546.561664)
(1240.832329 196.8967051 -35.13067192)
(-461.1293726 -1072.866089 -1777.531187)
(-303.2456491 -39.44101012 30.9596186)
(-205.56288 -12.08483238 -295.8392925)
(921.3470186 -1875.578003 -990.6283585)
(-862.0857165 58.18291506 1920.746396)
(-152.0352581 -527.5866347 582.4782812)
(-1741.031911 890.8706204 -781.6534842)
(1055.537551 158.2750873 -933.5778482)
(485.1955803 527.4128387 2333.20339)
(-994.5538608 68.03681682 320.0723061)
(-603.735539 -703.4106532 762.3846067)
(-750.3874533 1045.737252 981.6598416)
(-715.2043641 -269.8934105 217.1647839)
(18.27298612 -670.1624895 898.6185508)
(1101.636824 666.9388864 -2783.347265)
(295.1637378 -582.7883231 1088.966253)
(-931.2331992 -375.0162495 -658.10196)
(-694.6204788 1828.565027 -1373.812555)
(300.961078 -279.2328054 310.3499976)
(-802.596322 -169.8738803 1141.691227)
(679.8356798 1045.18891 1011.201262)
(149.3176492 -806.1607507 2201.742564)
(187.635014 -134.8124426 258.6782211)
(1355.916626 -1462.719376 162.2783065)
(1981.869852 1245.126421 -941.4816406)
(2.994022215 1195.592806 734.0311852)
(131.3079143 -1522.782754 -1091.997511)
(818.6426145 335.0506202 -2061.7329)
(1593.711856 -557.6048829 -1313.499965)
(-780.389516 -285.2183908 -1925.197407)
(443.8719478 -597.3204433 -720.6333563)
(1842.989771 744.5732629 816.8676274)
(1123.32164 -44.28358781 804.0517771)
(950.0033079 -1193.046501 4.090720712)
(-161.616916 139.6704075 -844.2253539)
(-1571.996796 1069.153954 485.389444)
(1647.741532 -295.0422237 -614.0236078)
(-1712.710933 -295.4895492 279.2004628)
(722.1008535 137.9247751 -608.7892447)
(-1801.278196 -248.0261439 -2225.779022)
(541.6471063 -500.1081791 -1640.356766)
(373.6497554 1158.623785 1546.94052)
(-365.7121612 79.23670546 165.7283249)
(73.35772235 1488.052552 372.9672368)
(-1975.029129 -1487.744399 507.0873073)
(-801.1285041 470.9240963 -1544.457242)
(-160.2876115 -1989.90271 -133.4476034)
(1463.848204 854.6020041 -435.379768)
(954.6140076 -814.9409446 1373.147765)
(-1007.573033 -1012.794988 -931.3966903)
(1448.45496 1488.891806 -1340.004177)
(-362.2887185 603.9722169 -1073.310805)
(-989.317639 -1097.114248 -569.5954194)
(1341.257376 649.909629 594.8744507)
(162.5607587 -1012.528967 -197.0634136)
(616.2544228 1495.171911 301.9038925)
(-526.7674513 -1916.994799 -4.6317594)
(-169.8753681 22.78501771 1419.24506)
(-94.70942334 240.2556847 1194.9209)
(261.0413444 1875.660157 356.1867766)
(47.56331838 193.5050254 576.2210302)
(-1078.17074 -1251.682152 -153.8775466)
(-397.859828 154.949926 168.4922932)
(-168.1121788 94.80638334 148.0375789)
(-2780.362404 -509.6103584 1273.968115)
(-928.4055643 1425.44004 912.4108279)
(-554.9242944 333.9521511 274.4821685)
(-68.74390575 -664.5534027 -1241.314307)
(859.6056352 -1902.802026 -872.4838329)
(2158.124 -440.0644611 -813.1274823)
(1140.138881 -474.1916232 -410.9871654)
(69.72623109 1500.469789 -328.7404433)
(885.6011594 1549.144815 1582.052406)
(-438.7656178 -95.87389322 -198.6585582)
(857.893069 61.18682406 -19.38261477)
(-927.8724807 2588.69409 -41.91367722)
(274.8555099 780.014315 -1180.644355)
(-233.7555326 2793.886106 -1057.578527)
(1912.160389 -2195.707143 493.7178758)
(1146.524694 -374.6104365 76.19869347)
(1056.369374 -900.0265631 726.8388183)
(-433.6000197 -672.8029838 -89.18153581)
(979.0481096 -1183.965586 1415.628569)
(499.1377378 -162.0505393 1386.042012)
(-119.7238605 -403.7603941 -1033.716923)
(586.901366 492.0403674 -1194.675492)
(-992.3769097 -14.24704152 808.9862387)
(1872.337624 629.401272 -911.9390785)
(-1076.559691 486.8020326 -669.312473)
(551.7536578 -1311.206316 -464.9406881)
(-329.288453 -437.9410159 -508.310905)
(-907.5001737 -658.7345399 784.1615073)
(424.3938234 -313.6518461 -233.5552323)
(239.0586428 -1310.10223 -611.9178176)
(-583.8227859 1136.067288 951.6859318)
(214.0086185 -1663.126861 -1815.86034)
(279.2499285 1698.967448 763.8972853)
(113.5230512 678.4750234 -285.6272639)
(-265.9122582 -532.4148146 676.297656)
(-326.079669 717.9293339 -641.2914575)
(-846.0869163 -2545.738807 -839.0492444)
(1319.547697 -257.8356499 1910.515801)
(-2127.118473 507.8303476 -401.9077281)
(674.7526996 721.314799 328.6833971)
(1000.608732 -446.5904291 170.9905123)
(-279.9868832 222.513096 -127.0709556)
(417.3003174 -1370.717273 467.3789317)
(-719.308504 17.32452442 528.3325156)
(-144.9012843 1117.416415 -1629.691833)
(653.2093756 939.969486 -18.49077651)
(54.89982472 717.8781953 732.4720138)
(782.141251 -1226.073918 1734.658562)
(-771.1171113 -1606.632603 -1653.560777)
(-2358.315965 252.0398923 221.6770989)
(1410.192931 208.179993 2410.741254)
(2021.888756 -1035.163299 1072.575941)
(1006.616721 -1411.815327 447.409636)
(634.8671905 -190.0944309 224.503689)
(-787.1405941 1507.822558 1597.237786)
(3171.97199 -1913.914583 -1967.006932)
(282.9032455 -404.0800734 660.0045666)
(-248.38258 1081.009918 1621.326917)
(422.1539027 -330.7055723 -601.0675071)
(4.856065767 -191.4381979 278.7481545)
(177.1011367 463.7333995 -237.2569221)
(198.6414548 -316.2575665 -550.3036974)
(767.8398958 1261.629574 1155.745685)
(-277.9624413 -79.80973746 -282.0226869)
(-976.6024339 -1699.918948 -1935.35159)
(895.9697464 998.6973245 146.9222799)
(113.3579405 -1276.770764 -605.0790188)
(-122.8692296 -106.1020619 -1286.697242)
(-489.3642132 962.0366719 -898.6047997)
(778.8913906 858.8777455 -772.0303801)
(512.4144986 -83.72451457 -1235.654831)
(236.9067789 -1057.320815 555.0170834)
(-889.7112988 583.3675151 986.9725061)
(148.8012073 -1215.712789 446.6200964)
(-1379.135023 -701.0836471 -124.3388591)
(-875.0511452 -321.1330147 74.28211944)
(-42.15804364 966.7413406 -930.2628465)
(-1016.103834 2469.94157 -1438.979124)
(74.40040533 -1013.874838 -240.9040267)
(-420.7742665 339.6508298 -838.1192284)
(55.17087976 757.057054 494.1869734)
(767.3346373 506.0261706 309.7493454)
(295.9809965 -772.7120106 -170.7083291)
(573.9126504 -1227.127452 1013.803095)
(-502.4958102 496.4575732 1079.167764)
(-367.006453 1133.295822 655.0039514)
(2633.832563 -343.9208584 798.1502689)
(-646.2397007 814.2245518 18.85886103)
(586.3564845 -256.5977418 340.620316)
(-1437.258005 -1457.412439 725.1430383)
(280.1562102 -398.8340636 740.0800825)
(1963.113795 217.6662698 -48.04011216)
(-955.1018674 449.5784367 829.0850606)
(1492.741356 -98.71428414 1913.522213)
(-999.9093879 1072.527465 -456.9449594)
(57.75688015 -429.3781473 1445.55367)
(-2132.686384 859.2536468 813.6530667)
(126.8376033 654.975537 -1088.924302)
(-853.342933 -297.6602732 -352.8977772)
(295.243146 957.9541754 791.5290846)
(417.1499985 381.1760035 796.5126676)
(1565.033769 -2169.678516 -301.8377004)
(-1314.153912 1908.012474 1149.965214)
(-2053.456317 332.3249519 630.861967)
(-1240.87038 -650.347142 512.9041631)
(-106.351358 699.872715 -111.1973348)
(-440.1799219 283.643477 -292.8726755)
(-753.770482 -380.1496758 -386.984276)
(-278.6794132 -1739.238322 -923.8847034)
(543.0985548 1986.143714 -576.4700672)
(-131.8976377 -1550.023831 -304.8966772)
(1903.337947 -1205.036061 391.0148828)
(621.3069668 1631.763378 463.3053647)
(1049.451656 -335.4517181 982.8448208)
(369.6674431 -633.5708597 -385.6362044)
(-80.18135729 1889.289085 462.9671695)
(-1293.162554 1185.905787 208.9064569)
(1455.881087 -1573.079595 -2914.231203)
(501.543278 755.28735 -1192.994484)
(925.4194186 1594.020229 -316.4822495)
(468.0038416 1334.817431 233.3913961)
(-17.78765671 1003.773099 1958.595284)
(582.3767655 1049.631876 -371.855456)
(640.4695652 -525.9221355 603.6714479)
(954.3647651 1470.853486 -1330.436727)
(-2049.648883 1788.838089 -230.322501)
(-258.5805307 -1183.827731 -1580.269394)
(1444.125885 1147.508064 172.4256636)
(-1470.857425 -26.76490751 -1729.606884)
(-969.7292075 1502.501269 1100.070881)
(-495.1171485 -220.171323 -314.3367222)
(1805.757903 361.9521203 -332.9973899)
(1473.662369 1223.780862 -35.16694545)
(329.2822577 -206.6185618 -381.0250622)
(1083.226329 917.5570593 421.0715715)
(-309.9770154 -939.9946386 -211.1406298)
(179.7586566 -916.0196898 -223.2885728)
(-911.1774114 247.9390636 1745.046514)
(-733.3250947 723.4140529 -120.8322022)
(258.390849 104.9142296 1008.478107)
(-413.1938306 -2840.518686 -778.1095059)
(-114.0389105 -780.0751377 -204.7942669)
(1149.028662 -391.5178484 1160.472518)
(479.8174598 1930.474076 -583.7414753)
(-833.3517736 464.2110292 -1787.896181)
(-442.3940681 414.4503016 -721.3868808)
(-783.9471262 -1076.203573 -562.5353366)
(-1000.2603 -999.4891575 686.9025345)
(1121.442508 -1929.506975 317.6759482)
(1238.145055 477.1994917 2075.377098)
(-176.5720964 382.3954536 -1535.854358)
(-395.6345274 633.1694952 781.7921501)
(-168.2587842 -1980.105328 -1350.222552)
(1656.502205 659.6707733 -422.7126142)
(1043.190283 -1038.745125 1647.520574)
(-331.9646703 82.09443025 1796.524255)
(1284.378859 661.89971 1794.771467)
(556.0653039 606.1905457 -1204.391787)
(1263.738305 1735.126617 -1530.731585)
(-105.3280135 -581.072088 -381.6887937)
(134.3852713 -32.41050815 1475.210495)
(-1611.715276 -1396.738546 -18.11642384)
(-163.845588 277.8772855 -198.7389783)
(995.8370075 117.6774984 1068.01977)
(-877.4944554 -1690.903071 544.3685538)
(1280.591967 1629.066612 1174.802754)
(-10.34397372 -51.90485324 -555.1490544)
(-2093.596474 1764.522172 421.6190637)
(-2065.702122 703.1186546 72.05661431)
(-32.18857412 -3049.198954 2023.336912)
(-233.3974359 661.0695601 -1423.554421)
(776.4980189 -1222.589407 786.5464019)
(-1066.120844 -330.6014444 -1112.722783)
(422.0335522 -267.0800961 573.1244635)
(2239.214482 -740.8157682 2160.932826)
(2320.678627 648.6869591 -2827.895603)
(752.2649863 663.2431385 493.4824243)
(930.4779833 958.7753905 -566.0124843)
(898.1773523 134.8680947 389.4424371)
(1245.678216 -226.1427859 -358.2199208)
(-479.8363276 -166.7887737 -2139.338354)
(1053.545483 -903.4696986 -920.4488125)
(646.1294039 1539.49102 1218.69593)
(-513.6122139 -864.4836263 -1278.969787)
(1003.927553 -1123.557397 599.3747509)
(742.824058 130.9959747 -719.5360629)
(-1073.210193 -363.8476637 660.4759325)
(304.0606891 -641.8371988 19.66707542)
(1574.162219 1307.619437 -325.5744669)
(-1685.106973 -2666.192989 -974.9978187)
(-1283.873038 -344.347459 822.3267225)
(-1202.45017 -1009.931615 -1823.402765)
(1335.33334 -740.7415735 -468.6818679)
(-548.0937024 -1922.842761 791.7173613)
(-616.7477285 1252.872085 224.363666)
(764.8069413 1567.242353 1007.223744)
(2135.789588 868.5708665 -1698.081798)
(-1108.538541 1635.338351 387.4852727)
(1096.48015 2633.148786 496.3738486)
(-1882.783323 913.8726276 -506.0557703)
(1023.863416 373.6815835 470.593068)
(464.0967482 -428.9309749 -884.0928468)
(881.0775455 -227.2472677 -1381.011347)
(-686.7408372 -1234.030212 372.8967153)
(1144.54789 -593.3266343 -420.751692)
(1006.575111 668.6927267 814.5105308)
(1495.830059 854.8106451 -703.7066996)
(408.2399119 -982.5650897 791.5056744)
(-480.4490723 -1405.184123 -400.6818443)
(-1154.726368 -214.9960987 -632.6702914)
(825.4825192 827.7681446 -80.9966393)
(-1190.84175 -333.5047493 -1344.90147)
(1305.153579 992.3981925 926.8831762)
(975.1627743 798.2576365 2395.170752)
(420.5597576 -122.1802631 -1401.067324)
(-98.89586931 -2143.432106 -263.3586944)
(-970.0766055 -886.3428337 383.1988701)
(2454.88369 -2742.397405 -1355.795723)
(-1178.129844 526.3297458 -1530.315576)
(492.5340298 710.6408394 -528.6163329)
(835.4033953 2493.719721 -1435.111463)
(-1318.235516 -53.52496825 942.8556166)
(130.8459217 773.2088657 544.5865424)
(-1199.992531 1826.847226 879.0336956)
(340.6275968 2890.453584 -807.3735484)
(-591.1226326 1121.919041 1.129782479)
(1495.266338 -1602.602728 -1278.350579)
(-730.1623241 -949.5586444 -68.32474126)
(-245.1680464 386.8415182 443.3575527)
(37.61527383 670.9803198 373.9466659)
(-87.18114277 1009.446561 253.4336773)
(-472.530533 288.9207272 857.6545759)
(512.0696518 250.2712543 48.43468864)
(949.0917508 -74.17697419 -1780.193309)
(514.1362147 142.9987817 648.370388)
(47.2411069 -804.5751979 512.7315218)
(102.6046039 -694.9766559 357.2431089)
(-24.24486211 946.6260351 -1177.253101)
(-62.42334905 767.3939254 626.0543341)
(977.7868626 2293.08279 326.4353103)
(191.8984721 74.22933221 568.8061618)
(-1220.440566 151.0893088 706.2639332)
(-698.6988422 -963.1001865 375.5863673)
(605.0304488 477.8851019 350.7842931)
(544.9914829 1408.793244 1900.100096)
(-1120.359607 336.0750311 2135.449848)
(1529.693147 1517.101315 961.548534)
(1739.555495 1517.127676 1107.229843)
(-1452.253565 89.92926109 -375.588373)
(-1301.794534 1154.713198 161.1401637)