# Probe 0 (5e-06 5e-06 5e-06)
#           Probe                 0
#            Time
            2e-08                 0
            4e-08                 0
            6e-08                 0
            8e-08                 0
            1e-07        4883.83955
          1.2e-07        4883.83955
          1.4e-07        4883.83955
          1.6e-07        4883.83955
          1.8e-07        4883.83955
            2e-07       4809.248627
          2.2e-07       4809.248627
          2.4e-07       4809.248627
          2.6e-07       4809.248627
          2.8e-07       4809.248627
            3e-07       4770.533204
          3.2e-07       4770.533204
          3.4e-07       4770.533204
          3.6e-07       4770.533204
          3.8e-07       4770.533204
            4e-07       4739.004181
          4.2e-07       4739.004181
          4.4e-07       4739.004181
          4.6e-07       4739.004181
          4.8e-07       4739.004181
            5e-07        4713.06486
          5.2e-07        4713.06486
          5.4e-07        4713.06486
          5.6e-07        4713.06486
          5.8e-07        4713.06486
            6e-07       4687.440883
          6.2e-07       4687.440883
          6.4e-07       4687.440883
          6.6e-07       4687.440883
          6.8e-07       4687.440883
            7e-07       4664.269782
          7.2e-07       4664.269782
          7.4e-07       4664.269782
          7.6e-07       4664.269782
          7.8e-07       4664.269782
            8e-07       4644.810823
          8.2e-07       4644.810823
          8.4e-07       4644.810823
          8.6e-07       4644.810823
          8.8e-07       4644.810823
            9e-07        4626.28061
          9.2e-07        4626.28061
          9.4e-07        4626.28061
          9.6e-07        4626.28061
          9.8e-07        4626.28061
            1e-06       4606.346219
         1.02e-06       4606.346219
         1.04e-06       4606.346219
         1.06e-06       4606.346219
         1.08e-06       4606.346219
          1.1e-06       4588.534236
         1.12e-06       4588.534236
         1.14e-06       4588.534236
         1.16e-06       4588.534236
         1.18e-06       4588.534236
          1.2e-06       4573.422393
         1.22e-06       4573.422393
         1.24e-06       4573.422393
         1.26e-06       4573.422393
         1.28e-06       4573.422393
          1.3e-06       4558.105514
         1.32e-06       4558.105514
         1.34e-06       4558.105514
         1.36e-06       4558.105514
         1.38e-06       4558.105514
          1.4e-06       4545.128886
         1.42e-06       4545.128886
         1.44e-06       4545.128886
         1.46e-06       4545.128886
         1.48e-06       4545.128886
          1.5e-06        4532.02449
         1.52e-06        4532.02449
         1.54e-06        4532.02449
         1.56e-06        4532.02449
         1.58e-06        4532.02449
          1.6e-06       4519.506614
         1.62e-06       4519.506614
         1.64e-06       4519.506614
         1.66e-06       4519.506614
         1.68e-06       4519.506614
          1.7e-06       4506.062053
         1.72e-06       4506.062053
         1.74e-06       4506.062053
         1.76e-06       4506.062053
         1.78e-06       4506.062053
          1.8e-06       4494.115332
         1.82e-06       4494.115332
         1.84e-06       4494.115332
         1.86e-06       4494.115332
         1.88e-06       4494.115332
          1.9e-06       4483.713978
         1.92e-06       4483.713978
         1.94e-06       4483.713978
         1.96e-06       4483.713978
         1.98e-06       4483.713978
            2e-06       4473.287165
         2.02e-06       4473.287165
         2.04e-06       4473.287165
         2.06e-06       4473.287165
         2.08e-06       4473.287165
          2.1e-06       4462.801583
         2.12e-06       4462.801583
         2.14e-06       4462.801583
         2.16e-06       4462.801583
         2.18e-06       4462.801583
          2.2e-06       4452.927798
         2.22e-06       4452.927798
         2.24e-06       4452.927798
         2.26e-06       4452.927798
         2.28e-06       4452.927798
          2.3e-06       4442.635522
         2.32e-06       4442.635522
         2.34e-06       4442.635522
         2.36e-06       4442.635522
         2.38e-06       4442.635522
          2.4e-06       4433.002116
         2.42e-06       4433.002116
         2.44e-06       4433.002116
         2.46e-06       4433.002116
         2.48e-06       4433.002116
          2.5e-06       4424.339106
         2.52e-06       4424.339106
         2.54e-06       4424.339106
         2.56e-06       4424.339106
         2.58e-06       4424.339106
          2.6e-06       4416.218407
         2.62e-06       4416.218407
         2.64e-06       4416.218407
         2.66e-06       4416.218407
         2.68e-06       4416.218407
          2.7e-06       4408.471286
         2.72e-06       4408.471286
         2.74e-06       4408.471286
         2.76e-06       4408.471286
         2.78e-06       4408.471286
          2.8e-06       4400.120127
         2.82e-06       4400.120127
         2.84e-06       4400.120127
         2.86e-06       4400.120127
         2.88e-06       4400.120127
          2.9e-06       4392.552718
         2.92e-06       4392.552718
         2.94e-06       4392.552718
         2.96e-06       4392.552718
         2.98e-06       4392.552718
            3e-06        4385.57262
         3.02e-06        4385.57262
         3.04e-06        4385.57262
         3.06e-06        4385.57262
         3.08e-06        4385.57262
          3.1e-06       4378.555074
         3.12e-06       4378.555074
         3.14e-06       4378.555074
         3.16e-06       4378.555074
         3.18e-06       4378.555074
          3.2e-06       4371.635501
         3.22e-06       4371.635501
         3.24e-06       4371.635501
         3.26e-06       4371.635501
         3.28e-06       4371.635501
          3.3e-06         4365.9019
         3.32e-06         4365.9019
         3.34e-06         4365.9019
         3.36e-06         4365.9019
         3.38e-06         4365.9019
          3.4e-06       4359.220841
         3.42e-06       4359.220841
         3.44e-06       4359.220841
         3.46e-06       4359.220841
         3.48e-06       4359.220841
          3.5e-06       4352.767178
         3.52e-06       4352.767178
         3.54e-06       4352.767178
         3.56e-06       4352.767178
         3.58e-06       4352.767178
          3.6e-06       4346.013917
         3.62e-06       4346.013917
         3.64e-06       4346.013917
         3.66e-06       4346.013917
         3.68e-06       4346.013917
          3.7e-06       4339.919722
         3.72e-06       4339.919722
         3.74e-06       4339.919722
         3.76e-06       4339.919722
         3.78e-06       4339.919722
          3.8e-06       4333.919765
         3.82e-06       4333.919765
         3.84e-06       4333.919765
         3.86e-06       4333.919765
         3.88e-06       4333.919765
          3.9e-06       4327.428211
         3.92e-06       4327.428211
         3.94e-06       4327.428211
         3.96e-06       4327.428211
         3.98e-06       4327.428211
            4e-06       4321.311361
         4.02e-06       4321.311361
         4.04e-06       4321.311361
         4.06e-06       4321.311361
         4.08e-06       4321.311361
          4.1e-06       4315.919762
         4.12e-06       4315.919762
         4.14e-06       4315.919762
         4.16e-06       4315.919762
         4.18e-06       4315.919762
          4.2e-06       4310.856475
         4.22e-06       4310.856475
         4.24e-06       4310.856475
         4.26e-06       4310.856475
         4.28e-06       4310.856475
          4.3e-06       4305.680761
         4.32e-06       4305.680761
         4.34e-06       4305.680761
         4.36e-06       4305.680761
         4.38e-06       4305.680761
          4.4e-06       4300.506265
         4.42e-06       4300.506265
         4.44e-06       4300.506265
         4.46e-06       4300.506265
         4.48e-06       4300.506265
          4.5e-06       4295.671585
         4.52e-06       4295.671585
         4.54e-06       4295.671585
         4.56e-06       4295.671585
         4.58e-06       4295.671585
          4.6e-06       4290.704622
         4.62e-06       4290.704622
         4.64e-06       4290.704622
         4.66e-06       4290.704622
         4.68e-06       4290.704622
          4.7e-06       4286.395267
         4.72e-06       4286.395267
         4.74e-06       4286.395267
         4.76e-06       4286.395267
         4.78e-06       4286.395267
          4.8e-06       4281.538701
         4.82e-06       4281.538701
         4.84e-06       4281.538701
         4.86e-06       4281.538701
         4.88e-06       4281.538701
          4.9e-06        4277.42909
         4.92e-06        4277.42909
         4.94e-06        4277.42909
         4.96e-06        4277.42909
         4.98e-06        4277.42909
            5e-06       4272.792514
         5.02e-06       4272.792514
         5.04e-06       4272.792514
         5.06e-06       4272.792514
         5.08e-06       4272.792514
          5.1e-06       4268.199432
         5.12e-06       4268.199432
         5.14e-06       4268.199432
         5.16e-06       4268.199432
         5.18e-06       4268.199432
          5.2e-06       4263.832771
         5.22e-06       4263.832771
         5.24e-06       4263.832771
         5.26e-06       4263.832771
         5.28e-06       4263.832771
          5.3e-06       4259.358385
         5.32e-06       4259.358385
         5.34e-06       4259.358385
         5.36e-06       4259.358385
         5.38e-06       4259.358385
          5.4e-06       4254.745022
         5.42e-06       4254.745022
         5.44e-06       4254.745022
         5.46e-06       4254.745022
         5.48e-06       4254.745022
          5.5e-06       4250.440218
         5.52e-06       4250.440218
         5.54e-06       4250.440218
         5.56e-06       4250.440218
         5.58e-06       4250.440218
          5.6e-06        4246.53978
         5.62e-06        4246.53978
         5.64e-06        4246.53978
         5.66e-06        4246.53978
         5.68e-06        4246.53978
          5.7e-06       4242.572737
         5.72e-06       4242.572737
         5.74e-06       4242.572737
         5.76e-06       4242.572737
         5.78e-06       4242.572737
          5.8e-06        4239.36127
         5.82e-06        4239.36127
         5.84e-06        4239.36127
         5.86e-06        4239.36127
         5.88e-06        4239.36127
          5.9e-06       4236.144819
         5.92e-06       4236.144819
         5.94e-06       4236.144819
         5.96e-06       4236.144819
         5.98e-06       4236.144819
            6e-06       4232.628748
         6.02e-06       4232.628748
         6.04e-06       4232.628748
         6.06e-06       4232.628748
         6.08e-06       4232.628748
          6.1e-06       4228.751127
         6.12e-06       4228.751127
         6.14e-06       4228.751127
         6.16e-06       4228.751127
         6.18e-06       4228.751127
          6.2e-06       4224.948212
         6.22e-06       4224.948212
         6.24e-06       4224.948212
         6.26e-06       4224.948212
         6.28e-06       4224.948212
          6.3e-06       4221.575217
         6.32e-06       4221.575217
         6.34e-06       4221.575217
         6.36e-06       4221.575217
         6.38e-06       4221.575217
          6.4e-06       4218.644886
         6.42e-06       4218.644886
         6.44e-06       4218.644886
         6.46e-06       4218.644886
         6.48e-06       4218.644886
          6.5e-06       4216.038138
         6.52e-06       4216.038138
         6.54e-06       4216.038138
         6.56e-06       4216.038138
         6.58e-06       4216.038138
          6.6e-06       4213.262175
         6.62e-06       4213.262175
         6.64e-06       4213.262175
         6.66e-06       4213.262175
         6.68e-06       4213.262175
          6.7e-06       4210.104152
         6.72e-06       4210.104152
         6.74e-06       4210.104152
         6.76e-06       4210.104152
         6.78e-06       4210.104152
          6.8e-06       4207.126726
         6.82e-06       4207.126726
         6.84e-06       4207.126726
         6.86e-06       4207.126726
         6.88e-06       4207.126726
          6.9e-06       4204.053667
         6.92e-06       4204.053667
         6.94e-06       4204.053667
         6.96e-06       4204.053667
         6.98e-06       4204.053667
            7e-06       4200.886646
         7.02e-06       4200.886646
         7.04e-06       4200.886646
         7.06e-06       4200.886646
         7.08e-06       4200.886646
          7.1e-06       4197.637398
         7.12e-06       4197.637398
         7.14e-06       4197.637398
         7.16e-06       4197.637398
         7.18e-06       4197.637398
          7.2e-06       4195.067747
         7.22e-06       4195.067747
         7.24e-06       4195.067747
         7.26e-06       4195.067747
         7.28e-06       4195.067747
          7.3e-06       4192.013302
         7.32e-06       4192.013302
         7.34e-06       4192.013302
         7.36e-06       4192.013302
         7.38e-06       4192.013302
          7.4e-06       4189.358634
         7.42e-06       4189.358634
         7.44e-06       4189.358634
         7.46e-06       4189.358634
         7.48e-06       4189.358634
          7.5e-06       4186.827821
         7.52e-06       4186.827821
         7.54e-06       4186.827821
         7.56e-06       4186.827821
         7.58e-06       4186.827821
          7.6e-06       4184.569465
         7.62e-06       4184.569465
         7.64e-06       4184.569465
         7.66e-06       4184.569465
         7.68e-06       4184.569465
          7.7e-06       4181.824686
         7.72e-06       4181.824686
         7.74e-06       4181.824686
         7.76e-06       4181.824686
         7.78e-06       4181.824686
          7.8e-06        4178.92826
         7.82e-06        4178.92826
         7.84e-06        4178.92826
         7.86e-06        4178.92826
         7.88e-06        4178.92826
          7.9e-06       4176.747866
         7.92e-06       4176.747866
         7.94e-06       4176.747866
         7.96e-06       4176.747866
         7.98e-06       4176.747866
            8e-06       4174.475426
         8.02e-06       4174.475426
         8.04e-06       4174.475426
         8.06e-06       4174.475426
         8.08e-06       4174.475426
          8.1e-06       4172.247348
         8.12e-06       4172.247348
         8.14e-06       4172.247348
         8.16e-06       4172.247348
         8.18e-06       4172.247348
          8.2e-06       4169.976465
         8.22e-06       4169.976465
         8.24e-06       4169.976465
         8.26e-06       4169.976465
         8.28e-06       4169.976465
          8.3e-06        4167.34918
         8.32e-06        4167.34918
         8.34e-06        4167.34918
         8.36e-06        4167.34918
         8.38e-06        4167.34918
          8.4e-06        4164.84168
         8.42e-06        4164.84168
         8.44e-06        4164.84168
         8.46e-06        4164.84168
         8.48e-06        4164.84168
          8.5e-06       4162.476478
         8.52e-06       4162.476478
         8.54e-06       4162.476478
         8.56e-06       4162.476478
         8.58e-06       4162.476478
          8.6e-06          4160.087
         8.62e-06          4160.087
         8.64e-06          4160.087
         8.66e-06          4160.087
         8.68e-06          4160.087
          8.7e-06          4157.656
         8.72e-06          4157.656
         8.74e-06          4157.656
         8.76e-06          4157.656
         8.78e-06          4157.656
          8.8e-06       4155.632342
         8.82e-06       4155.632342
         8.84e-06       4155.632342
         8.86e-06       4155.632342
         8.88e-06       4155.632342
          8.9e-06       4153.302415
         8.92e-06       4153.302415
         8.94e-06       4153.302415
         8.96e-06       4153.302415
         8.98e-06       4153.302415
            9e-06        4150.90307
         9.02e-06        4150.90307
         9.04e-06        4150.90307
         9.06e-06        4150.90307
         9.08e-06        4150.90307
          9.1e-06       4148.391249
         9.12e-06       4148.391249
         9.14e-06       4148.391249
         9.16e-06       4148.391249
         9.18e-06       4148.391249
          9.2e-06       4146.262132
         9.22e-06       4146.262132
         9.24e-06       4146.262132
         9.26e-06       4146.262132
         9.28e-06       4146.262132
          9.3e-06       4143.730836
         9.32e-06       4143.730836
         9.34e-06       4143.730836
         9.36e-06       4143.730836
         9.38e-06       4143.730836
          9.4e-06       4141.605763
         9.42e-06       4141.605763
         9.44e-06       4141.605763
         9.46e-06       4141.605763
         9.48e-06       4141.605763
          9.5e-06       4139.623292
         9.52e-06       4139.623292
         9.54e-06       4139.623292
         9.56e-06       4139.623292
         9.58e-06       4139.623292
          9.6e-06        4137.41251
         9.62e-06        4137.41251
         9.64e-06        4137.41251
         9.66e-06        4137.41251
         9.68e-06        4137.41251
          9.7e-06       4135.196161
         9.72e-06       4135.196161
         9.74e-06       4135.196161
         9.76e-06       4135.196161
         9.78e-06       4135.196161
          9.8e-06       4133.137014
         9.82e-06       4133.137014
         9.84e-06       4133.137014
         9.86e-06       4133.137014
         9.88e-06       4133.137014
          9.9e-06       4131.079024
         9.92e-06       4131.079024
         9.94e-06       4131.079024
         9.96e-06       4131.079024
         9.98e-06       4131.079024
            1e-05       4128.839472
        1.002e-05       4128.839472
        1.004e-05       4128.839472
        1.006e-05       4128.839472
        1.008e-05       4128.839472
         1.01e-05       4126.924848
        1.012e-05       4126.924848
        1.014e-05       4126.924848
        1.016e-05       4126.924848
        1.018e-05       4126.924848
         1.02e-05       4125.302741
        1.022e-05       4125.302741
        1.024e-05       4125.302741
        1.026e-05       4125.302741
        1.028e-05       4125.302741
         1.03e-05       4123.861987
        1.032e-05       4123.861987
        1.034e-05       4123.861987
        1.036e-05       4123.861987
        1.038e-05       4123.861987
         1.04e-05       4122.201942
        1.042e-05       4122.201942
        1.044e-05       4122.201942
        1.046e-05       4122.201942
        1.048e-05       4122.201942
         1.05e-05       4120.625793
        1.052e-05       4120.625793
        1.054e-05       4120.625793
        1.056e-05       4120.625793
        1.058e-05       4120.625793
         1.06e-05       4118.591783
        1.062e-05       4118.591783
        1.064e-05       4118.591783
        1.066e-05       4118.591783
        1.068e-05       4118.591783
         1.07e-05       4116.840728
        1.072e-05       4116.840728
        1.074e-05       4116.840728
        1.076e-05       4116.840728
        1.078e-05       4116.840728
         1.08e-05       4115.104842
        1.082e-05       4115.104842
        1.084e-05       4115.104842
        1.086e-05       4115.104842
        1.088e-05       4115.104842
         1.09e-05        4113.05343
        1.092e-05        4113.05343
        1.094e-05        4113.05343
        1.096e-05        4113.05343
        1.098e-05        4113.05343
          1.1e-05       4111.217052
        1.102e-05       4111.217052
        1.104e-05       4111.217052
        1.106e-05       4111.217052
        1.108e-05       4111.217052
         1.11e-05       4109.761379
        1.112e-05       4109.761379
        1.114e-05       4109.761379
        1.116e-05       4109.761379
        1.118e-05       4109.761379
         1.12e-05       4108.207933
        1.122e-05       4108.207933
        1.124e-05       4108.207933
        1.126e-05       4108.207933
        1.128e-05       4108.207933
         1.13e-05       4106.126195
        1.132e-05       4106.126195
        1.134e-05       4106.126195
        1.136e-05       4106.126195
        1.138e-05       4106.126195
         1.14e-05       4104.897868
        1.142e-05       4104.897868
        1.144e-05       4104.897868
        1.146e-05       4104.897868
        1.148e-05       4104.897868
         1.15e-05         4103.2875
        1.152e-05         4103.2875
        1.154e-05         4103.2875
        1.156e-05         4103.2875
        1.158e-05         4103.2875
         1.16e-05       4101.878245
        1.162e-05       4101.878245
        1.164e-05       4101.878245
        1.166e-05       4101.878245
        1.168e-05       4101.878245
         1.17e-05       4100.457645
        1.172e-05       4100.457645
        1.174e-05       4100.457645
        1.176e-05       4100.457645
        1.178e-05       4100.457645
         1.18e-05       4099.166233
        1.182e-05       4099.166233
        1.184e-05       4099.166233
        1.186e-05       4099.166233
        1.188e-05       4099.166233
         1.19e-05       4097.414512
        1.192e-05       4097.414512
        1.194e-05       4097.414512
        1.196e-05       4097.414512
        1.198e-05       4097.414512
          1.2e-05       4095.947178
        1.202e-05       4095.947178
        1.204e-05       4095.947178
        1.206e-05       4095.947178
        1.208e-05       4095.947178
         1.21e-05       4094.482811
        1.212e-05       4094.482811
        1.214e-05       4094.482811
        1.216e-05       4094.482811
        1.218e-05       4094.482811
         1.22e-05       4093.034533
        1.222e-05       4093.034533
        1.224e-05       4093.034533
        1.226e-05       4093.034533
        1.228e-05       4093.034533
         1.23e-05       4091.587496
        1.232e-05       4091.587496
        1.234e-05       4091.587496
        1.236e-05       4091.587496
        1.238e-05       4091.587496
         1.24e-05       4090.192107
        1.242e-05       4090.192107
        1.244e-05       4090.192107
        1.246e-05       4090.192107
        1.248e-05       4090.192107
         1.25e-05       4088.900213
        1.252e-05       4088.900213
        1.254e-05       4088.900213
        1.256e-05       4088.900213
        1.258e-05       4088.900213
         1.26e-05       4087.788755
        1.262e-05       4087.788755
        1.264e-05       4087.788755
        1.266e-05       4087.788755
        1.268e-05       4087.788755
         1.27e-05       4086.688586
        1.272e-05       4086.688586
        1.274e-05       4086.688586
        1.276e-05       4086.688586
        1.278e-05       4086.688586
         1.28e-05       4085.262332
        1.282e-05       4085.262332
        1.284e-05       4085.262332
        1.286e-05       4085.262332
        1.288e-05       4085.262332
         1.29e-05       4083.887707
        1.292e-05       4083.887707
        1.294e-05       4083.887707
        1.296e-05       4083.887707
        1.298e-05       4083.887707
          1.3e-05       4082.641179
        1.302e-05       4082.641179
        1.304e-05       4082.641179
        1.306e-05       4082.641179
        1.308e-05       4082.641179
         1.31e-05       4081.676086
        1.312e-05       4081.676086
        1.314e-05       4081.676086
        1.316e-05       4081.676086
        1.318e-05       4081.676086
         1.32e-05       4080.663733
        1.322e-05       4080.663733
        1.324e-05       4080.663733
        1.326e-05       4080.663733
        1.328e-05       4080.663733
         1.33e-05       4079.342602
        1.332e-05       4079.342602
        1.334e-05       4079.342602
        1.336e-05       4079.342602
        1.338e-05       4079.342602
         1.34e-05       4078.148727
        1.342e-05       4078.148727
        1.344e-05       4078.148727
        1.346e-05       4078.148727
        1.348e-05       4078.148727
         1.35e-05       4077.151585
        1.352e-05       4077.151585
        1.354e-05       4077.151585
        1.356e-05       4077.151585
        1.358e-05       4077.151585
         1.36e-05        4075.98666
        1.362e-05        4075.98666
        1.364e-05        4075.98666
        1.366e-05        4075.98666
        1.368e-05        4075.98666
         1.37e-05       4074.927963
        1.372e-05       4074.927963
        1.374e-05       4074.927963
        1.376e-05       4074.927963
        1.378e-05       4074.927963
         1.38e-05       4073.660691
        1.382e-05       4073.660691
        1.384e-05       4073.660691
        1.386e-05       4073.660691
        1.388e-05       4073.660691
         1.39e-05       4072.510222
        1.392e-05       4072.510222
        1.394e-05       4072.510222
        1.396e-05       4072.510222
        1.398e-05       4072.510222
          1.4e-05       4071.359065
        1.402e-05       4071.359065
        1.404e-05       4071.359065
        1.406e-05       4071.359065
        1.408e-05       4071.359065
         1.41e-05       4070.133574
        1.412e-05       4070.133574
        1.414e-05       4070.133574
        1.416e-05       4070.133574
        1.418e-05       4070.133574
         1.42e-05       4069.131027
        1.422e-05       4069.131027
        1.424e-05       4069.131027
        1.426e-05       4069.131027
        1.428e-05       4069.131027
         1.43e-05       4068.186846
        1.432e-05       4068.186846
        1.434e-05       4068.186846
        1.436e-05       4068.186846
        1.438e-05       4068.186846
         1.44e-05        4066.96624
        1.442e-05        4066.96624
        1.444e-05        4066.96624
        1.446e-05        4066.96624
        1.448e-05        4066.96624
         1.45e-05       4065.586641
        1.452e-05       4065.586641
        1.454e-05       4065.586641
        1.456e-05       4065.586641
        1.458e-05       4065.586641
         1.46e-05       4064.461889
        1.462e-05       4064.461889
        1.464e-05       4064.461889
        1.466e-05       4064.461889
        1.468e-05       4064.461889
         1.47e-05       4063.399346
        1.472e-05       4063.399346
        1.474e-05       4063.399346
        1.476e-05       4063.399346
        1.478e-05       4063.399346
         1.48e-05       4062.126829
        1.482e-05       4062.126829
        1.484e-05       4062.126829
        1.486e-05       4062.126829
        1.488e-05       4062.126829
         1.49e-05       4061.033198
        1.492e-05       4061.033198
        1.494e-05       4061.033198
        1.496e-05       4061.033198
        1.498e-05       4061.033198
          1.5e-05        4059.86819
        1.502e-05        4059.86819
        1.504e-05        4059.86819
        1.506e-05        4059.86819
        1.508e-05        4059.86819
         1.51e-05       4058.574502
        1.512e-05       4058.574502
        1.514e-05       4058.574502
        1.516e-05       4058.574502
        1.518e-05       4058.574502
         1.52e-05       4057.735943
        1.522e-05       4057.735943
        1.524e-05       4057.735943
        1.526e-05       4057.735943
        1.528e-05       4057.735943
         1.53e-05       4056.832927
        1.532e-05       4056.832927
        1.534e-05       4056.832927
        1.536e-05       4056.832927
        1.538e-05       4056.832927
         1.54e-05        4055.69255
        1.542e-05        4055.69255
        1.544e-05        4055.69255
        1.546e-05        4055.69255
        1.548e-05        4055.69255
         1.55e-05        4054.46582
        1.552e-05        4054.46582
        1.554e-05        4054.46582
        1.556e-05        4054.46582
        1.558e-05        4054.46582
         1.56e-05       4053.077034
        1.562e-05       4053.077034
        1.564e-05       4053.077034
        1.566e-05       4053.077034
        1.568e-05       4053.077034
         1.57e-05       4052.046544
        1.572e-05       4052.046544
        1.574e-05       4052.046544
        1.576e-05       4052.046544
        1.578e-05       4052.046544
         1.58e-05       4050.906783
        1.582e-05       4050.906783
        1.584e-05       4050.906783
        1.586e-05       4050.906783
        1.588e-05       4050.906783
         1.59e-05       4049.769914
        1.592e-05       4049.769914
        1.594e-05       4049.769914
        1.596e-05       4049.769914
        1.598e-05       4049.769914
          1.6e-05       4048.838282
        1.602e-05       4048.838282
        1.604e-05       4048.838282
        1.606e-05       4048.838282
        1.608e-05       4048.838282
         1.61e-05        4047.80189
        1.612e-05        4047.80189
        1.614e-05        4047.80189
        1.616e-05        4047.80189
        1.618e-05        4047.80189
         1.62e-05       4046.738642
        1.622e-05       4046.738642
        1.624e-05       4046.738642
        1.626e-05       4046.738642
        1.628e-05       4046.738642
         1.63e-05       4045.725833
        1.632e-05       4045.725833
        1.634e-05       4045.725833
        1.636e-05       4045.725833
        1.638e-05       4045.725833
         1.64e-05       4044.772344
        1.642e-05       4044.772344
        1.644e-05       4044.772344
        1.646e-05       4044.772344
        1.648e-05       4044.772344
         1.65e-05       4043.883735
        1.652e-05       4043.883735
        1.654e-05       4043.883735
        1.656e-05       4043.883735
        1.658e-05       4043.883735
         1.66e-05       4042.710557
        1.662e-05       4042.710557