# Probe 0 (5e-06 5e-06 5e-06)
#           Probe                 0
#            Time
            2e-08                 0
            4e-08                 0
            6e-08                 0
            8e-08                 0
            1e-07       4986.492195
          1.2e-07       4986.492195
          1.4e-07       4986.492195
          1.6e-07       4986.492195
          1.8e-07       4986.492195
            2e-07       4982.171706
          2.2e-07       4982.171706
          2.4e-07       4982.171706
          2.6e-07       4982.171706
          2.8e-07       4982.171706
            3e-07        4981.74046
          3.2e-07        4981.74046
          3.4e-07        4981.74046
          3.6e-07        4981.74046
          3.8e-07        4981.74046
            4e-07       4961.704639
          4.2e-07       4961.704639
          4.4e-07       4961.704639
          4.6e-07       4961.704639
          4.8e-07       4961.704639
            5e-07       4955.480468
          5.2e-07       4955.480468
          5.4e-07       4955.480468
          5.6e-07       4955.480468
          5.8e-07       4955.480468
            6e-07       4949.137991
          6.2e-07       4949.137991
          6.4e-07       4949.137991
          6.6e-07       4949.137991
          6.8e-07       4949.137991
            7e-07       4959.831485
          7.2e-07       4959.831485
          7.4e-07       4959.831485
          7.6e-07       4959.831485
          7.8e-07       4959.831485
            8e-07       4945.718737
          8.2e-07       4945.718737
          8.4e-07       4945.718737
          8.6e-07       4945.718737
          8.8e-07       4945.718737
            9e-07       4944.577428
          9.2e-07       4944.577428
          9.4e-07       4944.577428
          9.6e-07       4944.577428
          9.8e-07       4944.577428
            1e-06       4928.482335
         1.02e-06       4928.482335
         1.04e-06       4928.482335
         1.06e-06       4928.482335
         1.08e-06       4928.482335
          1.1e-06       4928.739427
         1.12e-06       4928.739427
         1.14e-06       4928.739427
         1.16e-06       4928.739427
         1.18e-06       4928.739427
          1.2e-06       4926.505456
         1.22e-06       4926.505456
         1.24e-06       4926.505456
         1.26e-06       4926.505456
         1.28e-06       4926.505456
          1.3e-06       4922.978716
         1.32e-06       4922.978716
         1.34e-06       4922.978716
         1.36e-06       4922.978716
         1.38e-06       4922.978716
          1.4e-06       4905.542564
         1.42e-06       4905.542564
         1.44e-06       4905.542564
         1.46e-06       4905.542564
         1.48e-06       4905.542564
          1.5e-06       4908.499483
         1.52e-06       4908.499483
         1.54e-06       4908.499483
         1.56e-06       4908.499483
         1.58e-06       4908.499483
          1.6e-06       4899.276046
         1.62e-06       4899.276046
         1.64e-06       4899.276046
         1.66e-06       4899.276046
         1.68e-06       4899.276046
          1.7e-06       4896.018433
         1.72e-06       4896.018433
         1.74e-06       4896.018433
         1.76e-06       4896.018433
         1.78e-06       4896.018433
          1.8e-06       4876.913199
         1.82e-06       4876.913199
         1.84e-06       4876.913199
         1.86e-06       4876.913199
         1.88e-06       4876.913199
          1.9e-06       4879.011424
         1.92e-06       4879.011424
         1.94e-06       4879.011424
         1.96e-06       4879.011424
         1.98e-06       4879.011424
            2e-06       4881.876492
         2.02e-06       4881.876492
         2.04e-06       4881.876492
         2.06e-06       4881.876492
         2.08e-06       4881.876492
          2.1e-06       4878.271426
         2.12e-06       4878.271426
         2.14e-06       4878.271426
         2.16e-06       4878.271426
         2.18e-06       4878.271426
          2.2e-06       4873.748038
         2.22e-06       4873.748038
         2.24e-06       4873.748038
         2.26e-06       4873.748038
         2.28e-06       4873.748038
          2.3e-06       4876.683103
         2.32e-06       4876.683103
         2.34e-06       4876.683103
         2.36e-06       4876.683103
         2.38e-06       4876.683103
          2.4e-06       4869.648946
         2.42e-06       4869.648946
         2.44e-06       4869.648946
         2.46e-06       4869.648946
         2.48e-06       4869.648946
          2.5e-06       4849.796463
         2.52e-06       4849.796463
         2.54e-06       4849.796463
         2.56e-06       4849.796463
         2.58e-06       4849.796463
          2.6e-06       4839.855227
         2.62e-06       4839.855227
         2.64e-06       4839.855227
         2.66e-06       4839.855227
         2.68e-06       4839.855227
          2.7e-06       4842.712679
         2.72e-06       4842.712679
         2.74e-06       4842.712679
         2.76e-06       4842.712679
         2.78e-06       4842.712679
          2.8e-06       4848.443178
         2.82e-06       4848.443178
         2.84e-06       4848.443178
         2.86e-06       4848.443178
         2.88e-06       4848.443178
          2.9e-06        4842.05302
         2.92e-06        4842.05302
         2.94e-06        4842.05302
         2.96e-06        4842.05302
         2.98e-06        4842.05302
            3e-06       4826.461873
         3.02e-06       4826.461873
         3.04e-06       4826.461873
         3.06e-06       4826.461873
         3.08e-06       4826.461873
          3.1e-06       4840.549207
         3.12e-06       4840.549207
         3.14e-06       4840.549207
         3.16e-06       4840.549207
         3.18e-06       4840.549207
          3.2e-06       4833.047509
         3.22e-06       4833.047509
         3.24e-06       4833.047509
         3.26e-06       4833.047509
         3.28e-06       4833.047509
          3.3e-06       4830.358381
         3.32e-06       4830.358381
         3.34e-06       4830.358381
         3.36e-06       4830.358381
         3.38e-06       4830.358381
          3.4e-06       4807.025151
         3.42e-06       4807.025151
         3.44e-06       4807.025151
         3.46e-06       4807.025151
         3.48e-06       4807.025151
          3.5e-06       4804.570138
         3.52e-06       4804.570138
         3.54e-06       4804.570138
         3.56e-06       4804.570138
         3.58e-06       4804.570138
          3.6e-06       4800.304562
         3.62e-06       4800.304562
         3.64e-06       4800.304562
         3.66e-06       4800.304562
         3.68e-06       4800.304562
          3.7e-06       4799.946682
         3.72e-06       4799.946682
         3.74e-06       4799.946682
         3.76e-06       4799.946682
         3.78e-06       4799.946682
          3.8e-06       4791.700792
         3.82e-06       4791.700792
         3.84e-06       4791.700792
         3.86e-06       4791.700792
         3.88e-06       4791.700792
          3.9e-06       4797.582983
         3.92e-06       4797.582983
         3.94e-06       4797.582983
         3.96e-06       4797.582983
         3.98e-06       4797.582983
            4e-06       4792.763458
         4.02e-06       4792.763458
         4.04e-06       4792.763458
         4.06e-06       4792.763458
         4.08e-06       4792.763458
          4.1e-06       4783.880045
         4.12e-06       4783.880045
         4.14e-06       4783.880045
         4.16e-06       4783.880045
         4.18e-06       4783.880045
          4.2e-06       4790.239521
         4.22e-06       4790.239521
         4.24e-06       4790.239521
         4.26e-06       4790.239521
         4.28e-06       4790.239521
          4.3e-06       4787.921749
         4.32e-06       4787.921749
         4.34e-06       4787.921749
         4.36e-06       4787.921749
         4.38e-06       4787.921749
          4.4e-06       4780.366751
         4.42e-06       4780.366751
         4.44e-06       4780.366751
         4.46e-06       4780.366751
         4.48e-06       4780.366751
          4.5e-06       4768.484674
         4.52e-06       4768.484674
         4.54e-06       4768.484674
         4.56e-06       4768.484674
         4.58e-06       4768.484674
          4.6e-06       4780.517346
         4.62e-06       4780.517346
         4.64e-06       4780.517346
         4.66e-06       4780.517346
         4.68e-06       4780.517346
          4.7e-06       4773.298281
         4.72e-06       4773.298281
         4.74e-06       4773.298281
         4.76e-06       4773.298281
         4.78e-06       4773.298281
          4.8e-06       4757.391803
         4.82e-06       4757.391803
         4.84e-06       4757.391803
         4.86e-06       4757.391803
         4.88e-06       4757.391803
          4.9e-06       4743.634374
         4.92e-06       4743.634374
         4.94e-06       4743.634374
         4.96e-06       4743.634374
         4.98e-06       4743.634374
            5e-06       4742.077882
         5.02e-06       4742.077882
         5.04e-06       4742.077882
         5.06e-06       4742.077882
         5.08e-06       4742.077882
          5.1e-06       4741.000192
         5.12e-06       4741.000192
         5.14e-06       4741.000192
         5.16e-06       4741.000192
         5.18e-06       4741.000192
          5.2e-06       4738.310609
         5.22e-06       4738.310609
         5.24e-06       4738.310609
         5.26e-06       4738.310609
         5.28e-06       4738.310609
          5.3e-06       4731.360709
         5.32e-06       4731.360709
         5.34e-06       4731.360709
         5.36e-06       4731.360709
         5.38e-06       4731.360709
          5.4e-06        4719.47806
         5.42e-06        4719.47806
         5.44e-06        4719.47806
         5.46e-06        4719.47806
         5.48e-06        4719.47806
          5.5e-06       4723.897876
         5.52e-06       4723.897876
         5.54e-06       4723.897876
         5.56e-06       4723.897876
         5.58e-06       4723.897876
          5.6e-06       4734.234618
         5.62e-06       4734.234618
         5.64e-06       4734.234618
         5.66e-06       4734.234618
         5.68e-06       4734.234618
          5.7e-06       4723.423566
         5.72e-06       4723.423566
         5.74e-06       4723.423566
         5.76e-06       4723.423566
         5.78e-06       4723.423566
          5.8e-06       4728.466442
         5.82e-06       4728.466442
         5.84e-06       4728.466442
         5.86e-06       4728.466442
         5.88e-06       4728.466442
          5.9e-06       4710.492041
         5.92e-06       4710.492041
         5.94e-06       4710.492041
         5.96e-06       4710.492041
         5.98e-06       4710.492041
            6e-06       4713.281887
         6.02e-06       4713.281887
         6.04e-06       4713.281887
         6.06e-06       4713.281887
         6.08e-06       4713.281887
          6.1e-06       4712.766419
         6.12e-06       4712.766419
         6.14e-06       4712.766419
         6.16e-06       4712.766419
         6.18e-06       4712.766419
          6.2e-06       4709.799493
         6.22e-06       4709.799493
         6.24e-06       4709.799493
         6.26e-06       4709.799493
         6.28e-06       4709.799493
          6.3e-06       4701.070081
         6.32e-06       4701.070081
         6.34e-06       4701.070081
         6.36e-06       4701.070081
         6.38e-06       4701.070081
          6.4e-06       4700.345998
         6.42e-06       4700.345998
         6.44e-06       4700.345998
         6.46e-06       4700.345998
         6.48e-06       4700.345998
          6.5e-06       4697.619747
         6.52e-06       4697.619747
         6.54e-06       4697.619747
         6.56e-06       4697.619747
         6.58e-06       4697.619747
          6.6e-06       4706.395695
         6.62e-06       4706.395695
         6.64e-06       4706.395695
         6.66e-06       4706.395695
         6.68e-06       4706.395695
          6.7e-06       4692.539846
         6.72e-06       4692.539846
         6.74e-06       4692.539846
         6.76e-06       4692.539846
         6.78e-06       4692.539846
          6.8e-06       4702.747763
         6.82e-06       4702.747763
         6.84e-06       4702.747763
         6.86e-06       4702.747763
         6.88e-06       4702.747763
          6.9e-06       4677.696417
         6.92e-06       4677.696417
         6.94e-06       4677.696417
         6.96e-06       4677.696417
         6.98e-06       4677.696417
            7e-06       4680.783703
         7.02e-06       4680.783703
         7.04e-06       4680.783703
         7.06e-06       4680.783703
         7.08e-06       4680.783703
          7.1e-06        4669.99484
         7.12e-06        4669.99484
         7.14e-06        4669.99484
         7.16e-06        4669.99484
         7.18e-06        4669.99484
          7.2e-06       4684.166856
         7.22e-06       4684.166856
         7.24e-06       4684.166856
         7.26e-06       4684.166856
         7.28e-06       4684.166856
          7.3e-06       4683.620352
         7.32e-06       4683.620352
         7.34e-06       4683.620352
         7.36e-06       4683.620352
         7.38e-06       4683.620352
          7.4e-06       4680.531025
         7.42e-06       4680.531025
         7.44e-06       4680.531025
         7.46e-06       4680.531025
         7.48e-06       4680.531025
          7.5e-06       4680.057707
         7.52e-06       4680.057707
         7.54e-06       4680.057707
         7.56e-06       4680.057707
         7.58e-06       4680.057707
          7.6e-06       4665.716646
         7.62e-06       4665.716646
         7.64e-06       4665.716646
         7.66e-06       4665.716646
         7.68e-06       4665.716646
          7.7e-06       4652.507906
         7.72e-06       4652.507906
         7.74e-06       4652.507906
         7.76e-06       4652.507906
         7.78e-06       4652.507906
          7.8e-06        4645.04908
         7.82e-06        4645.04908
         7.84e-06        4645.04908
         7.86e-06        4645.04908
         7.88e-06        4645.04908
          7.9e-06       4637.055233
         7.92e-06       4637.055233
         7.94e-06       4637.055233
         7.96e-06       4637.055233
         7.98e-06       4637.055233
            8e-06       4649.057354
         8.02e-06       4649.057354
         8.04e-06       4649.057354
         8.06e-06       4649.057354
         8.08e-06       4649.057354
          8.1e-06       4644.554248
         8.12e-06       4644.554248
         8.14e-06       4644.554248
         8.16e-06       4644.554248
         8.18e-06       4644.554248
          8.2e-06       4648.127219
         8.22e-06       4648.127219
         8.24e-06       4648.127219
         8.26e-06       4648.127219
         8.28e-06       4648.127219
          8.3e-06        4645.20949
         8.32e-06        4645.20949
         8.34e-06        4645.20949
         8.36e-06        4645.20949
         8.38e-06        4645.20949
          8.4e-06       4636.794312
         8.42e-06       4636.794312
         8.44e-06       4636.794312
         8.46e-06       4636.794312
         8.48e-06       4636.794312
          8.5e-06       4632.027643
         8.52e-06       4632.027643
         8.54e-06       4632.027643
         8.56e-06       4632.027643
         8.58e-06       4632.027643
          8.6e-06       4632.502586
         8.62e-06       4632.502586
         8.64e-06       4632.502586
         8.66e-06       4632.502586
         8.68e-06       4632.502586
          8.7e-06       4632.657452
         8.72e-06       4632.657452
         8.74e-06       4632.657452
         8.76e-06       4632.657452
         8.78e-06       4632.657452
          8.8e-06       4629.449421
         8.82e-06       4629.449421
         8.84e-06       4629.449421
         8.86e-06       4629.449421
         8.88e-06       4629.449421
          8.9e-06       4620.467334
         8.92e-06       4620.467334
         8.94e-06       4620.467334
         8.96e-06       4620.467334
         8.98e-06       4620.467334
            9e-06       4614.879813
         9.02e-06       4614.879813
         9.04e-06       4614.879813
         9.06e-06       4614.879813
         9.08e-06       4614.879813
          9.1e-06       4615.561356
         9.12e-06       4615.561356
         9.14e-06       4615.561356
         9.16e-06       4615.561356
         9.18e-06       4615.561356
          9.2e-06       4624.920315
         9.22e-06       4624.920315
         9.24e-06       4624.920315
         9.26e-06       4624.920315
         9.28e-06       4624.920315
          9.3e-06       4625.931207
         9.32e-06       4625.931207
         9.34e-06       4625.931207
         9.36e-06       4625.931207
         9.38e-06       4625.931207
          9.4e-06       4620.882642
         9.42e-06       4620.882642
         9.44e-06       4620.882642
         9.46e-06       4620.882642
         9.48e-06       4620.882642
          9.5e-06       4629.717425
         9.52e-06       4629.717425
         9.54e-06       4629.717425
         9.56e-06       4629.717425
         9.58e-06       4629.717425
          9.6e-06       4616.481642
         9.62e-06       4616.481642
         9.64e-06       4616.481642
         9.66e-06       4616.481642
         9.68e-06       4616.481642
          9.7e-06       4626.195538
         9.72e-06       4626.195538
         9.74e-06       4626.195538
         9.76e-06       4626.195538
         9.78e-06       4626.195538
          9.8e-06       4613.401373
         9.82e-06       4613.401373
         9.84e-06       4613.401373
         9.86e-06       4613.401373
         9.88e-06       4613.401373
          9.9e-06       4596.989826
         9.92e-06       4596.989826
         9.94e-06       4596.989826
         9.96e-06       4596.989826
         9.98e-06       4596.989826
            1e-05       4573.103338
        1.002e-05       4573.103338
        1.004e-05       4573.103338
        1.006e-05       4573.103338
        1.008e-05       4573.103338
         1.01e-05        4577.08405
        1.012e-05        4577.08405
        1.014e-05        4577.08405
        1.016e-05        4577.08405
        1.018e-05        4577.08405
         1.02e-05       4582.844212
        1.022e-05       4582.844212
        1.024e-05       4582.844212
        1.026e-05       4582.844212
        1.028e-05       4582.844212
         1.03e-05       4589.470562
        1.032e-05       4589.470562
        1.034e-05       4589.470562
        1.036e-05       4589.470562
        1.038e-05       4589.470562
         1.04e-05       4595.037477
        1.042e-05       4595.037477
        1.044e-05       4595.037477
        1.046e-05       4595.037477
        1.048e-05       4595.037477
         1.05e-05       4591.115134
        1.052e-05       4591.115134
        1.054e-05       4591.115134
        1.056e-05       4591.115134
        1.058e-05       4591.115134
         1.06e-05       4579.402364
        1.062e-05       4579.402364
        1.064e-05       4579.402364
        1.066e-05       4579.402364
        1.068e-05       4579.402364
         1.07e-05       4578.575431
        1.072e-05       4578.575431
        1.074e-05       4578.575431
        1.076e-05       4578.575431
        1.078e-05       4578.575431
         1.08e-05       4566.197368
        1.082e-05       4566.197368
        1.084e-05       4566.197368
        1.086e-05       4566.197368
        1.088e-05       4566.197368
         1.09e-05       4572.112146
        1.092e-05       4572.112146
        1.094e-05       4572.112146
        1.096e-05       4572.112146
        1.098e-05       4572.112146
          1.1e-05       4564.883545
        1.102e-05       4564.883545
        1.104e-05       4564.883545
        1.106e-05       4564.883545
        1.108e-05       4564.883545
         1.11e-05       4555.592779
        1.112e-05       4555.592779
        1.114e-05       4555.592779
        1.116e-05       4555.592779
        1.118e-05       4555.592779
         1.12e-05       4547.358665
        1.122e-05       4547.358665
        1.124e-05       4547.358665
        1.126e-05       4547.358665
        1.128e-05       4547.358665
         1.13e-05       4563.174471
        1.132e-05       4563.174471
        1.134e-05       4563.174471
        1.136e-05       4563.174471
        1.138e-05       4563.174471
         1.14e-05       4553.004276
        1.142e-05       4553.004276
        1.144e-05       4553.004276
        1.146e-05       4553.004276
        1.148e-05       4553.004276
         1.15e-05       4549.784427
        1.152e-05       4549.784427
        1.154e-05       4549.784427
        1.156e-05       4549.784427
        1.158e-05       4549.784427
         1.16e-05       4555.012181
        1.162e-05       4555.012181
        1.164e-05       4555.012181
        1.166e-05       4555.012181
        1.168e-05       4555.012181
         1.17e-05       4549.663018
        1.172e-05       4549.663018
        1.174e-05       4549.663018
        1.176e-05       4549.663018
        1.178e-05       4549.663018
         1.18e-05       4566.948832
        1.182e-05       4566.948832
        1.184e-05       4566.948832
        1.186e-05       4566.948832
        1.188e-05       4566.948832
         1.19e-05       4551.134128
        1.192e-05       4551.134128
        1.194e-05       4551.134128
        1.196e-05       4551.134128
        1.198e-05       4551.134128
          1.2e-05       4550.683433
        1.202e-05       4550.683433
        1.204e-05       4550.683433
        1.206e-05       4550.683433
        1.208e-05       4550.683433
         1.21e-05       4529.253308
        1.212e-05       4529.253308
        1.214e-05       4529.253308
        1.216e-05       4529.253308
        1.218e-05       4529.253308
         1.22e-05       4541.318535
        1.222e-05       4541.318535
        1.224e-05       4541.318535
        1.226e-05       4541.318535
        1.228e-05       4541.318535
         1.23e-05       4532.140308
        1.232e-05       4532.140308
        1.234e-05       4532.140308
        1.236e-05       4532.140308
        1.238e-05       4532.140308
         1.24e-05       4511.485317
        1.242e-05       4511.485317
        1.244e-05       4511.485317
        1.246e-05       4511.485317
        1.248e-05       4511.485317
         1.25e-05       4511.808713
        1.252e-05       4511.808713
        1.254e-05       4511.808713
        1.256e-05       4511.808713
        1.258e-05       4511.808713
         1.26e-05       4514.563737
        1.262e-05       4514.563737
        1.264e-05       4514.563737
        1.266e-05       4514.563737
        1.268e-05       4514.563737
         1.27e-05       4525.217187
        1.272e-05       4525.217187
        1.274e-05       4525.217187
        1.276e-05       4525.217187
        1.278e-05       4525.217187
         1.28e-05       4521.097433
        1.282e-05       4521.097433
        1.284e-05       4521.097433
        1.286e-05       4521.097433
        1.288e-05       4521.097433
         1.29e-05       4532.065353
        1.292e-05       4532.065353
        1.294e-05       4532.065353
        1.296e-05       4532.065353
        1.298e-05       4532.065353
          1.3e-05       4527.023204
        1.302e-05       4527.023204
        1.304e-05       4527.023204
        1.306e-05       4527.023204
        1.308e-05       4527.023204
         1.31e-05       4513.582715
        1.312e-05       4513.582715
        1.314e-05       4513.582715
        1.316e-05       4513.582715
        1.318e-05       4513.582715
         1.32e-05       4510.135025
        1.322e-05       4510.135025
        1.324e-05       4510.135025
        1.326e-05       4510.135025
        1.328e-05       4510.135025
         1.33e-05        4514.42569
        1.332e-05        4514.42569
        1.334e-05        4514.42569
        1.336e-05        4514.42569
        1.338e-05        4514.42569
         1.34e-05       4513.056523
        1.342e-05       4513.056523
        1.344e-05       4513.056523
        1.346e-05       4513.056523
        1.348e-05       4513.056523
         1.35e-05       4508.970142
        1.352e-05       4508.970142
        1.354e-05       4508.970142
        1.356e-05       4508.970142
        1.358e-05       4508.970142
         1.36e-05       4519.168443
        1.362e-05       4519.168443
        1.364e-05       4519.168443
        1.366e-05       4519.168443
        1.368e-05       4519.168443
         1.37e-05       4500.407723
        1.372e-05       4500.407723
        1.374e-05       4500.407723
        1.376e-05       4500.407723
        1.378e-05       4500.407723
         1.38e-05       4491.393057
        1.382e-05       4491.393057
        1.384e-05       4491.393057
        1.386e-05       4491.393057
        1.388e-05       4491.393057
         1.39e-05       4498.415776
        1.392e-05       4498.415776
        1.394e-05       4498.415776
        1.396e-05       4498.415776
        1.398e-05       4498.415776
          1.4e-05        4499.42957
        1.402e-05        4499.42957
        1.404e-05        4499.42957
        1.406e-05        4499.42957
        1.408e-05        4499.42957
         1.41e-05       4491.281198
        1.412e-05       4491.281198
        1.414e-05       4491.281198
        1.416e-05       4491.281198
        1.418e-05       4491.281198
         1.42e-05       4497.304951
        1.422e-05       4497.304951
        1.424e-05       4497.304951
        1.426e-05       4497.304951
        1.428e-05       4497.304951
         1.43e-05       4511.177096
        1.432e-05       4511.177096
        1.434e-05       4511.177096
        1.436e-05       4511.177096
        1.438e-05       4511.177096
         1.44e-05         4501.1117
        1.442e-05         4501.1117
        1.444e-05         4501.1117
        1.446e-05         4501.1117
        1.448e-05         4501.1117
         1.45e-05       4500.845906
        1.452e-05       4500.845906
        1.454e-05       4500.845906
        1.456e-05       4500.845906
        1.458e-05       4500.845906
         1.46e-05       4498.794196
        1.462e-05       4498.794196
        1.464e-05       4498.794196
        1.466e-05       4498.794196
        1.468e-05       4498.794196
         1.47e-05       4492.853248
        1.472e-05       4492.853248
        1.474e-05       4492.853248
        1.476e-05       4492.853248
        1.478e-05       4492.853248
         1.48e-05       4498.388798
        1.482e-05       4498.388798
        1.484e-05       4498.388798
        1.486e-05       4498.388798
        1.488e-05       4498.388798
         1.49e-05       4494.970039
        1.492e-05       4494.970039
        1.494e-05       4494.970039
        1.496e-05       4494.970039
        1.498e-05       4494.970039
          1.5e-05       4484.563534
        1.502e-05       4484.563534
        1.504e-05       4484.563534
        1.506e-05       4484.563534
        1.508e-05       4484.563534
         1.51e-05       4471.903898
        1.512e-05       4471.903898
        1.514e-05       4471.903898
        1.516e-05       4471.903898
        1.518e-05       4471.903898
         1.52e-05       4483.378079
        1.522e-05       4483.378079
        1.524e-05       4483.378079
        1.526e-05       4483.378079
        1.528e-05       4483.378079
         1.53e-05        4471.05019
        1.532e-05        4471.05019
        1.534e-05        4471.05019
        1.536e-05        4471.05019
        1.538e-05        4471.05019
         1.54e-05       4471.154037
        1.542e-05       4471.154037
        1.544e-05       4471.154037
        1.546e-05       4471.154037
        1.548e-05       4471.154037
         1.55e-05       4481.347094
        1.552e-05       4481.347094
        1.554e-05       4481.347094
        1.556e-05       4481.347094
        1.558e-05       4481.347094
         1.56e-05       4480.616481
        1.562e-05       4480.616481
        1.564e-05       4480.616481
        1.566e-05       4480.616481
        1.568e-05       4480.616481
         1.57e-05       4481.251924
        1.572e-05       4481.251924
        1.574e-05       4481.251924
        1.576e-05       4481.251924
        1.578e-05       4481.251924
         1.58e-05       4480.879278
        1.582e-05       4480.879278
        1.584e-05       4480.879278
        1.586e-05       4480.879278
        1.588e-05       4480.879278
         1.59e-05        4467.81134
        1.592e-05        4467.81134
        1.594e-05        4467.81134
        1.596e-05        4467.81134
        1.598e-05        4467.81134
          1.6e-05       4451.951695
        1.602e-05       4451.951695
        1.604e-05       4451.951695
        1.606e-05       4451.951695
        1.608e-05       4451.951695
         1.61e-05       4454.188373
        1.612e-05       4454.188373
        1.614e-05       4454.188373
        1.616e-05       4454.188373
        1.618e-05       4454.188373
         1.62e-05       4454.267803
        1.622e-05       4454.267803
        1.624e-05       4454.267803
        1.626e-05       4454.267803
        1.628e-05       4454.267803
         1.63e-05       4459.220149
        1.632e-05       4459.220149
        1.634e-05       4459.220149
        1.636e-05       4459.220149
        1.638e-05       4459.220149
         1.64e-05       4456.735687
        1.642e-05       4456.735687
        1.644e-05       4456.735687
        1.646e-05       4456.735687
        1.648e-05       4456.735687
         1.65e-05       4440.954453
        1.652e-05       4440.954453
        1.654e-05       4440.954453
        1.656e-05       4440.954453
        1.658e-05       4440.954453
         1.66e-05       4455.001804
        1.662e-05       4455.001804