# Probe 0 (5e-06 5e-06 5e-06)
#           Probe                 0
#            Time
            2e-08                 0
            4e-08                 0
            6e-08                 0
            8e-08                 0
            1e-07        526.490313
          1.2e-07        526.490313
          1.4e-07        526.490313
          1.6e-07        526.490313
          1.8e-07        526.490313
            2e-07       623.0389115
          2.2e-07       623.0389115
          2.4e-07       623.0389115
          2.6e-07       623.0389115
          2.8e-07       623.0389115
            3e-07       670.8358626
          3.2e-07       670.8358626
          3.4e-07       670.8358626
          3.6e-07       670.8358626
          3.8e-07       670.8358626
            4e-07       709.6547221
          4.2e-07       709.6547221
          4.4e-07       709.6547221
          4.6e-07       709.6547221
          4.8e-07       709.6547221
            5e-07       741.8321458
          5.2e-07       741.8321458
          5.4e-07       741.8321458
          5.6e-07       741.8321458
          5.8e-07       741.8321458
            6e-07       774.0184569
          6.2e-07       774.0184569
          6.4e-07       774.0184569
          6.6e-07       774.0184569
          6.8e-07       774.0184569
            7e-07       803.5987129
          7.2e-07       803.5987129
          7.4e-07       803.5987129
          7.6e-07       803.5987129
          7.8e-07       803.5987129
            8e-07       828.8668786
          8.2e-07       828.8668786
          8.4e-07       828.8668786
          8.6e-07       828.8668786
          8.8e-07       828.8668786
            9e-07       853.3730776
          9.2e-07       853.3730776
          9.4e-07       853.3730776
          9.6e-07       853.3730776
          9.8e-07       853.3730776
            1e-06       880.2494387
         1.02e-06       880.2494387
         1.04e-06       880.2494387
         1.06e-06       880.2494387
         1.08e-06       880.2494387
          1.1e-06       904.7990457
         1.12e-06       904.7990457
         1.14e-06       904.7990457
         1.16e-06       904.7990457
         1.18e-06       904.7990457
          1.2e-06       926.0478373
         1.22e-06       926.0478373
         1.24e-06       926.0478373
         1.26e-06       926.0478373
         1.28e-06       926.0478373
          1.3e-06       948.0063455
         1.32e-06       948.0063455
         1.34e-06       948.0063455
         1.36e-06       948.0063455
         1.38e-06       948.0063455
          1.4e-06       966.9645068
         1.42e-06       966.9645068
         1.44e-06       966.9645068
         1.46e-06       966.9645068
         1.48e-06       966.9645068
          1.5e-06       986.4677563
         1.52e-06       986.4677563
         1.54e-06       986.4677563
         1.56e-06       986.4677563
         1.58e-06       986.4677563
          1.6e-06       1005.442804
         1.62e-06       1005.442804
         1.64e-06       1005.442804
         1.66e-06       1005.442804
         1.68e-06       1005.442804
          1.7e-06       1026.252962
         1.72e-06       1026.252962
         1.74e-06       1026.252962
         1.76e-06       1026.252962
         1.78e-06       1026.252962
          1.8e-06       1045.080428
         1.82e-06       1045.080428
         1.84e-06       1045.080428
         1.86e-06       1045.080428
         1.88e-06       1045.080428
          1.9e-06       1061.818395
         1.92e-06       1061.818395
         1.94e-06       1061.818395
         1.96e-06       1061.818395
         1.98e-06       1061.818395
            2e-06       1078.867376
         2.02e-06       1078.867376
         2.04e-06       1078.867376
         2.06e-06       1078.867376
         2.08e-06       1078.867376
          2.1e-06       1096.331574
         2.12e-06       1096.331574
         2.14e-06       1096.331574
         2.16e-06       1096.331574
         2.18e-06       1096.331574
          2.2e-06       1113.073496
         2.22e-06       1113.073496
         2.24e-06       1113.073496
         2.26e-06       1113.073496
         2.28e-06       1113.073496
          2.3e-06         1130.8378
         2.32e-06         1130.8378
         2.34e-06         1130.8378
         2.36e-06         1130.8378
         2.38e-06         1130.8378
          2.4e-06       1147.770272
         2.42e-06       1147.770272
         2.44e-06       1147.770272
         2.46e-06       1147.770272
         2.48e-06       1147.770272
          2.5e-06       1163.262622
         2.52e-06       1163.262622
         2.54e-06       1163.262622
         2.56e-06       1163.262622
         2.58e-06       1163.262622
          2.6e-06       1178.020902
         2.62e-06       1178.020902
         2.64e-06       1178.020902
         2.66e-06       1178.020902
         2.68e-06       1178.020902
          2.7e-06       1192.317551
         2.72e-06       1192.317551
         2.74e-06       1192.317551
         2.76e-06       1192.317551
         2.78e-06       1192.317551
          2.8e-06       1207.961257
         2.82e-06       1207.961257
         2.84e-06       1207.961257
         2.86e-06       1207.961257
         2.88e-06       1207.961257
          2.9e-06       1222.394274
         2.92e-06       1222.394274
         2.94e-06       1222.394274
         2.96e-06       1222.394274
         2.98e-06       1222.394274
            3e-06       1235.873086
         3.02e-06       1235.873086
         3.04e-06       1235.873086
         3.06e-06       1235.873086
         3.08e-06       1235.873086
          3.1e-06       1249.662913
         3.12e-06       1249.662913
         3.14e-06       1249.662913
         3.16e-06       1249.662913
         3.18e-06       1249.662913
          3.2e-06       1263.427299
         3.22e-06       1263.427299
         3.24e-06       1263.427299
         3.26e-06       1263.427299
         3.28e-06       1263.427299
          3.3e-06       1275.010633
         3.32e-06       1275.010633
         3.34e-06       1275.010633
         3.36e-06       1275.010633
         3.38e-06       1275.010633
          3.4e-06       1288.673105
         3.42e-06       1288.673105
         3.44e-06       1288.673105
         3.46e-06       1288.673105
         3.48e-06       1288.673105
          3.5e-06       1302.035068
         3.52e-06       1302.035068
         3.54e-06       1302.035068
         3.56e-06       1302.035068
         3.58e-06       1302.035068
          3.6e-06       1316.277649
         3.62e-06       1316.277649
         3.64e-06       1316.277649
         3.66e-06       1316.277649
         3.68e-06       1316.277649
          3.7e-06       1329.285074
         3.72e-06       1329.285074
         3.74e-06       1329.285074
         3.76e-06       1329.285074
         3.78e-06       1329.285074
          3.8e-06       1342.279833
         3.82e-06       1342.279833
         3.84e-06       1342.279833
         3.86e-06       1342.279833
         3.88e-06       1342.279833
          3.9e-06       1356.535599
         3.92e-06       1356.535599
         3.94e-06       1356.535599
         3.96e-06       1356.535599
         3.98e-06       1356.535599
            4e-06       1370.179708
         4.02e-06       1370.179708
         4.04e-06       1370.179708
         4.06e-06       1370.179708
         4.08e-06       1370.179708
          4.1e-06       1382.363879
         4.12e-06       1382.363879
         4.14e-06       1382.363879
         4.16e-06       1382.363879
         4.18e-06       1382.363879
          4.2e-06        1393.94946
         4.22e-06        1393.94946
         4.24e-06        1393.94946
         4.26e-06        1393.94946
         4.28e-06        1393.94946
          4.3e-06       1405.929144
         4.32e-06       1405.929144
         4.34e-06       1405.929144
         4.36e-06       1405.929144
         4.38e-06       1405.929144
          4.4e-06       1418.066663
         4.42e-06       1418.066663
         4.44e-06       1418.066663
         4.46e-06       1418.066663
         4.48e-06       1418.066663
          4.5e-06       1429.542958
         4.52e-06       1429.542958
         4.54e-06       1429.542958
         4.56e-06       1429.542958
         4.58e-06       1429.542958
          4.6e-06       1441.473196
         4.62e-06       1441.473196
         4.64e-06       1441.473196
         4.66e-06       1441.473196
         4.68e-06       1441.473196
          4.7e-06       1451.952561
         4.72e-06       1451.952561
         4.74e-06       1451.952561
         4.76e-06       1451.952561
         4.78e-06       1451.952561
          4.8e-06       1463.887795
         4.82e-06       1463.887795
         4.84e-06       1463.887795
         4.86e-06       1463.887795
         4.88e-06       1463.887795
          4.9e-06       1474.097903
         4.92e-06       1474.097903
         4.94e-06       1474.097903
         4.96e-06       1474.097903
         4.98e-06       1474.097903
            5e-06       1485.763742
         5.02e-06       1485.763742
         5.04e-06       1485.763742
         5.06e-06       1485.763742
         5.08e-06       1485.763742
          5.1e-06       1497.450091
         5.12e-06       1497.450091
         5.14e-06       1497.450091
         5.16e-06       1497.450091
         5.18e-06       1497.450091
          5.2e-06       1508.696933
         5.22e-06       1508.696933
         5.24e-06       1508.696933
         5.26e-06       1508.696933
         5.28e-06       1508.696933
          5.3e-06       1520.345994
         5.32e-06       1520.345994
         5.34e-06       1520.345994
         5.36e-06       1520.345994
         5.38e-06       1520.345994
          5.4e-06       1532.507759
         5.42e-06       1532.507759
         5.44e-06       1532.507759
         5.46e-06       1532.507759
         5.48e-06       1532.507759
          5.5e-06       1543.980345
         5.52e-06       1543.980345
         5.54e-06       1543.980345
         5.56e-06       1543.980345
         5.58e-06       1543.980345
          5.6e-06       1554.496205
         5.62e-06       1554.496205
         5.64e-06       1554.496205
         5.66e-06       1554.496205
         5.68e-06       1554.496205
          5.7e-06       1565.308949
         5.72e-06       1565.308949
         5.74e-06       1565.308949
         5.76e-06       1565.308949
         5.78e-06       1565.308949
          5.8e-06       1574.164336
         5.82e-06       1574.164336
         5.84e-06       1574.164336
         5.86e-06       1574.164336
         5.88e-06       1574.164336
          5.9e-06       1583.083197
         5.92e-06       1583.083197
         5.94e-06       1583.083197
         5.96e-06       1583.083197
         5.98e-06       1583.083197
            6e-06       1592.948379
         6.02e-06       1592.948379
         6.04e-06       1592.948379
         6.06e-06       1592.948379
         6.08e-06       1592.948379
          6.1e-06       1603.924304
         6.12e-06       1603.924304
         6.14e-06       1603.924304
         6.16e-06       1603.924304
         6.18e-06       1603.924304
          6.2e-06       1614.812749
         6.22e-06       1614.812749
         6.24e-06       1614.812749
         6.26e-06       1614.812749
         6.28e-06       1614.812749
          6.3e-06       1624.568277
         6.32e-06       1624.568277
         6.34e-06       1624.568277
         6.36e-06       1624.568277
         6.38e-06       1624.568277
          6.4e-06        1633.11843
         6.42e-06        1633.11843
         6.44e-06        1633.11843
         6.46e-06        1633.11843
         6.48e-06        1633.11843
          6.5e-06       1640.780173
         6.52e-06       1640.780173
         6.54e-06       1640.780173
         6.56e-06       1640.780173
         6.58e-06       1640.780173
          6.6e-06       1648.993984
         6.62e-06       1648.993984
         6.64e-06       1648.993984
         6.66e-06       1648.993984
         6.68e-06       1648.993984
          6.7e-06       1658.429848
         6.72e-06       1658.429848
         6.74e-06       1658.429848
         6.76e-06       1658.429848
         6.78e-06       1658.429848
          6.8e-06       1667.409207
         6.82e-06       1667.409207
         6.84e-06       1667.409207
         6.86e-06       1667.409207
         6.88e-06       1667.409207
          6.9e-06       1676.761682
         6.92e-06       1676.761682
         6.94e-06       1676.761682
         6.96e-06       1676.761682
         6.98e-06       1676.761682
            7e-06       1686.496116
         7.02e-06       1686.496116
         7.04e-06       1686.496116
         7.06e-06       1686.496116
         7.08e-06       1686.496116
          7.1e-06       1696.563875
         7.12e-06       1696.563875
         7.14e-06       1696.563875
         7.16e-06       1696.563875
         7.18e-06       1696.563875
          7.2e-06       1704.588051
         7.22e-06       1704.588051
         7.24e-06       1704.588051
         7.26e-06       1704.588051
         7.28e-06       1704.588051
          7.3e-06       1714.224798
         7.32e-06       1714.224798
         7.34e-06       1714.224798
         7.36e-06       1714.224798
         7.38e-06       1714.224798
          7.4e-06       1722.667217
         7.42e-06       1722.667217
         7.44e-06       1722.667217
         7.46e-06       1722.667217
         7.48e-06       1722.667217
          7.5e-06       1730.786863
         7.52e-06       1730.786863
         7.54e-06       1730.786863
         7.56e-06       1730.786863
         7.58e-06       1730.786863
          7.6e-06       1738.066924
         7.62e-06       1738.066924
         7.64e-06       1738.066924
         7.66e-06       1738.066924
         7.68e-06       1738.066924
          7.7e-06       1747.005237
         7.72e-06       1747.005237
         7.74e-06       1747.005237
         7.76e-06       1747.005237
         7.78e-06       1747.005237
          7.8e-06       1756.478975
         7.82e-06       1756.478975
         7.84e-06       1756.478975
         7.86e-06       1756.478975
         7.88e-06       1756.478975
          7.9e-06       1763.719835
         7.92e-06       1763.719835
         7.94e-06       1763.719835
         7.96e-06       1763.719835
         7.98e-06       1763.719835
            8e-06       1771.282802
         8.02e-06       1771.282802
         8.04e-06       1771.282802
         8.06e-06       1771.282802
         8.08e-06       1771.282802
          8.1e-06       1778.765171
         8.12e-06       1778.765171
         8.14e-06       1778.765171
         8.16e-06       1778.765171
         8.18e-06       1778.765171
          8.2e-06       1786.424534
         8.22e-06       1786.424534
         8.24e-06       1786.424534
         8.26e-06       1786.424534
         8.28e-06       1786.424534
          8.3e-06       1795.365143
         8.32e-06       1795.365143
         8.34e-06       1795.365143
         8.36e-06       1795.365143
         8.38e-06       1795.365143
          8.4e-06       1803.960796
         8.42e-06       1803.960796
         8.44e-06       1803.960796
         8.46e-06       1803.960796
         8.48e-06       1803.960796
          8.5e-06       1812.125749
         8.52e-06       1812.125749
         8.54e-06       1812.125749
         8.56e-06       1812.125749
         8.58e-06       1812.125749
          8.6e-06       1820.414565
         8.62e-06       1820.414565
         8.64e-06       1820.414565
         8.66e-06       1820.414565
         8.68e-06       1820.414565
          8.7e-06       1828.995701
         8.72e-06       1828.995701
         8.74e-06       1828.995701
         8.76e-06       1828.995701
         8.78e-06       1828.995701
          8.8e-06       1836.151814
         8.82e-06       1836.151814
         8.84e-06       1836.151814
         8.86e-06       1836.151814
         8.88e-06       1836.151814
          8.9e-06       1844.408618
         8.92e-06       1844.408618
         8.94e-06       1844.408618
         8.96e-06       1844.408618
         8.98e-06       1844.408618
            9e-06       1853.069359
         9.02e-06       1853.069359
         9.04e-06       1853.069359
         9.06e-06       1853.069359
         9.08e-06       1853.069359
          9.1e-06       1862.122606
         9.12e-06       1862.122606
         9.14e-06       1862.122606
         9.16e-06       1862.122606
         9.18e-06       1862.122606
          9.2e-06        1869.90396
         9.22e-06        1869.90396
         9.24e-06        1869.90396
         9.26e-06        1869.90396
         9.28e-06        1869.90396
          9.3e-06       1879.202011
         9.32e-06       1879.202011
         9.34e-06       1879.202011
         9.36e-06       1879.202011
         9.38e-06       1879.202011
          9.4e-06       1887.063115
         9.42e-06       1887.063115
         9.44e-06       1887.063115
         9.46e-06       1887.063115
         9.48e-06       1887.063115
          9.5e-06       1894.460214
         9.52e-06       1894.460214
         9.54e-06       1894.460214
         9.56e-06       1894.460214
         9.58e-06       1894.460214
          9.6e-06       1902.757525
         9.62e-06       1902.757525
         9.64e-06       1902.757525
         9.66e-06       1902.757525
         9.68e-06       1902.757525
          9.7e-06        1911.10729
         9.72e-06        1911.10729
         9.74e-06        1911.10729
         9.76e-06        1911.10729
         9.78e-06        1911.10729
          9.8e-06       1918.973501
         9.82e-06       1918.973501
         9.84e-06       1918.973501
         9.86e-06       1918.973501
         9.88e-06       1918.973501
          9.9e-06       1926.862767
         9.92e-06       1926.862767
         9.94e-06       1926.862767
         9.96e-06       1926.862767
         9.98e-06       1926.862767
            1e-05       1935.491758
        1.002e-05       1935.491758
        1.004e-05       1935.491758
        1.006e-05       1935.491758
        1.008e-05       1935.491758
         1.01e-05        1942.95257
        1.012e-05        1942.95257
        1.014e-05        1942.95257
        1.016e-05        1942.95257
        1.018e-05        1942.95257
         1.02e-05       1949.293593
        1.022e-05       1949.293593
        1.024e-05       1949.293593
        1.026e-05       1949.293593
        1.028e-05       1949.293593
         1.03e-05       1954.965442
        1.032e-05       1954.965442
        1.034e-05       1954.965442
        1.036e-05       1954.965442
        1.038e-05       1954.965442
         1.04e-05       1961.504287
        1.042e-05       1961.504287
        1.044e-05       1961.504287
        1.046e-05       1961.504287
        1.048e-05       1961.504287
         1.05e-05       1967.807125
        1.052e-05       1967.807125
        1.054e-05       1967.807125
        1.056e-05       1967.807125
        1.058e-05       1967.807125
         1.06e-05       1975.939594
        1.062e-05       1975.939594
        1.064e-05       1975.939594
        1.066e-05       1975.939594
        1.068e-05       1975.939594
         1.07e-05       1982.975617
        1.072e-05       1982.975617
        1.074e-05       1982.975617
        1.076e-05       1982.975617
        1.078e-05       1982.975617
         1.08e-05       1990.031454
        1.082e-05       1990.031454
        1.084e-05       1990.031454
        1.086e-05       1990.031454
        1.088e-05       1990.031454
         1.09e-05       1998.380275
        1.092e-05       1998.380275
        1.094e-05       1998.380275
        1.096e-05       1998.380275
        1.098e-05       1998.380275
          1.1e-05       2005.945606
        1.102e-05       2005.945606
        1.104e-05       2005.945606
        1.106e-05       2005.945606
        1.108e-05       2005.945606
         1.11e-05       2011.948583
        1.112e-05       2011.948583
        1.114e-05       2011.948583
        1.116e-05       2011.948583
        1.118e-05       2011.948583
         1.12e-05       2018.393059
        1.122e-05       2018.393059
        1.124e-05       2018.393059
        1.126e-05       2018.393059
        1.128e-05       2018.393059
         1.13e-05       2027.112442
        1.132e-05       2027.112442
        1.134e-05       2027.112442
        1.136e-05       2027.112442
        1.138e-05       2027.112442
         1.14e-05        2032.27849
        1.142e-05        2032.27849
        1.144e-05        2032.27849
        1.146e-05        2032.27849
        1.148e-05        2032.27849
         1.15e-05       2039.089238
        1.152e-05       2039.089238
        1.154e-05       2039.089238
        1.156e-05       2039.089238
        1.158e-05       2039.089238
         1.16e-05       2045.052396
        1.162e-05       2045.052396
        1.164e-05       2045.052396
        1.166e-05       2045.052396
        1.168e-05       2045.052396
         1.17e-05       2051.136741
        1.172e-05       2051.136741
        1.174e-05       2051.136741
        1.176e-05       2051.136741
        1.178e-05       2051.136741
         1.18e-05       2056.664416
        1.182e-05       2056.664416
        1.184e-05       2056.664416
        1.186e-05       2056.664416
        1.188e-05       2056.664416
         1.19e-05       2064.216015
        1.192e-05       2064.216015
        1.194e-05       2064.216015
        1.196e-05       2064.216015
        1.198e-05       2064.216015
          1.2e-05       2070.627647
        1.202e-05       2070.627647
        1.204e-05       2070.627647
        1.206e-05       2070.627647
        1.208e-05       2070.627647
         1.21e-05       2077.010563
        1.212e-05       2077.010563
        1.214e-05       2077.010563
        1.216e-05       2077.010563
        1.218e-05       2077.010563
         1.22e-05       2083.369814
        1.222e-05       2083.369814
        1.224e-05       2083.369814
        1.226e-05       2083.369814
        1.228e-05       2083.369814
         1.23e-05       2089.750185
        1.232e-05       2089.750185
        1.234e-05       2089.750185
        1.236e-05       2089.750185
        1.238e-05       2089.750185
         1.24e-05       2095.898462
        1.242e-05       2095.898462
        1.244e-05       2095.898462
        1.246e-05       2095.898462
        1.248e-05       2095.898462
         1.25e-05       2101.686042
        1.252e-05       2101.686042
        1.254e-05       2101.686042
        1.256e-05       2101.686042
        1.258e-05       2101.686042
         1.26e-05        2106.68199
        1.262e-05        2106.68199
        1.264e-05        2106.68199
        1.266e-05        2106.68199
        1.268e-05        2106.68199
         1.27e-05       2111.626137
        1.272e-05       2111.626137
        1.274e-05       2111.626137
        1.276e-05       2111.626137
        1.278e-05       2111.626137
         1.28e-05       2118.059715
        1.282e-05       2118.059715
        1.284e-05       2118.059715
        1.286e-05       2118.059715
        1.288e-05       2118.059715
         1.29e-05        2124.26681
        1.292e-05        2124.26681
        1.294e-05        2124.26681
        1.296e-05        2124.26681
        1.298e-05        2124.26681
          1.3e-05       2129.970621
        1.302e-05       2129.970621
        1.304e-05       2129.970621
        1.306e-05       2129.970621
        1.308e-05       2129.970621
         1.31e-05       2134.424771
        1.312e-05       2134.424771
        1.314e-05       2134.424771
        1.316e-05       2134.424771
        1.318e-05       2134.424771
         1.32e-05       2139.075071
        1.322e-05       2139.075071
        1.324e-05       2139.075071
        1.326e-05       2139.075071
        1.328e-05       2139.075071
         1.33e-05       2145.172092
        1.332e-05       2145.172092
        1.334e-05       2145.172092
        1.336e-05       2145.172092
        1.338e-05       2145.172092
         1.34e-05       2150.663153
        1.342e-05       2150.663153
        1.344e-05       2150.663153
        1.346e-05       2150.663153
        1.348e-05       2150.663153
         1.35e-05       2155.356476
        1.352e-05       2155.356476
        1.354e-05       2155.356476
        1.356e-05       2155.356476
        1.358e-05       2155.356476
         1.36e-05       2160.798438
        1.362e-05       2160.798438
        1.364e-05       2160.798438
        1.366e-05       2160.798438
        1.368e-05       2160.798438
         1.37e-05       2165.788867
        1.372e-05       2165.788867
        1.374e-05       2165.788867
        1.376e-05       2165.788867
        1.378e-05       2165.788867
         1.38e-05       2171.768768
        1.382e-05       2171.768768
        1.384e-05       2171.768768
        1.386e-05       2171.768768
        1.388e-05       2171.768768
         1.39e-05       2177.213275
        1.392e-05       2177.213275
        1.394e-05       2177.213275
        1.396e-05       2177.213275
        1.398e-05       2177.213275
          1.4e-05       2182.704673
        1.402e-05       2182.704673
        1.404e-05       2182.704673
        1.406e-05       2182.704673
        1.408e-05       2182.704673
         1.41e-05       2188.523706
        1.412e-05       2188.523706
        1.414e-05       2188.523706
        1.416e-05       2188.523706
        1.418e-05       2188.523706
         1.42e-05       2193.379871
        1.422e-05       2193.379871
        1.424e-05       2193.379871
        1.426e-05       2193.379871
        1.428e-05       2193.379871
         1.43e-05       2197.948677
        1.432e-05       2197.948677
        1.434e-05       2197.948677
        1.436e-05       2197.948677
        1.438e-05       2197.948677
         1.44e-05       2203.854189
        1.442e-05       2203.854189
        1.444e-05       2203.854189
        1.446e-05       2203.854189
        1.448e-05       2203.854189
         1.45e-05       2210.558573
        1.452e-05       2210.558573
        1.454e-05       2210.558573
        1.456e-05       2210.558573
        1.458e-05       2210.558573
         1.46e-05       2216.065082
        1.462e-05       2216.065082
        1.464e-05       2216.065082
        1.466e-05       2216.065082
        1.468e-05       2216.065082
         1.47e-05       2221.289199
        1.472e-05       2221.289199
        1.474e-05       2221.289199
        1.476e-05       2221.289199
        1.478e-05       2221.289199
         1.48e-05         2227.5721
        1.482e-05         2227.5721
        1.484e-05         2227.5721
        1.486e-05         2227.5721
        1.488e-05         2227.5721
         1.49e-05       2232.983125
        1.492e-05       2232.983125
        1.494e-05       2232.983125
        1.496e-05       2232.983125
        1.498e-05       2232.983125
          1.5e-05       2238.799249
        1.502e-05       2238.799249
        1.504e-05       2238.799249
        1.506e-05       2238.799249
        1.508e-05       2238.799249
         1.51e-05       2245.275011
        1.512e-05       2245.275011
        1.514e-05       2245.275011
        1.516e-05       2245.275011
        1.518e-05       2245.275011
         1.52e-05       2249.497307
        1.522e-05       2249.497307
        1.524e-05       2249.497307
        1.526e-05       2249.497307
        1.528e-05       2249.497307
         1.53e-05       2254.017295
        1.532e-05       2254.017295
        1.534e-05       2254.017295
        1.536e-05       2254.017295
        1.538e-05       2254.017295
         1.54e-05       2259.834223
        1.542e-05       2259.834223
        1.544e-05       2259.834223
        1.546e-05       2259.834223
        1.548e-05       2259.834223
         1.55e-05       2266.074776
        1.552e-05       2266.074776
        1.554e-05       2266.074776
        1.556e-05       2266.074776
        1.558e-05       2266.074776
         1.56e-05       2273.134892
        1.562e-05       2273.134892
        1.564e-05       2273.134892
        1.566e-05       2273.134892
        1.568e-05       2273.134892
         1.57e-05       2278.464351
        1.572e-05       2278.464351
        1.574e-05       2278.464351
        1.576e-05       2278.464351
        1.578e-05       2278.464351
         1.58e-05       2284.354278
        1.582e-05       2284.354278
        1.584e-05       2284.354278
        1.586e-05       2284.354278
        1.588e-05       2284.354278
         1.59e-05       2290.241776
        1.592e-05       2290.241776
        1.594e-05       2290.241776
        1.596e-05       2290.241776
        1.598e-05       2290.241776
          1.6e-05       2295.105456
        1.602e-05       2295.105456
        1.604e-05       2295.105456
        1.606e-05       2295.105456
        1.608e-05       2295.105456
         1.61e-05       2300.529344
        1.612e-05       2300.529344
        1.614e-05       2300.529344
        1.616e-05       2300.529344
        1.618e-05       2300.529344
         1.62e-05       2306.087957
        1.622e-05       2306.087957
        1.624e-05       2306.087957
        1.626e-05       2306.087957
        1.628e-05       2306.087957
         1.63e-05       2311.444313
        1.632e-05       2311.444313
        1.634e-05       2311.444313
        1.636e-05       2311.444313
        1.638e-05       2311.444313
         1.64e-05        2316.47176
        1.642e-05        2316.47176
        1.644e-05        2316.47176
        1.646e-05        2316.47176
        1.648e-05        2316.47176
         1.65e-05        2321.21943
        1.652e-05        2321.21943
        1.654e-05        2321.21943
        1.656e-05        2321.21943
        1.658e-05        2321.21943
         1.66e-05       2327.394517
        1.662e-05       2327.394517