/*--------------------------------*- C++ -*----------------------------------*\
| =========                 |                                                 |
| \\      /  F ield         | OpenFOAM: The Open Source CFD Toolbox           |
|  \\    /   O peration     | Version:  v1612+-hyStrath                       |
|   \\  /    A nd           | Web:      www.OpenFOAM.com                      |
|    \\/     M anipulation  |                                                 |
\*---------------------------------------------------------------------------*/
FoamFile
{
    version     2.0;
    format      ascii;
    class       volVectorField;
    location    "0.0002";
    object      U;
}
// * * * * * * * * * * * * * * * * * * * * * * * * * * * * * * * * * * * * * //

dimensions      [0 1 -1 0 0 0 0];

internalField   nonuniform List<vector> 
120000
(
(2764.5 0.000494195 4.48915e-14)
(2764.5 0.000155239 -1.25574e-13)
(2764.5 7.49132e-05 -3.62897e-14)
(2764.5 4.63497e-05 -2.46962e-14)
(2764.5 3.15814e-05 3.36614e-14)
(2764.5 2.28459e-05 1.46933e-15)
(2764.5 1.72886e-05 2.88942e-14)
(2764.5 1.35558e-05 5.04745e-15)
(2764.5 1.09322e-05 -1.78195e-14)
(2764.5 9.01679e-06 1.80881e-15)
(2764.5 7.57852e-06 -2.84577e-14)
(2764.5 6.4687e-06 -9.26602e-15)
(2764.5 5.59674e-06 -6.07598e-15)
(2764.5 4.89763e-06 4.06322e-15)
(2764.5 4.33076e-06 -2.74154e-14)
(2764.5 3.86254e-06 1.8374e-14)
(2764.5 3.47206e-06 2.18018e-14)
(2764.5 3.14402e-06 5.72283e-15)
(2764.5 2.86452e-06 -4.50787e-15)
(2764.5 2.62555e-06 1.23956e-15)
(2764.5 2.41892e-06 8.39304e-15)
(2764.5 2.23882e-06 3.14777e-15)
(2764.5 2.08172e-06 1.75824e-14)
(2764.5 1.9436e-06 6.38103e-15)
(2764.5 1.82122e-06 -8.94397e-15)
(2764.5 1.71254e-06 -8.7336e-15)
(2764.5 1.61583e-06 -8.08009e-15)
(2764.5 1.52881e-06 -1.09998e-14)
(2764.5 1.45102e-06 -1.67859e-14)
(2764.5 1.38073e-06 3.38039e-15)
(2764.5 1.31676e-06 -5.45538e-15)
(2764.5 1.25893e-06 -5.41608e-15)
(2764.5 1.20655e-06 -8.80912e-15)
(2764.5 1.15816e-06 -5.47368e-15)
(2764.5 1.11417e-06 -2.06134e-15)
(2764.5 1.07428e-06 3.90041e-16)
(2764.5 1.03677e-06 -4.50468e-15)
(2764.5 1.00307e-06 1.54406e-15)
(2764.5 9.71358e-07 -4.84908e-15)
(2764.5 9.42487e-07 -2.61979e-15)
(2764.5 9.15347e-07 -3.41126e-15)
(2764.5 8.90348e-07 7.40467e-15)
(2764.5 8.67721e-07 5.29574e-15)
(2764.5 8.45857e-07 -2.19869e-15)
(2764.5 8.25902e-07 -6.58001e-15)
(2764.5 8.07219e-07 7.72371e-16)
(2764.5 7.89939e-07 3.56634e-15)
(2764.5 7.73894e-07 2.16193e-15)
(2764.5 7.58641e-07 -3.69736e-15)
(2764.5 7.44259e-07 -9.67553e-17)
(2764.5 7.31143e-07 6.33972e-16)
(2764.5 7.18998e-07 -1.33464e-15)
(2764.5 7.07156e-07 -4.60436e-15)
(2764.5 6.96437e-07 -6.18034e-15)
(2764.5 6.86263e-07 3.72473e-15)
(2764.5 6.76526e-07 3.07395e-15)
(2764.5 6.67734e-07 5.52091e-15)
(2764.5 6.59495e-07 -1.12688e-15)
(2764.5 6.51623e-07 6.24195e-16)
(2764.5 6.43964e-07 -3.76048e-15)
(2764.5 6.37296e-07 4.9442e-15)
(2764.5 6.30744e-07 -7.62562e-16)
(2764.5 6.24679e-07 -3.67725e-15)
(2764.5 6.19198e-07 3.91823e-16)
(2764.5 6.13812e-07 3.26657e-15)
(2764.5 6.08933e-07 2.85406e-15)
(2764.5 6.04303e-07 3.22454e-15)
(2764.5 5.99905e-07 3.77784e-15)
(2764.5 5.95974e-07 9.90988e-16)
(2764.5 5.92386e-07 -1.93124e-15)
(2764.5 5.88867e-07 -2.44911e-15)
(2764.5 5.85517e-07 -2.07669e-15)
(2764.5 5.82673e-07 -1.36225e-15)
(2764.5 5.80167e-07 -2.77927e-15)
(2764.5 5.77749e-07 2.54828e-15)
(2764.5 5.75255e-07 4.76681e-15)
(2764.5 5.73312e-07 -2.55413e-15)
(2764.5 5.71633e-07 -3.38133e-15)
(2764.5 5.69792e-07 -2.38379e-15)
(2764.5 5.68519e-07 1.99445e-15)
(2764.5 5.67244e-07 -1.12874e-16)
(2764.5 5.66107e-07 2.07489e-15)
(2764.5 5.65184e-07 1.81228e-15)
(2764.5 5.64617e-07 -1.57716e-16)
(2764.5 5.64108e-07 1.01202e-15)
(2764.5 5.63811e-07 5.20894e-16)
(2764.5 5.6355e-07 3.96813e-15)
(2764.5 5.63382e-07 -6.44451e-16)
(2764.5 5.63488e-07 -5.18057e-16)
(2764.5 5.63657e-07 2.2635e-15)
(2764.5 5.64065e-07 1.26163e-15)
(2764.5 5.64534e-07 -9.55192e-16)
(2764.5 5.65132e-07 -3.29042e-16)
(2764.5 5.65982e-07 1.85834e-15)
(2764.5 5.66767e-07 7.36354e-16)
(2764.5 5.6786e-07 1.78587e-15)
(2764.5 5.69005e-07 -5.41883e-17)
(2764.5 5.70262e-07 1.39458e-15)
(2764.5 5.71665e-07 4.26989e-15)
(2764.5 5.73257e-07 -8.73419e-16)
(2764.5 5.74946e-07 -4.62137e-15)
(2764.5 5.76743e-07 1.42396e-15)
(2764.5 5.78608e-07 4.89293e-15)
(2764.5 5.80618e-07 1.87825e-15)
(2764.5 5.82836e-07 -7.07138e-17)
(2764.5 5.85109e-07 -3.87235e-15)
(2764.5 5.87512e-07 -3.54731e-15)
(2764.5 5.90052e-07 -1.22235e-15)
(2764.5 5.92727e-07 -1.68677e-15)
(2764.5 5.95535e-07 6.41523e-16)
(2764.5 5.98395e-07 1.46992e-15)
(2764.5 6.01468e-07 -8.88701e-16)
(2764.5 6.04647e-07 -7.73918e-16)
(2764.5 6.07931e-07 5.67844e-16)
(2764.5 6.11287e-07 1.12108e-15)
(2764.5 6.14859e-07 -3.5513e-16)
(2764.5 6.18644e-07 -9.98119e-16)
(2764.5 6.22506e-07 3.76659e-16)
(2764.5 6.26529e-07 -3.37202e-15)
(2764.5 6.30697e-07 -2.29747e-15)
(2764.5 6.34962e-07 3.68681e-15)
(2764.5 6.39416e-07 1.6475e-15)
(2764.5 6.43911e-07 -2.12983e-16)
(2764.5 6.48705e-07 -9.30096e-16)
(2764.5 6.53518e-07 -1.04802e-15)
(2764.5 6.58444e-07 -2.67743e-15)
(2764.5 6.63537e-07 2.0821e-16)
(2764.5 6.68769e-07 4.3032e-15)
(2764.5 6.74171e-07 3.52435e-15)
(2764.5 6.79767e-07 -1.24574e-15)
(2764.5 6.85589e-07 -2.9993e-15)
(2764.5 6.91712e-07 -1.84023e-15)
(2764.5 6.9835e-07 -4.70033e-16)
(2764.5 7.03466e-07 1.31148e-15)
(2764.5 7.13901e-07 -2.60339e-15)
(2764.5 7.14905e-07 -5.15518e-15)
(2764.5 7.26421e-07 4.68345e-15)
(2764.5 7.26351e-07 2.36437e-14)
(2764.5 7.41636e-07 -1.30766e-14)
(2764.5 7.40749e-07 -1.21781e-14)
(2764.5 7.57067e-07 7.47298e-15)
(2764.5 7.59549e-07 -1.63674e-14)
(2764.5 7.70602e-07 1.80391e-14)
(2764.5 7.76608e-07 -4.40867e-15)
(2764.5 7.86169e-07 1.48097e-14)
(2764.5 7.94492e-07 -5.24415e-15)
(2764.5 8.04256e-07 -2.3518e-15)
(2764.5 8.13415e-07 7.54325e-15)
(2764.5 8.23036e-07 -3.9143e-15)
(2764.5 8.33133e-07 4.92655e-15)
(2764.5 8.42823e-07 -4.36705e-15)
(2764.5 8.53537e-07 7.44841e-15)
(2764.5 8.64056e-07 -1.85025e-15)
(2764.5 8.75084e-07 4.93111e-15)
(2764.5 8.86331e-07 -1.43378e-15)
(2764.5 8.98202e-07 -6.67144e-16)
(2764.5 9.09824e-07 1.42422e-15)
(2764.5 9.22537e-07 -1.17497e-15)
(2764.5 9.34975e-07 4.87296e-15)
(2764.5 9.48187e-07 -3.19892e-16)
(2764.5 9.61484e-07 -5.55287e-16)
(2764.5 9.75347e-07 4.41777e-15)
(2764.5 9.89794e-07 2.01685e-15)
(2764.5 1.00416e-06 -2.79222e-15)
(2764.5 1.01944e-06 3.88392e-15)
(2764.5 1.03489e-06 -2.80363e-15)
(2764.5 1.05078e-06 1.79919e-15)
(2764.5 1.06761e-06 -6.99419e-16)
(2764.5 1.08392e-06 3.36314e-16)
(2764.5 1.10245e-06 -3.05842e-15)
(2764.5 1.11939e-06 5.58331e-15)
(2764.5 1.13925e-06 -2.32281e-15)
(2764.5 1.1572e-06 -3.82086e-15)
(2764.5 1.17811e-06 -1.53769e-15)
(2764.5 1.19795e-06 -2.83354e-15)
(2764.5 1.21915e-06 -6.88964e-16)
(2764.5 1.24037e-06 7.133e-15)
(2764.5 1.26377e-06 -3.54727e-16)
(2764.5 1.28587e-06 -1.00908e-15)
(2764.5 1.31189e-06 4.03926e-15)
(2764.5 1.33529e-06 5.9072e-15)
(2764.5 1.3618e-06 -3.24956e-15)
(2764.5 1.38792e-06 -5.95159e-17)
(2764.5 1.4164e-06 -2.56388e-15)
(2764.5 1.44235e-06 -2.03761e-15)
(2764.5 1.47382e-06 -3.19958e-16)
(2764.5 1.50378e-06 -2.25778e-15)
(2764.5 1.53385e-06 -1.41742e-15)
(2764.5 1.5705e-06 4.69869e-15)
(2764.5 1.59581e-06 3.19862e-15)
(2764.5 1.6485e-06 1.66162e-15)
(2764.5 1.65732e-06 -2.57331e-15)
(2764.5 1.72169e-06 1.9606e-15)
(2764.5 1.83242e-06 4.68413e-15)
(2764.5 0.0015848 2.65431e-13)
(2764.5 0.000586566 8.22585e-14)
(2764.5 0.000268808 3.12639e-14)
(2764.5 0.000156284 -6.08542e-14)
(2764.5 0.000103891 7.51317e-14)
(2764.5 7.45175e-05 4.6501e-15)
(2764.5 5.61719e-05 2.87645e-14)
(2764.5 4.39277e-05 4.58882e-15)
(2764.5 3.53519e-05 -4.75246e-15)
(2764.5 2.9109e-05 -2.35665e-14)
(2764.5 2.44293e-05 -5.2408e-14)
(2764.5 2.0825e-05 2.74287e-15)
(2764.5 1.79948e-05 8.87828e-15)
(2764.5 1.57292e-05 5.41194e-14)
(2764.5 1.38912e-05 -6.29151e-14)
(2764.5 1.23748e-05 -2.49264e-14)
(2764.5 1.11124e-05 1.47603e-14)
(2764.5 1.005e-05 4.17029e-15)
(2764.5 9.14648e-06 -9.03459e-15)
(2764.5 8.37201e-06 -3.89315e-14)
(2764.5 7.70468e-06 -3.62633e-14)
(2764.5 7.12293e-06 1.77466e-14)
(2764.5 6.61496e-06 3.00315e-14)
(2764.5 6.16745e-06 3.96193e-15)
(2764.5 5.77336e-06 -2.26235e-14)
(2764.5 5.42168e-06 -4.78867e-15)
(2764.5 5.10909e-06 -1.08937e-14)
(2764.5 4.82787e-06 -4.88447e-16)
(2764.5 4.57626e-06 -2.73713e-14)
(2764.5 4.34869e-06 1.95514e-14)
(2764.5 4.14295e-06 -1.34069e-15)
(2764.5 3.95524e-06 -1.46177e-14)
(2764.5 3.78549e-06 3.55888e-15)
(2764.5 3.63016e-06 5.43496e-15)
(2764.5 3.48773e-06 1.39244e-15)
(2764.5 3.35779e-06 -1.53841e-15)
(2764.5 3.2378e-06 -3.64203e-15)
(2764.5 3.12729e-06 -2.23894e-14)
(2764.5 3.02564e-06 -1.94638e-14)
(2764.5 2.93168e-06 -4.27038e-15)
(2764.5 2.84416e-06 9.73503e-16)
(2764.5 2.76341e-06 1.65783e-14)
(2764.5 2.68852e-06 -9.19988e-17)
(2764.5 2.61915e-06 -1.23147e-14)
(2764.5 2.55402e-06 -6.94175e-15)
(2764.5 2.49335e-06 8.20011e-15)
(2764.5 2.43713e-06 -1.00731e-15)
(2764.5 2.38459e-06 4.74899e-15)
(2764.5 2.33545e-06 -2.60569e-15)
(2764.5 2.28929e-06 -9.45226e-16)
(2764.5 2.24601e-06 -6.24571e-15)
(2764.5 2.20594e-06 -1.36822e-14)
(2764.5 2.168e-06 -1.7991e-14)
(2764.5 2.13261e-06 -5.11314e-15)
(2764.5 2.09942e-06 4.94021e-15)
(2764.5 2.06794e-06 1.67138e-15)
(2764.5 2.03862e-06 -1.71862e-15)
(2764.5 2.01135e-06 -1.16771e-14)
(2764.5 1.98561e-06 -1.56341e-14)
(2764.5 1.96116e-06 -1.41725e-14)
(2764.5 1.93822e-06 6.20986e-15)
(2764.5 1.91701e-06 -1.08871e-14)
(2764.5 1.89703e-06 -1.29451e-14)
(2764.5 1.87828e-06 -2.00253e-16)
(2764.5 1.86056e-06 9.99332e-15)
(2764.5 1.84422e-06 1.05892e-14)
(2764.5 1.82885e-06 3.4041e-15)
(2764.5 1.81429e-06 1.80645e-15)
(2764.5 1.80078e-06 -5.85992e-15)
(2764.5 1.78818e-06 -7.93251e-15)
(2764.5 1.77659e-06 -5.12095e-15)
(2764.5 1.76557e-06 -3.12026e-15)
(2764.5 1.75542e-06 -1.59028e-16)
(2764.5 1.74601e-06 1.86921e-15)
(2764.5 1.73773e-06 7.11393e-15)
(2764.5 1.72976e-06 4.36797e-15)
(2764.5 1.72238e-06 -4.14031e-15)
(2764.5 1.71587e-06 -6.2233e-15)
(2764.5 1.70982e-06 4.25217e-15)
(2764.5 1.70432e-06 6.88853e-15)
(2764.5 1.69968e-06 2.34303e-16)
(2764.5 1.69534e-06 1.20714e-14)
(2764.5 1.69161e-06 1.00199e-14)
(2764.5 1.68851e-06 3.55357e-16)
(2764.5 1.68575e-06 2.53783e-15)
(2764.5 1.6839e-06 5.90962e-15)
(2764.5 1.68234e-06 2.64624e-15)
(2764.5 1.68092e-06 -3.89893e-15)
(2764.5 1.6802e-06 -3.22369e-15)
(2764.5 1.67985e-06 -6.02377e-15)
(2764.5 1.68003e-06 -8.03713e-15)
(2764.5 1.68072e-06 -5.15734e-15)
(2764.5 1.68163e-06 -6.48153e-16)
(2764.5 1.683e-06 3.65989e-15)
(2764.5 1.68482e-06 -2.5433e-15)
(2764.5 1.68706e-06 -3.00408e-16)
(2764.5 1.68969e-06 7.62393e-16)
(2764.5 1.69259e-06 -6.27719e-17)
(2764.5 1.69592e-06 3.31205e-15)
(2764.5 1.69971e-06 -4.26072e-15)
(2764.5 1.704e-06 -4.25486e-15)
(2764.5 1.70851e-06 3.17022e-15)
(2764.5 1.71348e-06 1.42151e-15)
(2764.5 1.71878e-06 -2.22159e-15)
(2764.5 1.72436e-06 3.26672e-16)
(2764.5 1.73054e-06 -4.90938e-15)
(2764.5 1.73682e-06 -5.90503e-15)
(2764.5 1.74367e-06 -6.0569e-15)
(2764.5 1.75084e-06 -2.0027e-15)
(2764.5 1.75837e-06 1.69451e-15)
(2764.5 1.76629e-06 3.27639e-15)
(2764.5 1.77459e-06 -7.39466e-16)
(2764.5 1.78329e-06 -1.19566e-15)
(2764.5 1.79236e-06 2.14684e-15)
(2764.5 1.80182e-06 2.07005e-15)
(2764.5 1.81167e-06 -2.52379e-15)
(2764.5 1.82169e-06 -1.54158e-15)
(2764.5 1.8322e-06 -2.10703e-16)
(2764.5 1.84315e-06 -1.79427e-15)
(2764.5 1.85451e-06 3.20873e-15)
(2764.5 1.86623e-06 1.50789e-15)
(2764.5 1.87839e-06 1.77336e-16)
(2764.5 1.89076e-06 2.89457e-15)
(2764.5 1.90363e-06 -4.24462e-16)
(2764.5 1.91712e-06 -5.77892e-15)
(2764.5 1.93118e-06 -4.32869e-15)
(2764.5 1.94575e-06 7.45532e-16)
(2764.5 1.96074e-06 3.29705e-15)
(2764.5 1.97603e-06 -1.54705e-15)
(2764.5 1.99167e-06 -5.51826e-15)
(2764.5 2.00762e-06 -8.996e-16)
(2764.5 2.02383e-06 -5.88798e-16)
(2764.5 2.03829e-06 -3.99011e-15)
(2764.5 2.02925e-06 -1.06646e-14)
(2764.5 2.08414e-06 5.70388e-15)
(2764.5 2.08735e-06 1.1134e-14)
(2764.5 2.12434e-06 2.03361e-15)
(2764.5 2.13016e-06 -2.83661e-14)
(2764.5 2.15473e-06 1.01422e-13)
(2764.5 2.17549e-06 -4.66639e-14)
(2764.5 2.19566e-06 2.37452e-14)
(2764.5 2.21978e-06 -3.69194e-14)
(2764.5 2.23746e-06 1.19617e-15)
(2764.5 2.26562e-06 -1.43924e-14)
(2764.5 2.28596e-06 4.84125e-15)
(2764.5 2.31339e-06 9.77857e-15)
(2764.5 2.3353e-06 4.53401e-16)
(2764.5 2.36432e-06 1.17198e-14)
(2764.5 2.38764e-06 -1.06145e-14)
(2764.5 2.41865e-06 1.30712e-14)
(2764.5 2.44403e-06 1.71505e-16)
(2764.5 2.47439e-06 6.84772e-15)
(2764.5 2.50365e-06 -1.74842e-15)
(2764.5 2.5342e-06 -5.92052e-17)
(2764.5 2.56499e-06 3.53993e-15)
(2764.5 2.5981e-06 1.19474e-15)
(2764.5 2.62992e-06 1.11469e-15)
(2764.5 2.66465e-06 6.92629e-15)
(2764.5 2.69949e-06 3.41374e-15)
(2764.5 2.73475e-06 -3.7265e-16)
(2764.5 2.77266e-06 -7.04878e-16)
(2764.5 2.80961e-06 -1.98619e-15)
(2764.5 2.85e-06 8.93382e-16)
(2764.5 2.8886e-06 1.62921e-15)
(2764.5 2.93132e-06 4.09309e-15)
(2764.5 2.97303e-06 4.06115e-15)
(2764.5 3.01696e-06 -2.40226e-15)
(2764.5 3.06213e-06 -1.42423e-17)
(2764.5 3.10809e-06 -6.43556e-16)
(2764.5 3.15626e-06 -1.90053e-15)
(2764.5 3.20487e-06 3.09294e-15)
(2764.5 3.2556e-06 -2.57683e-15)
(2764.5 3.30782e-06 3.21071e-15)
(2764.5 3.36142e-06 -2.22402e-15)
(2764.5 3.4157e-06 -3.75435e-15)
(2764.5 3.47433e-06 1.13489e-15)
(2764.5 3.53071e-06 3.16959e-16)
(2764.5 3.59422e-06 1.08418e-15)
(2764.5 3.65223e-06 -3.825e-15)
(2764.5 3.72164e-06 -3.39064e-15)
(2764.5 3.7836e-06 -1.00442e-15)
(2764.5 3.8544e-06 2.56306e-15)
(2764.5 3.925e-06 7.46177e-15)
(2764.5 3.99705e-06 3.04339e-15)
(2764.5 4.07318e-06 3.58577e-16)
(2764.5 4.14975e-06 -3.08308e-15)
(2764.5 4.23282e-06 3.2643e-15)
(2764.5 4.3057e-06 5.36216e-15)
(2764.5 4.4103e-06 6.35048e-15)
(2764.5 4.4694e-06 2.16328e-15)
(2764.5 4.60409e-06 -4.01945e-15)
(2764.5 4.63616e-06 5.39163e-16)
(2764.5 4.79543e-06 3.99779e-15)
(2764.5 4.94876e-06 2.18346e-15)
(2764.5 0.00251546 3.44808e-13)
(2764.5 0.00107278 2.31174e-13)
(2764.5 0.000502977 -8.42899e-14)
(2764.5 0.000284915 -5.04936e-14)
(2764.5 0.000185656 6.84842e-14)
(2764.5 0.000131882 9.78784e-14)
(2764.5 9.89751e-05 -1.49189e-15)
(2764.5 7.72101e-05 9.39313e-15)
(2764.5 6.20336e-05 4.8919e-15)
(2764.5 5.10153e-05 -9.11054e-15)
(2764.5 4.2767e-05 2.45131e-14)
(2764.5 3.64255e-05 -2.34505e-14)
(2764.5 3.14491e-05 -5.83871e-15)
(2764.5 2.74695e-05 3.65066e-14)
(2764.5 2.42402e-05 -1.80187e-15)
(2764.5 2.15803e-05 -2.04458e-14)
(2764.5 1.93657e-05 2.99982e-14)
(2764.5 1.75011e-05 -4.27868e-15)
(2764.5 1.59173e-05 4.51776e-15)
(2764.5 1.45606e-05 -3.4473e-14)
(2764.5 1.3389e-05 -1.49609e-14)
(2764.5 1.23709e-05 1.91576e-14)
(2764.5 1.14813e-05 1.7437e-14)
(2764.5 1.0697e-05 5.98818e-15)
(2764.5 1.00057e-05 1.57151e-14)
(2764.5 9.38997e-06 2.71994e-14)
(2764.5 8.84192e-06 6.03771e-15)
(2764.5 8.35051e-06 -2.02628e-15)
(2764.5 7.90824e-06 5.4958e-15)
(2764.5 7.51016e-06 -1.49905e-14)
(2764.5 7.14975e-06 -1.70469e-15)
(2764.5 6.82163e-06 -2.50213e-14)
(2764.5 6.52377e-06 -1.76655e-14)
(2764.5 6.25125e-06 -1.3759e-14)
(2764.5 6.00212e-06 -1.51953e-14)
(2764.5 5.77343e-06 -5.70849e-15)
(2764.5 5.56413e-06 -1.1318e-15)
(2764.5 5.3705e-06 -8.99833e-15)
(2764.5 5.19191e-06 -1.1153e-15)
(2764.5 5.02704e-06 7.52094e-15)
(2764.5 4.87412e-06 -7.35278e-16)
(2764.5 4.73255e-06 6.53589e-15)
(2764.5 4.60072e-06 -7.96007e-15)
(2764.5 4.47867e-06 2.79384e-15)
(2764.5 4.36484e-06 1.4955e-14)
(2764.5 4.25832e-06 7.03228e-15)
(2764.5 4.15957e-06 2.64688e-14)
(2764.5 4.06676e-06 -6.16271e-16)
(2764.5 3.98039e-06 -4.79534e-15)
(2764.5 3.89955e-06 -2.87998e-15)
(2764.5 3.82343e-06 -4.00176e-15)
(2764.5 3.75242e-06 -7.49787e-15)
(2764.5 3.68591e-06 -1.07385e-14)
(2764.5 3.62349e-06 1.37267e-15)
(2764.5 3.565e-06 -1.19949e-14)
(2764.5 3.50933e-06 -1.83432e-15)
(2764.5 3.45782e-06 2.73565e-15)
(2764.5 3.40914e-06 -6.18635e-15)
(2764.5 3.36366e-06 -1.92174e-15)
(2764.5 3.32082e-06 -1.53665e-14)
(2764.5 3.28009e-06 5.82384e-15)
(2764.5 3.24215e-06 -9.79347e-15)
(2764.5 3.20648e-06 -1.07502e-14)
(2764.5 3.17318e-06 -1.22123e-16)
(2764.5 3.14183e-06 5.40475e-15)
(2764.5 3.11224e-06 4.79076e-15)
(2764.5 3.08471e-06 -3.6211e-15)
(2764.5 3.05879e-06 -4.00074e-15)
(2764.5 3.03459e-06 -1.0963e-14)
(2764.5 3.01165e-06 -1.43932e-14)
(2764.5 2.99052e-06 -7.47562e-15)
(2764.5 2.97101e-06 -5.37635e-15)
(2764.5 2.95255e-06 -7.24719e-15)
(2764.5 2.93522e-06 -1.17415e-14)
(2764.5 2.91969e-06 -6.6908e-15)
(2764.5 2.90511e-06 3.83754e-15)
(2764.5 2.89163e-06 5.16663e-16)
(2764.5 2.8792e-06 -1.26872e-15)
(2764.5 2.86808e-06 4.53871e-15)
(2764.5 2.85764e-06 -6.81609e-15)
(2764.5 2.84837e-06 -1.18919e-15)
(2764.5 2.84011e-06 8.90841e-16)
(2764.5 2.83266e-06 -5.18914e-15)
(2764.5 2.82614e-06 -8.94868e-15)
(2764.5 2.82051e-06 2.37771e-15)
(2764.5 2.81568e-06 8.21062e-15)
(2764.5 2.81215e-06 4.523e-15)
(2764.5 2.809e-06 -4.75942e-15)
(2764.5 2.80652e-06 -9.31064e-15)
(2764.5 2.8049e-06 8.93459e-16)
(2764.5 2.80414e-06 1.63245e-16)
(2764.5 2.80404e-06 -4.56192e-15)
(2764.5 2.80486e-06 -3.74039e-15)
(2764.5 2.80588e-06 3.37791e-15)
(2764.5 2.80803e-06 -1.09609e-15)
(2764.5 2.81061e-06 -1.7834e-15)
(2764.5 2.81411e-06 -5.77174e-15)
(2764.5 2.81792e-06 -8.81579e-16)
(2764.5 2.82265e-06 5.89625e-15)
(2764.5 2.82772e-06 2.29492e-15)
(2764.5 2.83379e-06 -1.72751e-16)
(2764.5 2.84031e-06 1.39734e-16)
(2764.5 2.84767e-06 -2.05191e-15)
(2764.5 2.85546e-06 4.20351e-15)
(2764.5 2.86379e-06 3.57256e-15)
(2764.5 2.87289e-06 -2.92992e-15)
(2764.5 2.88244e-06 -8.86296e-15)
(2764.5 2.89278e-06 -6.94276e-15)
(2764.5 2.90367e-06 -2.96868e-15)
(2764.5 2.91512e-06 7.09224e-16)
(2764.5 2.92741e-06 -1.70382e-15)
(2764.5 2.94008e-06 -7.2279e-15)
(2764.5 2.95345e-06 2.20218e-15)
(2764.5 2.96745e-06 4.93245e-15)
(2764.5 2.98217e-06 -1.80431e-15)
(2764.5 2.99746e-06 -2.82504e-15)
(2764.5 3.0132e-06 9.83048e-16)
(2764.5 3.02966e-06 -3.59501e-15)
(2764.5 3.04681e-06 -1.6452e-15)
(2764.5 3.06473e-06 -4.08631e-15)
(2764.5 3.08332e-06 -2.56328e-15)
(2764.5 3.10255e-06 4.10497e-15)
(2764.5 3.12251e-06 4.1851e-15)
(2764.5 3.14333e-06 4.00637e-16)
(2764.5 3.16366e-06 -1.80736e-15)
(2764.5 3.18486e-06 -2.41271e-15)
(2764.5 3.20689e-06 -1.98512e-15)
(2764.5 3.22989e-06 2.81279e-15)
(2764.5 3.25407e-06 -1.18625e-15)
(2764.5 3.27929e-06 -2.12769e-15)
(2764.5 3.30491e-06 -3.16942e-15)
(2764.5 3.33089e-06 -5.35097e-15)
(2764.5 3.356e-06 -1.7974e-15)
(2764.5 3.37625e-06 4.20524e-16)
(2764.5 3.4083e-06 2.05682e-15)
(2764.5 3.42054e-06 4.41433e-15)
(2764.5 3.48103e-06 -1.19317e-14)
(2764.5 3.4979e-06 -8.3832e-14)
(2764.5 3.51987e-06 1.22609e-13)
(2764.5 3.56532e-06 -3.37308e-14)
(2764.5 3.5922e-06 3.86609e-14)
(2764.5 3.63738e-06 -9.19491e-15)
(2764.5 3.66992e-06 -5.79524e-15)
(2764.5 3.70933e-06 -7.5829e-15)
(2764.5 3.74445e-06 -1.37331e-14)
(2764.5 3.78449e-06 2.28404e-15)
(2764.5 3.82123e-06 -5.9434e-15)
(2764.5 3.86527e-06 4.02005e-15)
(2764.5 3.9029e-06 -4.1503e-15)
(2764.5 3.94898e-06 1.32379e-14)
(2764.5 3.99091e-06 8.05853e-15)
(2764.5 4.0367e-06 3.02042e-15)
(2764.5 4.08293e-06 -3.90997e-15)
(2764.5 4.13099e-06 4.66663e-15)
(2764.5 4.17928e-06 -1.89403e-15)
(2764.5 4.23044e-06 3.08645e-16)
(2764.5 4.28118e-06 3.24295e-15)
(2764.5 4.33454e-06 -3.24826e-15)
(2764.5 4.38952e-06 -6.27698e-15)
(2764.5 4.44417e-06 -5.61177e-15)
(2764.5 4.5031e-06 2.89892e-15)
(2764.5 4.56087e-06 1.4925e-16)
(2764.5 4.62284e-06 2.1827e-15)
(2764.5 4.68397e-06 -8.90806e-16)
(2764.5 4.74881e-06 3.40845e-15)
(2764.5 4.81444e-06 1.86317e-15)
(2764.5 4.88202e-06 1.49222e-16)
(2764.5 4.95195e-06 -5.80403e-15)
(2764.5 5.02318e-06 -1.35385e-15)
(2764.5 5.09684e-06 2.37659e-15)
(2764.5 5.17271e-06 -5.79867e-15)
(2764.5 5.24995e-06 -6.18997e-15)
(2764.5 5.33059e-06 -1.7125e-15)
(2764.5 5.41228e-06 -2.86152e-15)
(2764.5 5.497e-06 -4.23167e-15)
(2764.5 5.58519e-06 -1.12977e-15)
(2764.5 5.67298e-06 -4.52465e-17)
(2764.5 5.76829e-06 -7.71532e-16)
(2764.5 5.85931e-06 -1.58952e-16)
(2764.5 5.9609e-06 -1.87721e-15)
(2764.5 6.05843e-06 -2.48153e-15)
(2764.5 6.16369e-06 2.69718e-15)
(2764.5 6.27195e-06 4.59673e-15)
(2764.5 6.37936e-06 1.079e-15)
(2764.5 6.49691e-06 1.77045e-15)
(2764.5 6.60736e-06 -2.69303e-16)
(2764.5 6.73913e-06 1.81646e-15)
(2764.5 6.84597e-06 5.04525e-15)
(2764.5 6.99981e-06 2.08808e-15)
(2764.5 7.09449e-06 -2.25541e-15)
(2764.5 7.28271e-06 2.78523e-15)
(2764.5 7.35458e-06 -2.2384e-15)
(2764.5 7.56363e-06 8.05259e-16)
(2764.5 7.76696e-06 2.43986e-15)
(2764.5 0.00325987 3.1261e-13)
(2764.5 0.00157133 5.75927e-14)
(2764.5 0.000770622 -1.30381e-14)
(2764.5 0.000433582 -8.71088e-14)
(2764.5 0.000278192 1.54339e-13)
(2764.5 0.000195557 9.28402e-14)
(2764.5 0.000145951 3.19818e-15)
(2764.5 0.000113522 -7.76704e-14)
(2764.5 9.10385e-05 -4.90437e-14)
(2764.5 7.47723e-05 -3.42259e-14)
(2764.5 6.26153e-05 1.16834e-14)
(2764.5 5.32863e-05 -3.73468e-14)
(2764.5 4.59703e-05 2.06299e-14)
(2764.5 4.01261e-05 1.14222e-14)
(2764.5 3.53837e-05 6.18641e-15)
(2764.5 3.14823e-05 -6.21967e-15)
(2764.5 2.82342e-05 1.49592e-14)
(2764.5 2.55007e-05 -2.19813e-14)
(2764.5 2.31788e-05 8.53026e-15)
(2764.5 2.1191e-05 -3.16829e-14)
(2764.5 1.94748e-05 -5.27504e-15)
(2764.5 1.79841e-05 3.80955e-15)
(2764.5 1.66793e-05 3.53356e-14)
(2764.5 1.55325e-05 1.70193e-14)
(2764.5 1.45193e-05 8.93999e-15)
(2764.5 1.3619e-05 2.76789e-14)
(2764.5 1.28154e-05 -1.06159e-14)
(2764.5 1.20961e-05 -3.34822e-14)
(2764.5 1.14488e-05 -2.08067e-14)
(2764.5 1.0866e-05 -2.44257e-14)
(2764.5 1.03374e-05 -5.40637e-15)
(2764.5 9.85799e-06 -9.48393e-15)
(2764.5 9.42088e-06 -1.56159e-14)
(2764.5 9.02258e-06 -3.10342e-16)
(2764.5 8.65736e-06 6.81361e-15)
(2764.5 8.32275e-06 -2.91181e-15)
(2764.5 8.01568e-06 8.05619e-15)
(2764.5 7.73216e-06 5.36144e-15)
(2764.5 7.47068e-06 -1.04054e-14)
(2764.5 7.22918e-06 3.24866e-15)
(2764.5 7.00528e-06 1.19252e-15)
(2764.5 6.79707e-06 5.08297e-15)
(2764.5 6.60456e-06 -1.34394e-15)
(2764.5 6.4253e-06 -6.51021e-15)
(2764.5 6.25835e-06 6.03596e-15)
(2764.5 6.10239e-06 1.5763e-14)
(2764.5 5.95716e-06 1.97785e-14)
(2764.5 5.82117e-06 -3.22334e-15)
(2764.5 5.69422e-06 1.91174e-15)
(2764.5 5.57516e-06 -3.58883e-15)
(2764.5 5.4636e-06 -6.15155e-15)
(2764.5 5.35928e-06 -1.21904e-14)
(2764.5 5.26114e-06 -1.01427e-14)
(2764.5 5.16921e-06 -5.36065e-15)
(2764.5 5.08316e-06 -1.3275e-14)
(2764.5 5.00166e-06 4.56129e-15)
(2764.5 4.92522e-06 1.56569e-14)
(2764.5 4.8534e-06 -2.24496e-16)
(2764.5 4.7862e-06 2.05895e-15)
(2764.5 4.72283e-06 -1.01593e-14)
(2764.5 4.66299e-06 -3.45095e-17)
(2764.5 4.60676e-06 -1.07066e-14)
(2764.5 4.5537e-06 -3.3156e-15)
(2764.5 4.5041e-06 -5.4676e-15)
(2764.5 4.45775e-06 3.09829e-15)
(2764.5 4.4137e-06 1.14906e-14)
(2764.5 4.37247e-06 -9.61356e-16)
(2764.5 4.33398e-06 6.95355e-15)
(2764.5 4.29753e-06 -5.94705e-15)
(2764.5 4.26359e-06 -4.59693e-15)
(2764.5 4.23167e-06 -4.42283e-15)
(2764.5 4.2019e-06 -1.27686e-15)
(2764.5 4.17428e-06 -9.14342e-15)
(2764.5 4.1482e-06 -2.65142e-15)
(2764.5 4.12425e-06 1.24184e-15)
(2764.5 4.10207e-06 3.27572e-15)
(2764.5 4.08131e-06 1.34154e-15)
(2764.5 4.06232e-06 -5.88086e-15)
(2764.5 4.04482e-06 -4.50881e-15)
(2764.5 4.02877e-06 -2.10198e-15)
(2764.5 4.01407e-06 -1.28173e-15)
(2764.5 4.00076e-06 -4.24336e-15)
(2764.5 3.98899e-06 -5.05317e-16)
(2764.5 3.97813e-06 6.60851e-15)
(2764.5 3.9689e-06 6.90696e-15)
(2764.5 3.96046e-06 7.90215e-15)
(2764.5 3.95369e-06 7.30513e-15)
(2764.5 3.94826e-06 -2.35737e-15)
(2764.5 3.94331e-06 4.33164e-15)
(2764.5 3.93967e-06 4.60091e-15)
(2764.5 3.93717e-06 -1.01084e-16)
(2764.5 3.93544e-06 -7.31106e-16)
(2764.5 3.93523e-06 5.36184e-15)
(2764.5 3.93562e-06 -2.95367e-16)
(2764.5 3.93718e-06 -7.84926e-15)
(2764.5 3.93942e-06 -6.77885e-15)
(2764.5 3.94286e-06 -1.80517e-15)
(2764.5 3.9471e-06 3.0518e-15)
(2764.5 3.95234e-06 1.59888e-15)
(2764.5 3.95824e-06 2.91146e-15)
(2764.5 3.9653e-06 -5.00908e-16)
(2764.5 3.97302e-06 -2.02575e-15)
(2764.5 3.98207e-06 -6.25561e-15)
(2764.5 3.99162e-06 -1.97045e-15)
(2764.5 4.00216e-06 1.89024e-15)
(2764.5 4.01339e-06 -5.81804e-15)
(2764.5 4.02566e-06 -3.43612e-15)
(2764.5 4.03859e-06 -2.45999e-15)
(2764.5 4.05262e-06 -4.50598e-15)
(2764.5 4.06726e-06 -2.34272e-15)
(2764.5 4.08296e-06 -2.84865e-15)
(2764.5 4.09942e-06 2.55761e-15)
(2764.5 4.11668e-06 3.86029e-15)
(2764.5 4.13492e-06 2.90764e-15)
(2764.5 4.15398e-06 -4.53994e-15)
(2764.5 4.17395e-06 -1.23882e-16)
(2764.5 4.19461e-06 -2.43733e-15)
(2764.5 4.21616e-06 7.8302e-16)
(2764.5 4.2386e-06 3.60671e-16)
(2764.5 4.26208e-06 1.23835e-15)
(2764.5 4.28638e-06 3.62424e-15)
(2764.5 4.31194e-06 7.38075e-16)
(2764.5 4.33814e-06 2.62106e-16)
(2764.5 4.36556e-06 1.72783e-15)
(2764.5 4.39374e-06 2.66034e-15)
(2764.5 4.42283e-06 -4.44832e-16)
(2764.5 4.45293e-06 4.57068e-15)
(2764.5 4.48368e-06 5.12775e-15)
(2764.5 4.51374e-06 -2.57042e-15)
(2764.5 4.54531e-06 -1.84995e-15)
(2764.5 4.57876e-06 -2.4575e-15)
(2764.5 4.61372e-06 -2.5734e-15)
(2764.5 4.64884e-06 -3.90885e-15)
(2764.5 4.68273e-06 -3.98133e-15)
(2764.5 4.71589e-06 -1.09176e-15)
(2764.5 4.71558e-06 5.90364e-15)
(2764.5 4.80822e-06 -8.66863e-15)
(2764.5 4.83288e-06 -9.41593e-14)
(2764.5 4.87148e-06 6.41455e-14)
(2764.5 4.92526e-06 4.5083e-15)
(2764.5 4.96073e-06 2.74017e-14)
(2764.5 5.01307e-06 2.36547e-14)
(2764.5 5.06181e-06 1.29686e-14)
(2764.5 5.11185e-06 -2.44914e-15)
(2764.5 5.16128e-06 -6.75098e-15)
(2764.5 5.2145e-06 -8.67689e-15)
(2764.5 5.26378e-06 -6.33265e-15)
(2764.5 5.32074e-06 -2.71586e-16)
(2764.5 5.37231e-06 6.80923e-16)
(2764.5 5.43082e-06 1.6915e-15)
(2764.5 5.48825e-06 5.95767e-15)
(2764.5 5.54794e-06 9.88944e-16)
(2764.5 5.60873e-06 3.5158e-15)
(2764.5 5.67231e-06 4.77585e-15)
(2764.5 5.7361e-06 4.71798e-15)
(2764.5 5.8026e-06 2.08632e-15)
(2764.5 5.87067e-06 -1.60449e-15)
(2764.5 5.93988e-06 6.93188e-15)
(2764.5 6.01253e-06 4.86933e-15)
(2764.5 6.08493e-06 -1.2367e-16)
(2764.5 6.16125e-06 9.48436e-16)
(2764.5 6.23795e-06 -9.73398e-16)
(2764.5 6.31819e-06 3.09605e-15)
(2764.5 6.39939e-06 -1.28724e-17)
(2764.5 6.4832e-06 -2.4057e-15)
(2764.5 6.56964e-06 -1.88303e-15)
(2764.5 6.6578e-06 4.24214e-15)
(2764.5 6.74896e-06 1.57975e-15)
(2764.5 6.84204e-06 1.70939e-15)
(2764.5 6.93775e-06 -2.30223e-15)
(2764.5 7.03663e-06 3.16493e-15)
(2764.5 7.13709e-06 -4.24147e-15)
(2764.5 7.24172e-06 -2.34827e-15)
(2764.5 7.34882e-06 -5.76751e-17)
(2764.5 7.45678e-06 7.63603e-16)
(2764.5 7.5711e-06 -2.67832e-15)
(2764.5 7.68577e-06 -8.15481e-15)
(2764.5 7.80682e-06 -5.48611e-16)
(2764.5 7.92701e-06 4.78803e-15)
(2764.5 8.05506e-06 -1.86911e-15)
(2764.5 8.18311e-06 8.23968e-16)
(2764.5 8.31701e-06 2.30947e-18)
(2764.5 8.45535e-06 -1.35528e-15)
(2764.5 8.59287e-06 5.5149e-16)
(2764.5 8.74324e-06 2.09381e-15)
(2764.5 8.88518e-06 2.14381e-15)
(2764.5 9.05089e-06 2.59886e-15)
(2764.5 9.19133e-06 3.00774e-15)
(2764.5 9.37867e-06 2.18694e-15)
(2764.5 9.51094e-06 3.18716e-15)
(2764.5 9.73298e-06 5.08153e-16)
(2764.5 9.84665e-06 -1.91401e-15)
(2764.5 1.00866e-05 -1.43299e-15)
(2764.5 1.0338e-05 1.85013e-15)
(2764.5 0.00385082 6.06459e-14)
(2764.5 0.00205543 6.52595e-14)
(2764.5 0.0010623 1.71542e-13)
(2764.5 0.000601766 -1.09022e-13)
(2764.5 0.000382382 4.86281e-14)
(2764.5 0.00026616 1.07696e-16)
(2764.5 0.000197398 6.41689e-15)
(2764.5 0.000152991 -8.90222e-16)
(2764.5 0.000122425 8.16222e-15)
(2764.5 0.000100409 -6.4238e-14)
(2764.5 8.39904e-05 -8.09349e-15)
(2764.5 7.14162e-05 3.14611e-14)
(2764.5 6.15626e-05 2.33744e-14)
(2764.5 5.37008e-05 -5.77717e-15)
(2764.5 4.73239e-05 -2.27983e-14)
(2764.5 4.20814e-05 -4.09429e-14)
(2764.5 3.77189e-05 2.67726e-15)
(2764.5 3.4048e-05 4.37321e-14)
(2764.5 3.09314e-05 -5.03536e-15)
(2764.5 2.82632e-05 -4.8131e-14)
(2764.5 2.59604e-05 -3.48911e-14)
(2764.5 2.39605e-05 -9.57594e-17)
(2764.5 2.22111e-05 2.67383e-14)
(2764.5 2.06722e-05 1.65499e-14)
(2764.5 1.93122e-05 3.20982e-14)
(2764.5 1.81057e-05 2.32748e-14)
(2764.5 1.70282e-05 -6.4261e-15)
(2764.5 1.60636e-05 -1.7862e-14)
(2764.5 1.5196e-05 -5.14567e-15)
(2764.5 1.44142e-05 1.95242e-14)
(2764.5 1.37059e-05 -1.27962e-14)
(2764.5 1.30628e-05 1.12909e-14)
(2764.5 1.24769e-05 -3.44196e-15)
(2764.5 1.19423e-05 -2.6102e-14)
(2764.5 1.14531e-05 9.72073e-15)
(2764.5 1.10042e-05 3.31763e-15)
(2764.5 1.0592e-05 1.94468e-14)
(2764.5 1.02124e-05 6.82794e-15)
(2764.5 9.86137e-06 -1.59168e-14)
(2764.5 9.53688e-06 -9.32051e-15)
(2764.5 9.23699e-06 -7.74164e-15)
(2764.5 8.95761e-06 -6.3782e-15)
(2764.5 8.69912e-06 -1.34271e-14)
(2764.5 8.45814e-06 -4.25639e-15)
(2764.5 8.23423e-06 6.17178e-15)
(2764.5 8.02486e-06 7.90083e-15)
(2764.5 7.82946e-06 -1.17779e-14)
(2764.5 7.64682e-06 9.54227e-15)
(2764.5 7.4764e-06 3.99725e-15)
(2764.5 7.31618e-06 -5.83301e-15)
(2764.5 7.16625e-06 -1.86668e-14)
(2764.5 7.02565e-06 -1.73446e-14)
(2764.5 6.89384e-06 -1.58607e-14)
(2764.5 6.76975e-06 -1.4446e-14)
(2764.5 6.65338e-06 -9.40426e-15)
(2764.5 6.54423e-06 1.38687e-15)
(2764.5 6.44079e-06 -1.80829e-15)
(2764.5 6.34417e-06 -1.9954e-14)
(2764.5 6.25288e-06 -9.7792e-15)
(2764.5 6.16737e-06 -8.13544e-15)
(2764.5 6.08666e-06 -1.56098e-14)
(2764.5 6.01041e-06 -6.32289e-15)
(2764.5 5.93871e-06 -2.22867e-15)
(2764.5 5.87126e-06 -1.19276e-14)
(2764.5 5.80802e-06 7.09491e-15)
(2764.5 5.74853e-06 -6.78106e-15)
(2764.5 5.69219e-06 4.65699e-15)
(2764.5 5.63963e-06 1.15614e-14)
(2764.5 5.59003e-06 8.40313e-15)
(2764.5 5.54344e-06 -1.64001e-15)
(2764.5 5.50003e-06 3.59457e-17)
(2764.5 5.45871e-06 8.6398e-15)
(2764.5 5.42077e-06 -5.38944e-15)
(2764.5 5.38495e-06 4.2375e-15)
(2764.5 5.35152e-06 1.6187e-15)
(2764.5 5.32061e-06 3.9246e-15)
(2764.5 5.29195e-06 -2.17616e-15)
(2764.5 5.26501e-06 -3.78688e-15)
(2764.5 5.24052e-06 4.90692e-15)
(2764.5 5.21772e-06 -3.28363e-16)
(2764.5 5.19702e-06 -6.82014e-15)
(2764.5 5.17778e-06 -1.64143e-15)
(2764.5 5.1605e-06 -2.49682e-16)
(2764.5 5.14489e-06 -2.96307e-15)
(2764.5 5.13098e-06 -3.9519e-15)
(2764.5 5.11842e-06 6.43118e-15)
(2764.5 5.10754e-06 2.26171e-15)
(2764.5 5.09864e-06 -3.56776e-15)
(2764.5 5.0908e-06 2.01192e-15)
(2764.5 5.08454e-06 1.3538e-15)
(2764.5 5.0794e-06 5.22317e-15)
(2764.5 5.07562e-06 -2.15152e-15)
(2764.5 5.07348e-06 -8.76665e-15)
(2764.5 5.07233e-06 -6.10532e-15)
(2764.5 5.07277e-06 -3.56157e-15)
(2764.5 5.07406e-06 -3.69445e-15)
(2764.5 5.07663e-06 -4.24671e-15)
(2764.5 5.08061e-06 -8.99888e-15)