/*--------------------------------*- C++ -*----------------------------------*\
| =========                 |                                                 |
| \\      /  F ield         | OpenFOAM: The Open Source CFD Toolbox           |
|  \\    /   O peration     | Version:  v1612+-hyStrath                       |
|   \\  /    A nd           | Web:      www.OpenFOAM.com                      |
|    \\/     M anipulation  |                                                 |
\*---------------------------------------------------------------------------*/
FoamFile
{
    version     2.0;
    format      ascii;
    class       volScalarField;
    location    "0.0002";
    object      wallHeatFlux;
}
// * * * * * * * * * * * * * * * * * * * * * * * * * * * * * * * * * * * * * //

dimensions      [1 0 -3 0 0 0 0];

internalField   uniform 0;

boundaryField
{
    cone
    {
        type            calculated;
        value           nonuniform List<scalar> 
600
(
1.16867e+06
1.16833e+06
1.16796e+06
1.16751e+06
1.16696e+06
1.16663e+06
1.16598e+06
1.16518e+06
1.16459e+06
1.1637e+06
1.16266e+06
1.16175e+06
1.16077e+06
1.15965e+06
1.15849e+06
1.15723e+06
1.1558e+06
1.15447e+06
1.15302e+06
1.15139e+06
1.1499e+06
1.14827e+06
1.14654e+06
1.1446e+06
1.14266e+06
1.1407e+06
1.13878e+06
1.13677e+06
1.13451e+06
1.13221e+06
1.13001e+06
1.12759e+06
1.12507e+06
1.12255e+06
1.11994e+06
1.1173e+06
1.11459e+06
1.11185e+06
1.1088e+06
1.1058e+06
1.10289e+06
1.09988e+06
1.09676e+06
1.09353e+06
1.09013e+06
1.08675e+06
1.08336e+06
1.08004e+06
1.07644e+06
1.07288e+06
1.06928e+06
1.06547e+06
1.06182e+06
1.05803e+06
1.05418e+06
1.05029e+06
1.04633e+06
1.04227e+06
1.03832e+06
1.03427e+06
1.02998e+06
1.02591e+06
1.0218e+06
1.01749e+06
1.01317e+06
1.00881e+06
1.00433e+06
999721
995948
990846
985321
981688
977034
973184
967494
961767
956615
952893
948620
943098
937119
932596
927527
921851
917878
911734
905813
900317
895867
890820
884432
878669
873694
868454
862851
856522
851033
846255
839750
834247
828942
822683
816751
811215
805120
799459
794066
788404
782376
775944
770038
764303
758790
752616
746307
740961
734976
728611
722720
717492
711557
705147
699128
693192
687443
681844
675602
669697
663696
657762
651910
646273
640311
634362
628005
622775
616928
610867
604820
599391
593511
587928
581944
576304
570636
564778
559118
553228
547824
542208
536405
531042
525523
519801
514516
508969
503495
497841
492630
487236
481716
476497
471128
465870
460730
455369
450253
445154
439957
434950
429741
424792
419812
414810
409837
405014
400201
395219
390505
385858
381104
376310
371776
367279
362568
358270
353828
349365
345247
340981
336963
332964
329102
325165
321496
318502
315666
313093
310607
308343
306231
304208
302189
300202
298500
296687
295009
293321
291763
290238
288648
287220
285806
284376
283010
281673
280439
279118
277816
276666
275439
274255
273067
271967
270889
269780
268657
267669
266577
265491
264569
263546
262615
261564
260570
259737
258779
257883
256947
256056
255156
254349
253507
252598
251760
251012
250134
249310
248542
247744
246948
246222
245479
244669
243923
243208
242453
241793
241062
240304
239652
238943
238220
237588
236938
236244
235573
234920
234282
233666
233022
232443
231771
231192
230591
229997
229403
228826
228303
227658
227122
226561
225991
225398
224849
224340
223768
223244
222764
222211
221720
221160
220671
220193
219705
219194
218706
218239
217750
217263
216836
216357
215884
215474
215031
214524
214142
213665
213277
212805
212393
212006
211555
211157
210731
210333
209936
209556
209147
208791
208418
207999
207638
207257
206912
206571
206162
205844
205500
205115
204803
204462
204139
203766
203461
203147
202819
202502
202205
201865
201589
201251
201004
200686
200398
200133
199853
199565
199271
199035
198769
198456
198243
197951
197725
197495
197247
196982
196763
196520
196299
196064
195869
195623
195366
195168
195033
194792
194535
194361
194141
194021
193770
193590
193490
193217
193034
192864
192668
192545
192395
192192
191953
191854
191716
191487
191443
191315
191109
190897
190787
190687
190600
190345
190237
190212
190012
189837
189725
189644
189518
189398
189307
189181
189045
188934
188827
188756
188607
188450
188415
188314
188120
188098
187981
187857
187814
187729
187562
187482
187396
187274
187207
187113
187067
186988
186956
186746
186724
186690
186595
186521
186388
186301
186266
186172
186066
186059
186006
185867
185838
185684
185662
185575
185529
185449
185331
185296
185170
185188
185093
184948
184909
184851
184794
184660
184604
184563
184493
184407
184273
184248
184144
184065
183976
183901
183862
183715
183696
183610
183459
183403
183341
183253
183106
183096
183016
182884
182767
182718
182644
182523
182444
182327
182205
182158
182092
181928
181811
181699
181598
181585
181414
181254
181217
181084
180999
180870
180754
180630
180539
180388
180237
180163
180063
179927
179709
179612
179544
179377
179261
179093
178962
178824
178714
178553
178422
178253
178118
177951
177783
177666
177481
177317
177199
177027
176834
176638
176498
176314
176180
175971
175787
175598
175418
175244
175020
174792
174659
174437
174243
174072
173818
173610
173438
173260
173032
172809
172589
172327
172156
171922
171671
171461
171236
170946
170723
170584
170234
170007
169804
169531
169335
169024
168818
168581
168309
168079
167862
167571
167302
167060
166805
166535
166306
165999
165747
165495
165165
164868
164615
164320
164043
163770
163404
163167
162924
162552
162290
162020
161719
161418
161126
160818
160523
160264
160041
161086
168544
1.16988e+06
)
;
    }
    inlet
    {
        type            calculated;
        value           uniform 0;
    }
    rWedge
    {
        type            wedge;
    }
    lWedge
    {
        type            wedge;
    }
    outlet
    {
        type            calculated;
        value           uniform 0;
    }
}


// ************************************************************************* //
