/*--------------------------------*- C++ -*----------------------------------*\
| =========                 |                                                 |
| \\      /  F ield         | OpenFOAM: The Open Source CFD Toolbox           |
|  \\    /   O peration     | Version:  v1706                                 |
|   \\  /    A nd           | Web:      www.OpenFOAM.com                      |
|    \\/     M anipulation  |                                                 |
\*---------------------------------------------------------------------------*/
FoamFile
{
    version     2.0;
    format      ascii;
    class       volScalarField;
    location    "7";
    object      dsmcRhoNMean_N2;
}
// * * * * * * * * * * * * * * * * * * * * * * * * * * * * * * * * * * * * * //

dimensions      [0 -3 0 0 0 0 0];


internalField   nonuniform List<scalar> 
500
(
89.97455
89.88951667
89.90750667
89.92593667
89.96757667
89.34110333
89.32309333
89.33609667
89.36907333
89.33716
88.8523
88.86385
88.86311667
88.87205667
88.86164667
88.42153333
88.41569667
88.42825
88.43235
88.41714333
87.99770333
87.98448667
88.02584
88.03899333
88.01455333
87.63449333
87.62219667
87.57086333
87.59721667
87.58871
87.17868333
87.21695
87.18603
87.17919667
87.18872
86.81792
86.80474333
86.79581667
86.82770333
86.80574333
86.45689667
86.42549333
86.40144667
86.43947333
86.44298667
86.06951333
86.07998667
86.06324333
86.07040333
86.07347
85.71032667
85.68814333
85.74879667
85.72857
85.70221333
85.37246
85.36036
85.36572333
85.34535333
85.34934333
85.02659
85.01200333
84.97583
85.01110333
85.00260333
84.64648
84.63156
84.65843
84.61562
84.62697
84.30869333
84.28734
84.29912333
84.29119667
84.3001
83.96719667
83.96405333
83.93922333
83.97624
83.94519
83.62074667
83.64047333
83.59436
83.65507
83.65679
83.30840667
83.28019667
83.29734667
83.29172333
83.29994667
83.00310333
82.98357667
82.99960333
82.97406667
83.01020667
82.67257
82.66653667
82.68251333
82.66694
82.69128
82.34963333
82.34819
82.32112
82.35899
82.35968
82.04936333
82.07929667
82.05530667
82.0579
82.05939
81.75729333
81.74086333
81.77615
81.73148333
81.78017333
81.42787333
81.46530667
81.47260667
81.46138333
81.44258667
81.15294
81.13037667
81.14982667
81.14724
81.14941667
80.79893667
80.80352667
80.84693
80.84677667
80.80447
80.51742667
80.54259
80.52506
80.56994333
80.54041667
80.25079667
80.23718333
80.21762
80.22883333
80.22906
79.93339333
79.92650333
79.95737
79.92194333
79.95161667
79.64049333
79.64845
79.64728667
79.63883
79.63293667
79.35559333
79.37190667
79.37425667
79.35533333
79.33771667
79.07375333
79.04478
79.08140333
79.07523667
79.10456333
78.78840333
78.77364
78.82924333
78.83088333
78.81396333
78.50604
78.48945
78.51834667
78.53878
78.49899667
78.23489333
78.27135667
78.27026667
78.26504333
78.24434
77.98179
77.98286
78.03486667
77.99932
77.98753667
77.75708
77.73332333
77.72198333
77.75015667
77.77014333
77.47074667
77.50645
77.44393333
77.46085333
77.46318333
77.20579
77.21906
77.19425333
77.25058
77.21784667
76.98150667
76.99627333
76.96346333
76.95259
76.96904667
76.72567667
76.69126
76.69675
76.67774
76.71502667
76.45542333
76.43250333
76.43589667
76.45138333
76.49022667
76.20679667
76.1602
76.19558667
76.17106667
76.15737333
75.95292333
75.93171667
75.94615667
75.92615333
75.9548
75.71650333
75.70078
75.68423333
75.67425
75.65876333
75.49537667
75.43986333
75.42981333
75.46183
75.42954667
75.18903
75.19015333
75.19789
75.20723667
75.21283667
74.96040667
74.95466333
74.96620333
74.97948
74.97383
74.75867
74.73347667
74.73355667
74.76801
74.74549
74.48716333
74.47868
74.50169667
74.50025667
74.5007
74.23387667
74.23818
74.25859
74.26672667
74.28222667
74.02959333
74.02357333
74.04203
74.04257
74.00771667
73.79874333
73.81502667
73.81916667
73.83478
73.82887
73.5614
73.60236
73.59653
73.60677667
73.58938333
73.34847333
73.35358
73.33581667
73.37352333
73.36117667
73.12617667
73.09765
73.11310333
73.12855
73.13857667
72.88824
72.92214667
72.89660333
72.91303667
72.90543
72.69520667
72.71939
72.70224333
72.71322333
72.69048333
72.44901
72.44876667
72.44263333
72.45512333
72.42772
72.25449
72.23870333
72.22272
72.25829
72.2443
72.03509
72.00723333
72.02806
72.04475667
72.03739
71.79225333
71.85608333
71.82193
71.82379667
71.80291667
71.59898333
71.60817
71.59776667
71.57976667
71.58774
71.41726333
71.38679333
71.38047667
71.36258
71.37537333
71.15786
71.16375333
71.18717
71.16412
71.18865333
70.98103333
70.99019667
71.00267333
70.98956667
70.99411333
70.74892
70.74962333
70.76918
70.78458667
70.77488667
70.55496667
70.55429667
70.59924333
70.57743
70.57441667
70.37286667
70.37213
70.38354333
70.35950667
70.41589
70.18831667
70.16619333
70.16785667
70.19006333
70.1934
69.98644333
70.00962333
69.99262667
70.00469
70.00430333
69.80358
69.79243
69.79901
69.80664333
69.78618
69.62458333
69.61122333
69.5778
69.64006333
69.62267
69.43089
69.42422
69.4431
69.40125
69.42559
69.23445333
69.26001
69.23210667
69.23815667
69.23475667
69.03705667
69.05230333
69.01986333
69.06221667
69.02853333
68.83723
68.86084333
68.82625
68.86593
68.85147667
68.69043
68.64517333
68.65763667
68.64302333
68.67831333
68.47779
68.47649
68.45565333
68.44816
68.47692
68.26554333
68.30301333
68.29121
68.2702
68.30687667
68.09022
68.09929333
68.07941
68.07685333
68.08024333
67.89592
67.89329333
67.90498
67.87608333
67.86747333
67.70632
67.70773333
67.74827667
67.72504
67.70843667
67.56543333
67.55056667
67.57532667
67.5736
67.56101
67.39199
67.40138333
67.38425333
67.40091667
67.37845667
67.20323667
67.21411
67.18837667
67.20048667
67.22772
66.98409333
66.99073
67.02568
67.04251667
67.00557333
66.82703667
66.85665333
66.84761333
66.84609333
66.83289
66.67768333
66.66220667
66.66129333
66.67533
66.67658333
66.48898333
66.49190667
66.50167
66.46733333
66.48109667
66.29506
66.26159333
66.28553667
66.32282
66.33008
66.11641333
66.10669333
66.10304667
66.14332333
66.10598667
65.93482667
65.90000333
65.92693667
65.94156333
65.93138
65.73442
65.72434
65.77707667
65.77036667
65.73906667
65.55141333
65.55939667
65.57017333
65.58011
65.57411
65.39506
65.39960667
65.36434
65.38998333
65.40794333
65.18232667
65.18403667
65.19367
65.21380667
65.18198333
64.99985667
64.9817
64.99768333
65.01268
65.01769667
64.78528667
64.79865667
64.81309
64.79342
64.75983333
64.56261
64.55460333
64.53864
64.50541
64.54101667
)
;

boundaryField
{
    upperWall
    {
        type            calculated;
        value           uniform 0;
    }
    lowerWall
    {
        type            calculated;
        value           uniform 0;
    }
    periodicX_half0
    {
        type            cyclic;
    }
    periodicX_half1
    {
        type            cyclic;
    }
    frontAndBack
    {
        type            empty;
    }
}


// ************************************************************************* //
