/*--------------------------------*- C++ -*----------------------------------*\
| =========                 |                                                 |
| \\      /  F ield         | OpenFOAM: The Open Source CFD Toolbox           |
|  \\    /   O peration     | Version:  v1706                                 |
|   \\  /    A nd           | Web:      www.OpenFOAM.com                      |
|    \\/     M anipulation  |                                                 |
\*---------------------------------------------------------------------------*/
FoamFile
{
    version     2.0;
    format      ascii;
    class       volVectorField;
    location    "7";
    object      fD_N2;
}
// * * * * * * * * * * * * * * * * * * * * * * * * * * * * * * * * * * * * * //

dimensions      [1 -1 -2 0 0 0 0];


internalField   uniform (0 0 0);

boundaryField
{
    upperWall
    {
        type            calculated;
        value           nonuniform List<vector> 5((-0.01822262148 1.112646655 1.251961653e-05) (-0.01791111192 1.113512075 4.586986854e-05) (-0.01805862874 1.113104434 0.0001018173067) (-0.01822602832 1.112352143 -0.0002073448514) (-0.0182829044 1.112961214 -0.0002175074723));
    }
    lowerWall
    {
        type            calculated;
        value           nonuniform List<vector> 5((0.01812170761 -1.110971622 -0.0001872782443) (0.01834404238 -1.109715868 -0.0002532424255) (0.01795780372 -1.110656136 0.0001415452636) (0.01772562664 -1.110901391 -0.0003915339354) (0.01845215185 -1.111155048 0.0001788091881));
    }
    periodicX_half0
    {
        type            cyclic;
    }
    periodicX_half1
    {
        type            cyclic;
    }
    frontAndBack
    {
        type            empty;
    }
}


// ************************************************************************* //
