/*--------------------------------*- C++ -*----------------------------------*\
| =========                 |                                                 |
| \\      /  F ield         | OpenFOAM: The Open Source CFD Toolbox           |
|  \\    /   O peration     | Version:  v1706                                 |
|   \\  /    A nd           | Web:      www.OpenFOAM.com                      |
|    \\/     M anipulation  |                                                 |
\*---------------------------------------------------------------------------*/
FoamFile
{
    version     2.0;
    format      ascii;
    class       volScalarField;
    location    "7";
    object      Ma_mixture;
}
// * * * * * * * * * * * * * * * * * * * * * * * * * * * * * * * * * * * * * //

dimensions      [0 0 0 0 0 0 0];


internalField   nonuniform List<scalar> 
500
(
0.01665976787
0.01661526925
0.01663860662
0.01697121306
0.01654895312
0.02120534193
0.02148543585
0.02127666798
0.02132628333
0.02147781535
0.02517283758
0.02486095829
0.02519924866
0.0251162877
0.02522884209
0.02866524539
0.02903947111
0.02829915478
0.02858144365
0.02852936586
0.03228651532
0.03182524164
0.03242694024
0.03192003628
0.03212177549
0.03521017606
0.03548249216
0.03541104794
0.03516415496
0.03518004193
0.03870321922
0.03857553587
0.03843300307
0.03858390808
0.0384842838
0.04186844794
0.04177412159
0.04177720516
0.04188404577
0.04192244968
0.0444989276
0.04464016074
0.04482726508
0.04477337951
0.04467457812
0.04767926096
0.04775256338
0.04752974408
0.04771060509
0.04753027938
0.050795562
0.05096703059
0.05094827255
0.05068352497
0.05081808289
0.05374245955
0.0538064454
0.05376927088
0.05368514165
0.05387573466
0.05677372096
0.05676326076
0.05673081433
0.05701374091
0.0569202052
0.05965158773
0.05967906198
0.05959815106
0.0596539121
0.05954116724
0.06258935167
0.06232087014
0.06239419464
0.06246325992
0.06220657662
0.06523263527
0.06541101768
0.0652939399
0.0653408007
0.06524906292
0.06832458235
0.0682347571
0.06834654242
0.0680889293
0.06837706241
0.07130682644
0.0710448437
0.07119345205
0.07105312272
0.07086645067
0.07365429434
0.07343189329
0.07379202814
0.0738064796
0.07392987779
0.07669756327
0.07648908201
0.07643556458
0.07667413488
0.07638135808
0.07913109642
0.07917115218
0.07950878449
0.07924928765
0.07922561726
0.08185110608
0.08202838378
0.08173675441
0.08179253863
0.08174838102
0.08492242926
0.08476795457
0.08449500915
0.08463800541
0.08456612511
0.08771280074
0.08764198019
0.08756825319
0.08738141654
0.08769239998
0.0904181744
0.09017882452
0.09006300027
0.09042918267
0.09025606221
0.09269454588
0.09277965204
0.09298316465
0.09298944814
0.09281322389
0.09539261536
0.09546725096
0.0955998688
0.09541969716
0.09563501286
0.09819128088
0.09815302828
0.09792794981
0.09810073257
0.09821677943
0.1007329631
0.1006628502
0.1006323964
0.1006700371
0.1006291655
0.1031787529
0.1032914896
0.1034870962
0.1034554108
0.1030115226
0.1058755824
0.1057956977
0.1060438528
0.1060283172
0.106250749
0.1083999314
0.1087153675
0.1085222227
0.1083436552
0.1085043451
0.1109293895
0.1109512411
0.1109424368
0.111050792
0.1111657226
0.1138654154
0.1136140184
0.1134552457
0.113533537
0.1134505853
0.1160457354
0.1160043761
0.1163148656
0.1161686332
0.1163103156
0.1186220381
0.1187864064
0.1185647824
0.1183044884
0.1185358327
0.121208487
0.1211358982
0.1212920489
0.1212879678
0.1212620967
0.1236175901
0.1236630909
0.1236404467
0.1236269828
0.1238678439
0.1258333733
0.1260704369
0.1262636837
0.1261745815
0.1261070839
0.1284763254
0.1285431346
0.128255138
0.1283931809
0.1286705057
0.1309116242
0.1305738414
0.1312212434
0.1312660848
0.1308229716
0.1334389387
0.1334579774
0.1331998542
0.1332752712
0.1330722353
0.1354824257
0.1358799083
0.1356407862
0.1356492843
0.1359018293
0.1383456652
0.1381170647
0.1380826098
0.1381895734
0.1382185899
0.1405335453
0.1406749167
0.140433598
0.1406981216
0.1405302687
0.1427148452
0.142741005
0.1430577974
0.1429480891
0.1426903117
0.1452363931
0.1454785776
0.1449807309
0.1451764751
0.1451884516
0.1476828138
0.147893615
0.1476743392
0.1476812831
0.1474409835
0.1502092155
0.1502027627
0.1500166923
0.1499237601
0.150022402
0.152140565
0.1522582916
0.1524396732
0.1524826205
0.1524632101
0.1550015558
0.1547136169
0.1549091557
0.154986386
0.1549810012
0.1571391148
0.1572228818
0.1569304268
0.156728494
0.156977364
0.159234652
0.1594018898
0.1591862123
0.1592934282
0.1594905645
0.1615690803
0.161797602
0.1618577776
0.1615533126
0.1614674306
0.1639019111
0.1638903029
0.1638588172
0.1639571691
0.1638168619
0.1660053829
0.1659698712
0.1662403643
0.1659582155
0.1660776436
0.1684527421
0.168131528
0.1682299397
0.1682089931
0.168122611
0.1705697573
0.1705918891
0.170492902
0.1705352534
0.1704952132
0.1728585437
0.1728263546
0.1727316021
0.1727584164
0.172870779
0.174969086
0.1752919375
0.1750527999
0.1748919776
0.1746920561
0.1768072344
0.1768504234
0.1770679774
0.17703744
0.1769967032
0.1794900026
0.1793687646
0.1792306275
0.179090326
0.1794545815
0.1812662525
0.1815943324
0.1816854547
0.1816009255
0.1814702829
0.1837875679
0.1835325918
0.1841008514
0.18395437
0.1840121482
0.1861821405
0.1858482734
0.1859794742
0.1864459796
0.1858364955
0.1883932889
0.1881029502
0.18854501
0.1881768626
0.1882883828
0.1906242875
0.1906498161
0.1905616715
0.1903457052
0.1904651721
0.1925950012
0.1926414814
0.1925451391
0.1924441037
0.1925570922
0.1947376609
0.1944055087
0.1948224677
0.1945826145
0.1949297889
0.1965914024
0.1969966687
0.1968901835
0.1964501891
0.196444546
0.1990338613
0.1989346964
0.1987938315
0.1990167449
0.1992363234
0.2010563606
0.2011488697
0.2009684625
0.2008880806
0.2010122962
0.2030722262
0.2030443887
0.2032668971
0.2029778118
0.203347389
0.2051620182
0.2051241692
0.2053652747
0.2051915859
0.2051910015
0.2075327749
0.2072925565
0.2070917219
0.2071675136
0.2071603628
0.2094003206
0.2094410169
0.2094155451
0.209502824
0.2093568508
0.2115373457
0.2115473551
0.211394329
0.2114771544
0.2114109004
0.2135590175
0.2135253207
0.2135498731
0.2136508658
0.2136545189
0.2154689147
0.2156713042
0.2157090781
0.2154146411
0.2156309601
0.2177243337
0.2178318633
0.2175825836
0.217913642
0.2176160064
0.2194270775
0.2197662144
0.2197807937
0.2196825384
0.2198286198
0.2216677312
0.2217549004
0.2215859634
0.2216627013
0.2218831533
0.2240573611
0.2236713264
0.2239168901
0.2237495412
0.2239361146
0.2260183134
0.2259135928
0.2257778646
0.225860149
0.2257552719
0.2279958095
0.2279735198
0.2279144602
0.2281336826
0.2278785837
0.2296795178
0.2299401424
0.2297961958
0.230084858
0.229720974
0.2317265264
0.2316497432
0.2315054952
0.2317609779
0.2317466784
0.2337103922
0.233688566
0.2336741438
0.2335559227
0.233356958
0.2356358406
0.2357515017
0.2355149342
0.2357809586
0.2358622949
0.23783223
0.2375655469
0.2378382253
0.2376394711
0.2377688665
0.2395799358
0.2399339866
0.239713906
0.2397175677
0.2395230712
0.2418616537
0.2414773368
0.2417729724
0.2416110386
0.2415885524
0.2438072264
0.2440035307
0.2435468539
0.2436638471
0.243479926
0.2460288434
0.2456438179
0.2460786436
0.2459105718
0.2461346844
0.2481457787
0.2479207718
0.2480646429
0.2478411371
0.247931104
0.2500659241
0.2500084119
0.2500197723
0.2499253378
0.2501099929
0.2521615517
0.2522677838
0.2522374225
0.2520411324
0.2520285069
0.2543138932
0.2545471887
0.254347616
0.2544289501
0.2542577407
0.2566531276
0.256641817
0.2569244829
0.2570924597
0.2570081556
0.259816207
0.2597171921
0.2597059941
0.2596865862
0.2596147447
)
;

boundaryField
{
    upperWall
    {
        type            calculated;
        value           nonuniform List<scalar> 5(0.261795213 0.2627923703 0.2618090833 0.260898617 0.2616559027);
    }
    lowerWall
    {
        type            calculated;
        value           nonuniform List<scalar> 5(0.01398654446 0.01374068382 0.01472618887 0.01265395558 0.01261235024);
    }
    periodicX_half0
    {
        type            cyclic;
    }
    periodicX_half1
    {
        type            cyclic;
    }
    frontAndBack
    {
        type            empty;
    }
}


// ************************************************************************* //
