/*--------------------------------*- C++ -*----------------------------------*\
| =========                 |                                                 |
| \\      /  F ield         | OpenFOAM: The Open Source CFD Toolbox           |
|  \\    /   O peration     | Version:  v1706                                 |
|   \\  /    A nd           | Web:      www.OpenFOAM.com                      |
|    \\/     M anipulation  |                                                 |
\*---------------------------------------------------------------------------*/
FoamFile
{
    version     2.0;
    format      ascii;
    class       volScalarField;
    location    "7";
    object      mctTimeStepRatio_mixture;
}
// * * * * * * * * * * * * * * * * * * * * * * * * * * * * * * * * * * * * * //

dimensions      [0 0 0 0 0 0 0];


internalField   nonuniform List<scalar> 
500
(
3.562796365
3.565027129
3.564325293
3.563610507
3.562841807
3.580441914
3.580808597
3.580641821
3.579706766
3.580649958
3.594711637
3.594198906
3.593956663
3.593875801
3.594368088
3.606939758
3.60681783
3.606672475
3.607245113
3.607311052
3.619705668
3.620116455
3.618683607
3.618745243
3.619422867
3.631129034
3.631206202
3.632477826
3.632591871
3.633085736
3.644999947
3.64327337
3.644618691
3.644896683
3.645162663
3.656522587
3.657232879
3.657266986
3.656309172
3.65649947
3.667411467
3.668528348
3.669666691
3.668456657
3.6684978
3.680169309
3.679779777
3.680138489
3.679968601
3.680040239
3.691514385
3.692406615
3.689264955
3.690980053
3.691615426
3.702659096
3.702308917
3.702433285
3.702639691
3.70304576
3.713799131
3.713766843
3.714646477
3.713476988
3.713707378
3.725691418
3.726698364
3.724662781
3.726116269
3.726348019
3.736605684
3.737164952
3.736779411
3.737360633
3.737529063
3.748178445
3.748397725
3.748945677
3.747453737
3.749061212
3.75996873
3.758809037
3.760225988
3.758625289
3.758165678
3.770609158
3.770805158
3.770577948
3.771092311
3.770511625
3.780590506
3.781256984
3.781049248
3.78105585
3.780257231
3.791458667
3.792338585
3.791124555
3.791284194
3.790408974
3.802912666
3.803214757
3.803462926
3.801730238
3.802369664
3.813412919
3.812091507
3.812634269
3.812501676
3.812678902
3.823619437
3.824677316
3.822629122
3.82428923
3.822124136
3.834973561
3.8338859
3.833680867
3.833465802
3.833945109
3.845058229
3.84576372
3.84496431
3.845304833
3.84576926
3.85701336
3.856794099
3.85594743
3.855338356
3.857291252
3.867160955
3.866511586
3.86753732
3.865256652
3.866178012
3.876807732
3.87726894
3.878540217
3.877756079
3.878117498
3.888869856
3.888705786
3.887749794
3.88943906
3.887818544
3.899425586
3.899634798
3.899302041
3.899515281
3.899173185
3.909924692
3.90962586
3.909533601
3.909569216
3.910972812
3.920026744
3.921645025
3.920053844
3.919646229
3.918622081
3.930951914
3.931029085
3.929004287
3.928679216
3.929931135
3.941143937
3.942188834
3.940560096
3.939947575
3.942050302
3.951844688
3.949740909
3.950341328
3.950259039
3.950530597
3.961181851
3.960539123
3.958901419
3.960357092
3.961050817
3.969949751
3.97016295
3.971739886
3.970241403
3.969223806
3.980694035
3.979289745
3.982142755
3.981467152
3.981046589
3.991182017
3.990834624
3.991775649
3.989204216
3.99054959
3.999426552
3.998734001
3.999947484
4.001208225
4.000102318
4.009523862
4.010780215
4.010204271
4.011056821
4.010196863
4.020606125
4.021030774
4.020741677
4.020638117
4.019075368
4.030013559
4.032174866
4.030004349
4.031942695
4.032469637
4.040662835
4.040737836
4.040631799
4.042118088
4.040296346
4.05023483
4.051434827
4.051682363
4.051652668
4.05301929
4.059392112
4.061994882
4.061905297
4.060297213
4.06173997
4.07185356
4.072238298
4.072151622
4.071158047
4.071182803
4.081164059
4.081738825
4.081018481
4.080304999
4.080870829
4.089139454
4.090060841
4.090006456
4.088910631
4.089751617
4.099506898
4.100452265
4.099306955
4.099909028
4.100014867
4.110635886
4.110797765
4.109665276
4.109564715
4.108996589
4.119286578
4.119797726
4.119078741
4.118164033
4.120602226
4.129305016
4.12885868
4.1277948
4.127465438
4.127750956
4.138482615
4.136825999
4.137328477
4.136540258
4.137752459
4.147379275
4.147842542
4.147764996
4.146377109
4.147003267
4.156514754
4.158445599
4.157444376
4.156717578
4.156042929
4.167260251
4.16654092
4.167633381
4.166715102
4.166761797
4.175420447
4.174997077
4.175291396
4.17533742
4.175989318
4.186460983
4.186521531
4.186867484
4.185898899
4.18755873
4.19438655
4.195247685
4.196919024
4.194668493
4.195027185
4.204725326
4.20549986
4.205164634
4.204230384
4.204004991
4.21488171
4.21234814
4.213867347
4.214444811
4.214725047
4.223610235
4.223186386
4.223589935
4.224837477
4.223815795
4.230777127
4.232252582
4.233125649
4.234157253
4.233704265
4.242693408
4.242409111
4.241605927
4.24307862
4.24138535
4.251787113
4.250370576
4.249259399
4.250342253
4.250403207
4.26115775
4.261083375
4.260282597
4.259722066
4.259689989
4.270366062
4.269864646
4.267771646
4.269009324
4.268588552
4.279023427
4.278456079
4.27776304
4.279126596
4.276152353
4.286711338
4.287978846
4.287166423
4.286143283
4.286182597
4.295781301
4.295393119
4.295413737
4.295103528
4.294954378
4.304565487
4.304969031
4.304414618
4.30407542
4.305098664
4.312774954
4.313423298
4.314984977
4.310235187
4.313331282
4.321308639
4.322014986
4.320970016
4.322827024
4.322106498
4.330629297
4.329566485
4.331341075
4.330877712
4.331195392
4.340102425
4.339517984
4.34127247
4.338862733
4.340238377
4.349338808
4.34795193
4.349306128
4.347544631
4.34884321
4.356416372
4.358291281
4.357526684
4.359488063
4.356775785
4.366642285
4.366744213
4.367579759
4.367463001
4.366575442
4.377114208
4.3750649
4.374957609
4.376399879
4.3755163
4.384221121
4.383685368
4.385626959
4.386104733
4.385908598
4.394672652
4.394485141
4.393554176
4.39524281
4.395542949
4.403098827
4.403005191
4.400695611
4.402395948
4.402618893
4.41003407
4.410917057
4.409944607
4.409732528
4.409970332
4.419131128
4.418327315
4.418535912
4.417352208
4.419668448
4.427865108
4.426749882
4.428310267
4.429086679
4.426109631
4.437764173
4.438829113
4.43738025
4.43538655
4.437401627
4.445806416
4.443855625
4.445520486
4.444607797
4.446002608
4.453472103
4.453881151
4.454319006
4.453770202
4.453922495
4.462301472
4.462393364
4.461869763
4.463863971
4.462830429
4.47274712
4.473473059
4.472164197
4.471063035
4.470319211
4.481140623
4.481265234
4.481298754
4.479759921
4.481761401
4.490206966
4.491615978
4.490119218
4.490639767
4.491034732
4.499320921
4.500962323
4.49801444
4.498759874
4.499776392
4.508375904
4.508704014
4.50834573
4.508143765
4.507917503
4.51673588
4.516615988
4.518399367
4.517839651
4.516235076
4.527918417
4.527923423
4.527924513
4.526217591
4.528747651
4.537938744
4.538346666
4.537244186
4.535681388
4.536443477
4.548424773
4.547390162
4.547047448
4.547324794
4.549878647
4.558792682
4.559409201
4.561412215
4.562856384
4.561035127
)
;

boundaryField
{
    upperWall
    {
        type            calculated;
        value           nonuniform List<scalar> 5(4.558792682 4.559409201 4.561412215 4.562856384 4.561035127);
    }
    lowerWall
    {
        type            calculated;
        value           nonuniform List<scalar> 5(3.562796365 3.565027129 3.564325293 3.563610507 3.562841807);
    }
    periodicX_half0
    {
        type            cyclic;
    }
    periodicX_half1
    {
        type            cyclic;
    }
    frontAndBack
    {
        type            empty;
    }
}


// ************************************************************************* //
