/*--------------------------------*- C++ -*----------------------------------*\
| =========                 |                                                 |
| \\      /  F ield         | OpenFOAM: The Open Source CFD Toolbox           |
|  \\    /   O peration     | Version:  v1706                                 |
|   \\  /    A nd           | Web:      www.OpenFOAM.com                      |
|    \\/     M anipulation  |                                                 |
\*---------------------------------------------------------------------------*/
FoamFile
{
    version     2.0;
    format      ascii;
    class       volScalarField;
    location    "7";
    object      meanCollisionTime_mixture;
}
// * * * * * * * * * * * * * * * * * * * * * * * * * * * * * * * * * * * * * //

dimensions      [0 0 1 0 0 0 0];


internalField   nonuniform List<scalar> 
500
(
3.562796365e-05
3.565027129e-05
3.564325293e-05
3.563610507e-05
3.562841807e-05
3.580441914e-05
3.580808597e-05
3.580641821e-05
3.579706766e-05
3.580649958e-05
3.594711637e-05
3.594198906e-05
3.593956663e-05
3.593875801e-05
3.594368088e-05
3.606939758e-05
3.60681783e-05
3.606672475e-05
3.607245113e-05
3.607311052e-05
3.619705668e-05
3.620116455e-05
3.618683607e-05
3.618745243e-05
3.619422867e-05
3.631129034e-05
3.631206202e-05
3.632477826e-05
3.632591871e-05
3.633085736e-05
3.644999947e-05
3.64327337e-05
3.644618691e-05
3.644896683e-05
3.645162663e-05
3.656522587e-05
3.657232879e-05
3.657266986e-05
3.656309172e-05
3.65649947e-05
3.667411467e-05
3.668528348e-05
3.669666691e-05
3.668456657e-05
3.6684978e-05
3.680169309e-05
3.679779777e-05
3.680138489e-05
3.679968601e-05
3.680040239e-05
3.691514385e-05
3.692406615e-05
3.689264955e-05
3.690980053e-05
3.691615426e-05
3.702659096e-05
3.702308917e-05
3.702433285e-05
3.702639691e-05
3.70304576e-05
3.713799131e-05
3.713766843e-05
3.714646477e-05
3.713476988e-05
3.713707378e-05
3.725691418e-05
3.726698364e-05
3.724662781e-05
3.726116269e-05
3.726348019e-05
3.736605684e-05
3.737164952e-05
3.736779411e-05
3.737360633e-05
3.737529063e-05
3.748178445e-05
3.748397725e-05
3.748945677e-05
3.747453737e-05
3.749061212e-05
3.75996873e-05
3.758809037e-05
3.760225988e-05
3.758625289e-05
3.758165678e-05
3.770609158e-05
3.770805158e-05
3.770577948e-05
3.771092311e-05
3.770511625e-05
3.780590506e-05
3.781256984e-05
3.781049248e-05
3.78105585e-05
3.780257231e-05
3.791458667e-05
3.792338585e-05
3.791124555e-05
3.791284194e-05
3.790408974e-05
3.802912666e-05
3.803214757e-05
3.803462926e-05
3.801730238e-05
3.802369664e-05
3.813412919e-05
3.812091507e-05
3.812634269e-05
3.812501676e-05
3.812678902e-05
3.823619437e-05
3.824677316e-05
3.822629122e-05
3.82428923e-05
3.822124136e-05
3.834973561e-05
3.8338859e-05
3.833680867e-05
3.833465802e-05
3.833945109e-05
3.845058229e-05
3.84576372e-05
3.84496431e-05
3.845304833e-05
3.84576926e-05
3.85701336e-05
3.856794099e-05
3.85594743e-05
3.855338356e-05
3.857291252e-05
3.867160955e-05
3.866511586e-05
3.86753732e-05
3.865256652e-05
3.866178012e-05
3.876807732e-05
3.87726894e-05
3.878540217e-05
3.877756079e-05
3.878117498e-05
3.888869856e-05
3.888705786e-05
3.887749794e-05
3.88943906e-05
3.887818544e-05
3.899425586e-05
3.899634798e-05
3.899302041e-05
3.899515281e-05
3.899173185e-05
3.909924692e-05
3.90962586e-05
3.909533601e-05
3.909569216e-05
3.910972812e-05
3.920026744e-05
3.921645025e-05
3.920053844e-05
3.919646229e-05
3.918622081e-05
3.930951914e-05
3.931029085e-05
3.929004287e-05
3.928679216e-05
3.929931135e-05
3.941143937e-05
3.942188834e-05
3.940560096e-05
3.939947575e-05
3.942050302e-05
3.951844688e-05
3.949740909e-05
3.950341328e-05
3.950259039e-05
3.950530597e-05
3.961181851e-05
3.960539123e-05
3.958901419e-05
3.960357092e-05
3.961050817e-05
3.969949751e-05
3.97016295e-05
3.971739886e-05
3.970241403e-05
3.969223806e-05
3.980694035e-05
3.979289745e-05
3.982142755e-05
3.981467152e-05
3.981046589e-05
3.991182017e-05
3.990834624e-05
3.991775649e-05
3.989204216e-05
3.99054959e-05
3.999426552e-05
3.998734001e-05
3.999947484e-05
4.001208225e-05
4.000102318e-05
4.009523862e-05
4.010780215e-05
4.010204271e-05
4.011056821e-05
4.010196863e-05
4.020606125e-05
4.021030774e-05
4.020741677e-05
4.020638117e-05
4.019075368e-05
4.030013559e-05
4.032174866e-05
4.030004349e-05
4.031942695e-05
4.032469637e-05
4.040662835e-05
4.040737836e-05
4.040631799e-05
4.042118088e-05
4.040296346e-05
4.05023483e-05
4.051434827e-05
4.051682363e-05
4.051652668e-05
4.05301929e-05
4.059392112e-05
4.061994882e-05
4.061905297e-05
4.060297213e-05
4.06173997e-05
4.07185356e-05
4.072238298e-05
4.072151622e-05
4.071158047e-05
4.071182803e-05
4.081164059e-05
4.081738825e-05
4.081018481e-05
4.080304999e-05
4.080870829e-05
4.089139454e-05
4.090060841e-05
4.090006456e-05
4.088910631e-05
4.089751617e-05
4.099506898e-05
4.100452265e-05
4.099306955e-05
4.099909028e-05
4.100014867e-05
4.110635886e-05
4.110797765e-05
4.109665276e-05
4.109564715e-05
4.108996589e-05
4.119286578e-05
4.119797726e-05
4.119078741e-05
4.118164033e-05
4.120602226e-05
4.129305016e-05
4.12885868e-05
4.1277948e-05
4.127465438e-05
4.127750956e-05
4.138482615e-05
4.136825999e-05
4.137328477e-05
4.136540258e-05
4.137752459e-05
4.147379275e-05
4.147842542e-05
4.147764996e-05
4.146377109e-05
4.147003267e-05
4.156514754e-05
4.158445599e-05
4.157444376e-05
4.156717578e-05
4.156042929e-05
4.167260251e-05
4.16654092e-05
4.167633381e-05
4.166715102e-05
4.166761797e-05
4.175420447e-05
4.174997077e-05
4.175291396e-05
4.17533742e-05
4.175989318e-05
4.186460983e-05
4.186521531e-05
4.186867484e-05
4.185898899e-05
4.18755873e-05
4.19438655e-05
4.195247685e-05
4.196919024e-05
4.194668493e-05
4.195027185e-05
4.204725326e-05
4.20549986e-05
4.205164634e-05
4.204230384e-05
4.204004991e-05
4.21488171e-05
4.21234814e-05
4.213867347e-05
4.214444811e-05
4.214725047e-05
4.223610235e-05
4.223186386e-05
4.223589935e-05
4.224837477e-05
4.223815795e-05
4.230777127e-05
4.232252582e-05
4.233125649e-05
4.234157253e-05
4.233704265e-05
4.242693408e-05
4.242409111e-05
4.241605927e-05
4.24307862e-05
4.24138535e-05
4.251787113e-05
4.250370576e-05
4.249259399e-05
4.250342253e-05
4.250403207e-05
4.26115775e-05
4.261083375e-05
4.260282597e-05
4.259722066e-05
4.259689989e-05
4.270366062e-05
4.269864646e-05
4.267771646e-05
4.269009324e-05
4.268588552e-05
4.279023427e-05
4.278456079e-05
4.27776304e-05
4.279126596e-05
4.276152353e-05
4.286711338e-05
4.287978846e-05
4.287166423e-05
4.286143283e-05
4.286182597e-05
4.295781301e-05
4.295393119e-05
4.295413737e-05
4.295103528e-05
4.294954378e-05
4.304565487e-05
4.304969031e-05
4.304414618e-05
4.30407542e-05
4.305098664e-05
4.312774954e-05
4.313423298e-05
4.314984977e-05
4.310235187e-05
4.313331282e-05
4.321308639e-05
4.322014986e-05
4.320970016e-05
4.322827024e-05
4.322106498e-05
4.330629297e-05
4.329566485e-05
4.331341075e-05
4.330877712e-05
4.331195392e-05
4.340102425e-05
4.339517984e-05
4.34127247e-05
4.338862733e-05
4.340238377e-05
4.349338808e-05
4.34795193e-05
4.349306128e-05
4.347544631e-05
4.34884321e-05
4.356416372e-05
4.358291281e-05
4.357526684e-05
4.359488063e-05
4.356775785e-05
4.366642285e-05
4.366744213e-05
4.367579759e-05
4.367463001e-05
4.366575442e-05
4.377114208e-05
4.3750649e-05
4.374957609e-05
4.376399879e-05
4.3755163e-05
4.384221121e-05
4.383685368e-05
4.385626959e-05
4.386104733e-05
4.385908598e-05
4.394672652e-05
4.394485141e-05
4.393554176e-05
4.39524281e-05
4.395542949e-05
4.403098827e-05
4.403005191e-05
4.400695611e-05
4.402395948e-05
4.402618893e-05
4.41003407e-05
4.410917057e-05
4.409944607e-05
4.409732528e-05
4.409970332e-05
4.419131128e-05
4.418327315e-05
4.418535912e-05
4.417352208e-05
4.419668448e-05
4.427865108e-05
4.426749882e-05
4.428310267e-05
4.429086679e-05
4.426109631e-05
4.437764173e-05
4.438829113e-05
4.43738025e-05
4.43538655e-05
4.437401627e-05
4.445806416e-05
4.443855625e-05
4.445520486e-05
4.444607797e-05
4.446002608e-05
4.453472103e-05
4.453881151e-05
4.454319006e-05
4.453770202e-05
4.453922495e-05
4.462301472e-05
4.462393364e-05
4.461869763e-05
4.463863971e-05
4.462830429e-05
4.47274712e-05
4.473473059e-05
4.472164197e-05
4.471063035e-05
4.470319211e-05
4.481140623e-05
4.481265234e-05
4.481298754e-05
4.479759921e-05
4.481761401e-05
4.490206966e-05
4.491615978e-05
4.490119218e-05
4.490639767e-05
4.491034732e-05
4.499320921e-05
4.500962323e-05
4.49801444e-05
4.498759874e-05
4.499776392e-05
4.508375904e-05
4.508704014e-05
4.50834573e-05
4.508143765e-05
4.507917503e-05
4.51673588e-05
4.516615988e-05
4.518399367e-05
4.517839651e-05
4.516235076e-05
4.527918417e-05
4.527923423e-05
4.527924513e-05
4.526217591e-05
4.528747651e-05
4.537938744e-05
4.538346666e-05
4.537244186e-05
4.535681388e-05
4.536443477e-05
4.548424773e-05
4.547390162e-05
4.547047448e-05
4.547324794e-05
4.549878647e-05
4.558792682e-05
4.559409201e-05
4.561412215e-05
4.562856384e-05
4.561035127e-05
)
;

boundaryField
{
    upperWall
    {
        type            calculated;
        value           nonuniform List<scalar> 5(4.558792682e-05 4.559409201e-05 4.561412215e-05 4.562856384e-05 4.561035127e-05);
    }
    lowerWall
    {
        type            calculated;
        value           nonuniform List<scalar> 5(3.562796365e-05 3.565027129e-05 3.564325293e-05 3.563610507e-05 3.562841807e-05);
    }
    periodicX_half0
    {
        type            cyclic;
    }
    periodicX_half1
    {
        type            cyclic;
    }
    frontAndBack
    {
        type            empty;
    }
}


// ************************************************************************* //
