/*--------------------------------*- C++ -*----------------------------------*\
| =========                 |                                                 |
| \\      /  F ield         | OpenFOAM: The Open Source CFD Toolbox           |
|  \\    /   O peration     | Version:  v1706                                 |
|   \\  /    A nd           | Web:      www.OpenFOAM.com                      |
|    \\/     M anipulation  |                                                 |
\*---------------------------------------------------------------------------*/
FoamFile
{
    version     2.0;
    format      ascii;
    class       volScalarField;
    location    "7";
    object      meanCollisionTime_N2;
}
// * * * * * * * * * * * * * * * * * * * * * * * * * * * * * * * * * * * * * //

dimensions      [0 0 1 0 0 0 0];


internalField   nonuniform List<scalar> 
500
(
4.350540794e-05
4.354547131e-05
4.353499438e-05
4.352391353e-05
4.350674743e-05
4.372606905e-05
4.373429122e-05
4.373254914e-05
4.371640881e-05
4.372997932e-05
4.389506701e-05
4.389167448e-05
4.389247508e-05
4.388671218e-05
4.389406387e-05
4.404605431e-05
4.405172869e-05
4.404563055e-05
4.404564402e-05
4.405127942e-05
4.42025817e-05
4.420838573e-05
4.418460511e-05
4.418233389e-05
4.419438457e-05
4.433160903e-05
4.433804552e-05
4.435857785e-05
4.434546303e-05
4.43514924e-05
4.450535215e-05
4.448610825e-05
4.450045882e-05
4.450259511e-05
4.450191839e-05
4.464030456e-05
4.464516319e-05
4.464938916e-05
4.46308506e-05
4.46463856e-05
4.477424729e-05
4.478756161e-05
4.480217169e-05
4.478176916e-05
4.478157661e-05
4.491978992e-05
4.491915757e-05
4.492330009e-05
4.492199644e-05
4.492224523e-05
4.505609207e-05
4.507237193e-05
4.503853122e-05
4.504989572e-05
4.506617934e-05
4.519113282e-05
4.518982483e-05
4.519027711e-05
4.520156695e-05
4.520040368e-05
4.532174006e-05
4.532938653e-05
4.534770571e-05
4.532839486e-05
4.533190117e-05
4.547511879e-05
4.548343624e-05
4.546817366e-05
4.549079972e-05
4.548368459e-05
4.560880953e-05
4.562109665e-05
4.561462689e-05
4.561767549e-05
4.561249032e-05
4.574403157e-05
4.574328478e-05
4.575876602e-05
4.57376511e-05
4.575793937e-05
4.588674701e-05
4.587768629e-05
4.589951901e-05
4.586575407e-05
4.587060025e-05
4.601028173e-05
4.602320352e-05
4.601469341e-05
4.601969228e-05
4.601617235e-05
4.612936243e-05
4.614232233e-05
4.613379282e-05
4.614526916e-05
4.612694824e-05
4.626545673e-05
4.627230927e-05
4.626497963e-05
4.626978916e-05
4.625661707e-05
4.640131853e-05
4.640831365e-05
4.641698992e-05
4.639240144e-05
4.639299219e-05
4.652500082e-05
4.650796464e-05
4.652117747e-05
4.652122461e-05
4.651933251e-05
4.66463012e-05
4.665545172e-05
4.663354449e-05
4.665838082e-05
4.663271496e-05
4.678796024e-05
4.676956759e-05
4.676578057e-05
4.677209599e-05
4.678177721e-05
4.69032911e-05
4.691301678e-05
4.690672903e-05
4.690351006e-05
4.690744989e-05
4.706375303e-05
4.705621512e-05
4.703530086e-05
4.703243073e-05
4.705850701e-05
4.717797925e-05
4.716850823e-05
4.718061009e-05
4.714960499e-05
4.716679142e-05
4.729395209e-05
4.729448861e-05
4.731164939e-05
4.730324567e-05
4.730567877e-05
4.743568594e-05
4.743871898e-05
4.742236756e-05
4.744620328e-05
4.742391632e-05
4.75642825e-05
4.75606773e-05
4.756190461e-05
4.756329868e-05
4.756724935e-05
4.768724361e-05
4.768298472e-05
4.768286813e-05
4.768786163e-05
4.770482753e-05
4.781728698e-05
4.782996173e-05
4.781255763e-05
4.781422931e-05
4.779769226e-05
4.794700376e-05
4.795458734e-05
4.792068263e-05
4.791657168e-05
4.793126532e-05
4.806821531e-05
4.808348094e-05
4.806416315e-05
4.805278404e-05
4.807718702e-05
4.819499198e-05
4.817697807e-05
4.8173026e-05
4.817581954e-05
4.818557143e-05
4.831084344e-05
4.830578666e-05
4.827548999e-05
4.829905058e-05
4.830182581e-05
4.840714836e-05
4.842252317e-05
4.842815154e-05
4.840681674e-05
4.839898616e-05
4.85397213e-05
4.8522742e-05
4.856115765e-05
4.854304867e-05
4.854434032e-05
4.866417551e-05
4.865824596e-05
4.86718755e-05
4.863634665e-05
4.865777881e-05
4.876351524e-05
4.875480621e-05
4.877132389e-05
4.878382292e-05
4.877276045e-05
4.888313513e-05
4.890476522e-05
4.890038903e-05
4.891469663e-05
4.889293003e-05
4.901617855e-05
4.902804366e-05
4.902502516e-05
4.901547243e-05
4.899126242e-05
4.912745182e-05
4.915640682e-05
4.913535098e-05
4.915598655e-05
4.91596363e-05
4.925306233e-05
4.926351457e-05
4.925730597e-05
4.926815817e-05
4.925039931e-05
4.93683325e-05
4.93786609e-05
4.938839294e-05
4.93889759e-05
4.940325741e-05
4.946804857e-05
4.950553803e-05
4.951219293e-05
4.948876317e-05
4.951046416e-05
4.96278064e-05
4.962595407e-05
4.962006115e-05
4.961948876e-05
4.961708038e-05
4.973799643e-05
4.974116578e-05
4.973488336e-05
4.972929167e-05
4.972727721e-05
4.982634912e-05
4.984465378e-05
4.984704355e-05
4.982677537e-05
4.984284955e-05
4.996641758e-05
4.99742187e-05
4.995903526e-05
4.996189469e-05
4.996107193e-05
5.009430664e-05
5.009484308e-05
5.008052219e-05
5.007580083e-05
5.007034916e-05
5.019564017e-05
5.020082796e-05
5.018851601e-05
5.018497571e-05
5.020761111e-05
5.031392993e-05
5.030517281e-05
5.030545805e-05
5.029177983e-05
5.029235225e-05
5.043248209e-05
5.040919052e-05
5.040796107e-05
5.040489937e-05
5.041767889e-05
5.054406078e-05
5.053614077e-05
5.054797651e-05
5.052107806e-05
5.053238824e-05
5.065520212e-05
5.067377827e-05
5.065811535e-05
5.064811003e-05
5.064530015e-05
5.077751216e-05
5.075756045e-05
5.077258923e-05
5.075696435e-05
5.076782446e-05
5.087355717e-05
5.086167946e-05
5.086554353e-05
5.086060504e-05
5.087439232e-05
5.100182685e-05
5.100698046e-05
5.100696191e-05
5.100248501e-05
5.102036868e-05
5.110088042e-05
5.111275065e-05
5.112037583e-05
5.109456239e-05
5.110558982e-05
5.121788338e-05
5.123123885e-05
5.121769721e-05
5.120641157e-05
5.12196805e-05
5.134797567e-05
5.13064262e-05
5.132792202e-05
5.132701799e-05
5.133997633e-05
5.1446031e-05
5.144291972e-05
5.145226162e-05
5.146415235e-05
5.145815463e-05
5.153728009e-05
5.155999482e-05
5.15691574e-05
5.157487331e-05
5.156537248e-05
5.168172098e-05
5.168268449e-05
5.167011608e-05
5.16848779e-05
5.166571059e-05
5.177709239e-05
5.177347229e-05
5.176256459e-05
5.177342498e-05
5.176726274e-05
5.190528146e-05
5.19050424e-05
5.189016064e-05
5.188229969e-05
5.188585142e-05
5.201588548e-05
5.201825082e-05
5.198051963e-05
5.199297623e-05
5.199469499e-05
5.21126816e-05
5.211339546e-05
5.210382496e-05
5.211696094e-05
5.207642889e-05
5.221284044e-05
5.222168457e-05
5.222436409e-05
5.220332644e-05
5.22024354e-05
5.232077622e-05
5.230403771e-05
5.231326375e-05
5.230882494e-05
5.230427886e-05
5.241837003e-05
5.24253433e-05
5.242081671e-05
5.241869996e-05
5.242882438e-05
5.251404756e-05
5.2525478e-05
5.254963419e-05
5.249891888e-05
5.251780673e-05
5.262263392e-05
5.263065058e-05
5.261512193e-05
5.264995972e-05
5.262903123e-05
5.273595313e-05
5.271598476e-05
5.273983353e-05
5.273353478e-05
5.273229573e-05
5.284760024e-05
5.28369763e-05
5.285633412e-05
5.282578218e-05
5.28497546e-05
5.296169528e-05
5.293883333e-05
5.297079124e-05
5.294094334e-05
5.294875364e-05
5.303739058e-05
5.30724264e-05
5.306384711e-05
5.307446436e-05
5.304657011e-05
5.316690118e-05
5.31635833e-05
5.317810843e-05
5.318553212e-05
5.316347759e-05
5.329618431e-05
5.326277253e-05
5.327167337e-05
5.329010385e-05
5.325813685e-05
5.338481511e-05
5.338202032e-05
5.340149166e-05
5.340494911e-05
5.339796874e-05
5.35050041e-05
5.350379986e-05
5.349671324e-05
5.351912045e-05
5.352333906e-05
5.361411331e-05
5.361677954e-05
5.35832083e-05
5.359996385e-05
5.360664474e-05
5.369022689e-05
5.370688744e-05
5.368526392e-05
5.36842307e-05
5.369169888e-05
5.379688883e-05
5.37827354e-05
5.379545471e-05
5.378349331e-05
5.380454713e-05
5.390609456e-05
5.389614683e-05
5.391542629e-05
5.391278745e-05
5.38884319e-05
5.404142053e-05
5.403268808e-05
5.401241715e-05
5.399146832e-05
5.4026464e-05
5.412776392e-05
5.410549034e-05
5.41158145e-05
5.411268669e-05
5.412418745e-05
5.421296498e-05
5.422344567e-05
5.422110095e-05
5.420901261e-05
5.421510813e-05
5.432601601e-05
5.432335404e-05
5.43139811e-05
5.433946778e-05
5.433506529e-05
5.444184918e-05
5.44691156e-05
5.445018336e-05
5.442406571e-05
5.441684639e-05
5.455615192e-05
5.456123498e-05
5.456341904e-05
5.453187295e-05
5.456236331e-05
5.466545237e-05
5.469160815e-05
5.467032222e-05
5.465988066e-05
5.466795192e-05
5.47893795e-05
5.479768047e-05
5.475536302e-05
5.476567159e-05
5.478471683e-05
5.489462069e-05
5.489141247e-05
5.488677831e-05
5.487501323e-05
5.487827954e-05
5.498734068e-05
5.498245625e-05
5.501333565e-05
5.499603522e-05
5.497572808e-05
5.512278446e-05
5.511944892e-05
5.511382843e-05
5.509943789e-05
5.512664319e-05
5.52287186e-05
5.524418043e-05
5.522890422e-05
5.52176563e-05
5.521824127e-05
5.536726882e-05
5.535354574e-05
5.533875907e-05
5.535355126e-05
5.538341487e-05
5.549154526e-05
5.54980195e-05
5.551327299e-05
5.553895199e-05
5.551264324e-05
)
;

boundaryField
{
    upperWall
    {
        type            calculated;
        value           nonuniform List<scalar> 5(5.549154526e-05 5.54980195e-05 5.551327299e-05 5.553895199e-05 5.551264324e-05);
    }
    lowerWall
    {
        type            calculated;
        value           nonuniform List<scalar> 5(4.350540794e-05 4.354547131e-05 4.353499438e-05 4.352391353e-05 4.350674743e-05);
    }
    periodicX_half0
    {
        type            cyclic;
    }
    periodicX_half1
    {
        type            cyclic;
    }
    frontAndBack
    {
        type            empty;
    }
}


// ************************************************************************* //
