/*--------------------------------*- C++ -*----------------------------------*\
| =========                 |                                                 |
| \\      /  F ield         | OpenFOAM: The Open Source CFD Toolbox           |
|  \\    /   O peration     | Version:  v1706                                 |
|   \\  /    A nd           | Web:      www.OpenFOAM.com                      |
|    \\/     M anipulation  |                                                 |
\*---------------------------------------------------------------------------*/
FoamFile
{
    version     2.0;
    format      ascii;
    class       volScalarField;
    location    "7";
    object      mfpCellRatio_mixture;
}
// * * * * * * * * * * * * * * * * * * * * * * * * * * * * * * * * * * * * * //

dimensions      [0 0 0 0 0 0 0];


internalField   nonuniform List<scalar> 
500
(
4.403457096
4.406290462
4.405764129
4.405474039
4.403984722
4.442069078
4.442452596
4.44164732
4.440749373
4.442109783
4.473516978
4.47275732
4.47249378
4.472769715
4.472851022
4.501318094
4.500723798
4.500562636
4.501184447
4.501391393
4.528561137
4.528726097
4.527771764
4.527291206
4.528180587
4.55366159
4.553500526
4.555848898
4.556094913
4.55666118
4.582480872
4.580076849
4.581962788
4.582813529
4.582309765
4.606533171
4.607925091
4.608045225
4.607484759
4.607153917
4.630498527
4.632661238
4.63378306
4.632425331
4.632253693
4.657852179
4.657014779
4.657585046
4.657165485
4.656972881
4.682524527
4.683130624
4.679263162
4.681279547
4.681757252
4.705782821
4.706709555
4.705937447
4.706619914
4.706406807
4.7302705
4.730312665
4.731320107
4.729902116
4.731118306
4.755612977
4.756731917
4.754638827
4.756139644
4.756670514
4.779043089
4.779923056
4.779440939
4.78018085
4.780625571
4.804407845
4.804933868
4.805443915
4.803773013
4.805078649
4.828502732
4.827317688
4.829442331
4.827525384
4.825824626
4.852106336
4.852867976
4.852103075
4.853059155
4.851859784
4.875151071
4.875623673
4.875380418
4.875949832
4.874510715
4.899412166
4.899626623
4.897856724
4.898571991
4.897318369
4.923184509
4.922679277
4.923578177
4.922107336
4.922554643
4.946015075
4.944607997
4.945278089
4.944807781
4.945217821
4.96862504
4.970091496
4.967838896
4.969587361
4.966678818
4.99310603
4.99129519
4.99077277
4.990479743
4.990913989
5.015316793
5.01633025
5.014619727
5.016079207
5.015742083
5.039629302
5.040340271
5.038459618
5.038514682
5.040382905
5.063026246
5.06165752
5.062623474
5.060401612
5.061373921
5.084162419
5.08680155
5.087111902
5.086474802
5.086275436
5.109757726
5.109722968
5.108093551
5.109911628
5.108639983
5.133442981
5.13320931
5.132820561
5.133765594
5.133041982
5.156766823
5.155240599
5.155559942
5.156000222
5.15696968
5.178583138
5.181490835
5.178456733
5.178287903
5.176563539
5.202160279
5.202457885
5.199717492
5.199784972
5.200547886
5.226377463
5.226976696
5.224292607
5.223782323
5.226391261
5.248987094
5.245398108
5.247120998
5.246893376
5.247469569
5.269987967
5.269899514
5.267243292
5.268783242
5.270902096
5.290626761
5.29072034
5.292880516
5.291992484
5.289441525
5.314378409
5.311298242
5.315296572
5.316434016
5.31489741
5.337213838
5.336549742
5.338141699
5.334505754
5.336124397
5.357444915
5.356185136
5.358743538
5.359624565
5.358117367
5.380148703
5.381688961
5.380841352
5.381631678
5.380637037
5.403500216
5.404545216
5.404233564
5.404213459
5.402538537
5.425793169
5.429330233
5.425622956
5.427960529
5.429075648
5.448805565
5.449662859
5.448798775
5.451016407
5.448534849
5.470009508
5.471803208
5.472319123
5.473168697
5.474282191
5.492100032
5.495566549
5.494899975
5.493383152
5.494859161
5.518271073
5.518366541
5.518938227
5.516637061
5.516095737
5.539588022
5.540424155
5.539525122
5.537562166
5.539152426
5.55998658
5.5612537
5.560621502
5.558514694
5.559020519
5.583125084
5.584008267
5.582353565
5.582853922
5.582589663
5.607294715
5.606968144
5.605583648
5.605531594
5.603071284
5.62694943
5.627625309
5.626487564
5.625636332
5.628809751
5.649424496
5.648060208
5.646017066
5.646136145
5.647456497
5.671120786
5.668168601
5.669385797
5.668128925
5.669667654
5.691400964
5.692863666
5.692670976
5.690778703
5.691377538
5.712994351
5.715561546
5.715331468
5.71406954
5.711991168
5.736717451
5.735471071
5.736867995
5.736698919
5.73574065
5.756620783
5.755264512
5.757531375
5.756869244
5.758049834
5.78144324
5.7805999
5.781792734
5.779654156
5.782161203
5.800523353
5.801628902
5.804845406
5.801770675
5.80220073
5.823463344
5.825821943
5.825076589
5.82414858
5.82234031
5.8470329
5.842838149
5.846146524
5.846283804
5.847170951
5.867955782
5.866697574
5.866955426
5.868913165
5.867338728
5.886488291
5.888800341
5.888928804
5.891617238
5.891100726
5.912407824
5.911132939
5.909374861
5.912089564
5.909823434
5.932658901
5.930528477
5.929172348
5.930172803
5.930780854
5.954992889
5.954699672
5.953744266
5.952243707
5.952863338
5.974753661
5.973716369
5.971962007
5.974186453
5.973635624
5.995528935
5.995033065
5.993997767
5.996827136
5.992159317
6.014712433
6.017253798
6.015730259
6.015453596
6.014633882
6.036436199
6.035825712
6.036468561
6.035208283
6.035839363
6.057634951
6.05857479
6.057468729
6.056420017
6.058839201
6.077908996
6.078363034
6.080744953
6.07452488
6.078337486
6.098300974
6.098883915
6.09756998
6.099704761
6.099451909
6.119563315
6.118353896
6.12023241
6.11954769
6.120977466
6.141593302
6.140976934
6.144047491
6.140198133
6.142525066
6.163510137
6.162221254
6.163307519
6.160478367
6.163393502
6.182257809
6.184821322
6.18318396
6.18572106
6.182241561
6.204417344
6.205837007
6.206912604
6.206839668
6.205475101
6.227565371
6.225339158
6.225388242
6.226894828
6.226963374
6.248515779
6.246718722
6.249063988
6.249096407
6.250071774
6.270262192
6.271286768
6.269539526
6.271891458
6.27286588
6.29120997
6.291053122
6.28838089
6.29086063
6.291611539
6.309897493
6.310322065
6.309754384
6.309209111
6.310390351
6.330764284
6.330217545
6.330918602
6.328946396
6.332029896
6.352112113
6.350797679
6.353290057
6.353184948
6.349208625
6.37544671
6.377631696
6.37423931
6.372748275
6.374637921
6.396058014
6.393161296
6.395140643
6.394473255
6.396232172
6.415525539
6.416626651
6.417481306
6.417375106
6.41624927
6.437256047
6.437643867
6.437117507
6.440997853
6.43774121
6.462067436
6.463309848
6.46107089
6.459123421
6.458358018
6.481864903
6.482598445
6.483640365
6.480113573
6.48322198
6.503848464
6.506371901
6.504829962
6.504754248
6.505717749
6.526972727
6.529475437
6.52499181
6.525335033
6.527713869
6.550968636
6.551111777
6.550066229
6.5495498
6.549502547
6.572369836
6.572025989
6.574993192
6.573432835
6.572102072
6.59861839
6.598750582
6.59813004
6.595197414
6.599158027
6.624374965
6.624303321
6.623697193
6.621911403
6.621214238
6.650392779
6.649238304
6.649177306
6.650442092
6.653512663
6.680926125
6.681445285
6.684425675
6.686505945
6.68362569
)
;

boundaryField
{
    upperWall
    {
        type            calculated;
        value           nonuniform List<scalar> 5(6.680926125 6.681445285 6.684425675 6.686505945 6.68362569);
    }
    lowerWall
    {
        type            calculated;
        value           nonuniform List<scalar> 5(4.403457096 4.406290462 4.405764129 4.405474039 4.403984722);
    }
    periodicX_half0
    {
        type            cyclic;
    }
    periodicX_half1
    {
        type            cyclic;
    }
    frontAndBack
    {
        type            empty;
    }
}


// ************************************************************************* //
