/*--------------------------------*- C++ -*----------------------------------*\
| =========                 |                                                 |
| \\      /  F ield         | OpenFOAM: The Open Source CFD Toolbox           |
|  \\    /   O peration     | Version:  v1706                                 |
|   \\  /    A nd           | Web:      www.OpenFOAM.com                      |
|    \\/     M anipulation  |                                                 |
\*---------------------------------------------------------------------------*/
FoamFile
{
    version     2.0;
    format      ascii;
    class       volScalarField;
    location    "7";
    object      overallT_N2;
}
// * * * * * * * * * * * * * * * * * * * * * * * * * * * * * * * * * * * * * //

dimensions      [0 0 0 1 0 0 0];


internalField   nonuniform List<scalar> 
500
(
2070.300157
2070.775735
2070.965006
2071.477825
2070.952017
2086.69152
2086.785308
2085.98634
2086.226269
2086.743749
2099.830895
2099.883091
2099.866775
2099.670727
2099.781062
2111.759613
2111.377299
2111.890347
2111.132938
2111.398617
2122.744365
2122.446377
2122.980232
2122.37503
2122.749975
2133.373204
2133.210949
2133.340948
2133.448172
2133.200659
2143.664649
2143.884245
2143.935507
2143.819487
2143.546518
2153.198312
2153.626965
2153.818617
2153.756589
2153.303729
2163.007379
2163.700231
2163.01763
2163.237026
2162.828054
2173.131924
2172.909792
2173.204516
2172.928252
2172.697613
2183.232808
2182.205353
2183.097137
2182.734039
2182.48649
2191.808661
2192.887289
2192.360326
2192.196069
2192.207637
2201.967439
2201.65572
2201.939142
2201.962934
2201.975841
2210.895948
2211.051296
2211.269423
2211.161313
2211.101217
2220.507784
2220.363536
2220.346005
2220.191302
2220.65629
2229.945538
2230.047948
2229.856886
2229.619268
2229.584258
2239.047912
2238.115571
2238.930911
2238.247463
2238.250806
2247.520196
2247.841895
2247.66965
2247.575818
2247.592114
2257.555068
2256.813729
2256.636862
2257.029944
2257.04296
2266.060636
2265.753722
2265.528752
2265.774686
2266.304494
2275.417614
2274.782272
2275.061947
2275.497073
2275.044204
2283.780468
2283.876501
2283.82695
2283.609959
2283.725607
2292.39781
2292.60571
2292.717488
2292.837188
2292.480902
2301.436422
2300.955747
2300.979033
2300.9392
2301.01935
2309.450839
2309.957256
2309.590774
2309.856529
2309.646981
2318.003835
2319.073354
2318.840212
2318.408988
2318.212518
2327.096542
2326.869054
2327.078502
2327.253509
2327.307104
2335.819194
2336.660911
2335.315377
2335.630822
2335.802308
2344.517054
2344.760779
2344.059845
2343.54399
2344.316662
2352.920918
2352.424651
2352.835791
2353.190742
2352.934892
2361.61497
2361.116923
2361.300623
2361.908353
2360.833655
2369.933131
2370.582715
2369.560096
2369.722475
2370.126254
2378.32372
2378.714514
2378.353474
2378.447154
2378.163421
2387.026852
2386.853562
2387.0573
2386.335707
2386.757216
2394.824371
2394.88421
2395.657399
2395.675364
2395.301287
2402.994467
2403.954572
2403.843998
2403.035575
2403.60523
2411.541015
2411.268145
2411.474397
2411.811896
2411.29136
2420.13491
2419.43072
2419.515632
2420.027729
2420.136569
2428.359058
2428.228906
2428.045927
2428.333296
2427.933114
2436.541345
2436.08875
2436.459764
2436.072471
2436.075937
2444.755345
2444.692358
2445.270116
2444.790505
2444.447527
2452.668189
2453.071265
2453.539912
2453.189051
2452.767245
2461.650931
2461.787404
2461.50791
2461.03416
2461.785122
2469.243234
2469.425832
2469.199295
2469.488571
2469.387503
2476.847335
2476.592807
2477.036041
2477.605964
2477.49829
2485.310003
2485.33927
2485.03384
2485.357707
2485.680622
2493.585864
2493.353576
2493.570767
2493.055211
2493.231846
2501.188315
2501.672196
2501.385669
2501.148882
2501.602397
2509.946029
2509.515862
2509.510734
2509.239861
2509.071463
2518.165944
2517.729481
2517.470589
2517.431928
2517.636125
2526.220105
2525.935844
2526.494945
2526.113706
2525.558473
2533.940072
2533.835138
2533.657729
2534.000441
2534.281323
2541.405889
2541.363613
2541.237637
2541.200343
2541.726802
2549.67294
2549.189317
2550.159757
2549.747403
2549.01436
2557.305323
2558.110137
2558.29809
2558.13884
2557.534259
2565.066541
2565.944049
2566.35917
2566.349796
2565.602759
2573.770913
2573.024707
2573.140285
2573.856965
2573.214931
2580.899336
2580.742727
2581.50848
2580.851072
2581.27591
2589.529809
2589.089246
2589.249176
2588.852634
2589.177493
2597.020138
2596.785395
2597.464161
2597.414918
2597.689273
2604.915042
2605.823562
2605.405026
2605.586583
2604.544292
2613.150563
2613.167299
2613.036853
2613.247524
2613.16165
2621.3696
2620.85447
2620.325639
2620.489595
2620.420094
2628.77142
2628.524073
2627.904113
2628.797283
2628.898924
2637.090038
2636.587998
2635.651934
2635.720914
2635.811824
2644.045034
2643.522043
2643.822982
2643.35498
2643.601381
2651.908241
2652.208164
2652.040056
2651.464861
2651.405582
2658.862751
2658.87166
2658.904708
2659.595773
2659.307528
2665.753232
2665.889944
2666.500788
2667.090018
2666.505064
2673.650013
2674.643398
2674.118997
2674.967009
2674.120513
2681.277828
2681.378674
2682.408827
2681.7338
2682.172043
2689.647938
2689.924626
2689.418649
2689.037511
2689.666552
2696.865085
2696.755149
2697.108049
2697.594513
2696.988915
2704.473734
2704.294739
2704.341154
2703.969334
2704.349913
2711.741992
2712.19417
2712.469462
2712.061486
2712.30619
2719.649531
2719.502318
2720.24797
2720.532425
2720.252639
2727.609887
2727.870544
2727.103569
2727.836485
2728.008044
2735.186098
2735.470446
2735.476941
2735.103556
2735.795299
2742.746329
2743.660539
2743.542213
2742.975729
2743.583943
2749.49166
2750.295641
2750.620997
2750.345442
2751.021812
2758.94359
2758.767936
2757.825235
2757.881494
2758.399112
2765.992668
2766.141482
2765.682889
2766.410478
2766.617753
2773.536593
2773.006382
2773.443246
2773.74955
2774.442302
2781.333253
2780.235841
2780.603434
2780.974601
2781.549692
2788.411085
2789.062464
2788.808823
2788.788379
2788.088302
2796.277916
2796.304682
2796.54239
2795.417447
2795.93968
2804.463679
2804.393362
2803.769908
2804.171686
2804.214224
2812.553909
2812.336346
2812.337429
2812.197146
2812.228894
2819.865316
2820.147563
2820.994405
2820.101482
2819.221526
2827.863834
2828.410526
2828.621136
2828.862037
2827.75482
2836.385224
2836.339425
2836.677024
2836.096133
2836.041045
2843.602661
2844.267263
2844.376888
2844.206873
2843.835904
2851.680297
2852.856205
2852.284912
2852.059281
2851.977113
2860.631006
2861.040479
2860.483205
2860.076372
2860.883576
2870.040911
2869.440403
2869.501493
2869.902368
2869.583182
2878.315111
2877.876407
2877.917505
2877.748673
2878.251367
2887.56776
2887.997423
2887.086291
2887.008465
2886.783237
2896.79537
2897.720972
2897.316651
2897.460424
2896.676142
2907.563165
2907.504344
2907.031209
2907.552063
2907.958865
2920.381277
2920.592845
2920.322893
2920.734773
2919.973937
)
;

boundaryField
{
    upperWall
    {
        type            calculated;
        value           nonuniform List<scalar> 5(2930.070104 2927.913972 2930.782331 2929.928571 2928.972511);
    }
    lowerWall
    {
        type            calculated;
        value           nonuniform List<scalar> 5(2058.960139 2059.398547 2060.940102 2060.413183 2060.002444);
    }
    periodicX_half0
    {
        type            cyclic;
    }
    periodicX_half1
    {
        type            cyclic;
    }
    frontAndBack
    {
        type            empty;
    }
}


// ************************************************************************* //
