/*--------------------------------*- C++ -*----------------------------------*\
| =========                 |                                                 |
| \\      /  F ield         | OpenFOAM: The Open Source CFD Toolbox           |
|  \\    /   O peration     | Version:  v1706                                 |
|   \\  /    A nd           | Web:      www.OpenFOAM.com                      |
|    \\/     M anipulation  |                                                 |
\*---------------------------------------------------------------------------*/
FoamFile
{
    version     2.0;
    format      ascii;
    class       volScalarField;
    location    "7";
    object      p_O2;
}
// * * * * * * * * * * * * * * * * * * * * * * * * * * * * * * * * * * * * * //

dimensions      [1 -1 -2 0 0 0 0];


internalField   nonuniform List<scalar> 
500
(
0.2933111522
0.2935130616
0.2935424539
0.2936425822
0.2934070489
0.2936515283
0.2936754376
0.293738332
0.2937729097
0.2937132958
0.2936265443
0.2938591109
0.294046662
0.2939718119
0.293889332
0.2940384034
0.2942711175
0.2941602852
0.293977476
0.294058838
0.2942789295
0.2940695831
0.2941446373
0.2940809427
0.2941527501
0.2941330442
0.2942102995
0.2942406434
0.2938179948
0.2938653383
0.294273852
0.2943928197
0.2942080123
0.2942695173
0.2940346809
0.2939974954
0.2939033495
0.294032784
0.2940229103
0.2944649046
0.2941087653
0.294135043
0.2940709602
0.2940135724
0.2939976601
0.2938907696
0.2942162066
0.2939388539
0.2940458059
0.2940192607
0.2939020808
0.29407738
0.2943975172
0.2939349466
0.294175052
0.2940130126
0.2942141348
0.2939956128
0.2944628565
0.2939962369
0.2938483636
0.294133009
0.2941978637
0.2941284511
0.2944438506
0.2941853777
0.2939311341
0.2945494823
0.2944225949
0.2941206092
0.2941641318
0.2944048173
0.2943778934
0.2941257959
0.2939527313
0.2941954555
0.2940162493
0.2942944362
0.2943582397
0.2941590287
0.2939360923
0.2944171031
0.2943565396
0.2940609349
0.2943404525
0.2938742465
0.2942281325
0.2939374596
0.2940903076
0.2941311068
0.2939707362
0.2940465363
0.293907782
0.29431919
0.2940592437
0.2943128842
0.2939731584
0.2943206552
0.2943590246
0.2943282154
0.2940392307
0.2941452239
0.2941268417
0.2942577053
0.2938940249
0.2938863149
0.2940752392
0.2942018407
0.2942400082
0.2941066394
0.2939138989
0.2937381013
0.2940418767
0.2938584729
0.2941397284
0.2940506399
0.2940111847
0.2939129708
0.2941933839
0.2941347511
0.2939270216
0.2937433858
0.2939539554
0.2938057481
0.2936686297
0.2940927854
0.294048596
0.2937531146
0.2940871469
0.2938335688
0.2938694819
0.2939900429
0.2938661025
0.2939489441
0.2939665705
0.2938708838
0.2940022633
0.2937793357
0.2939153624
0.2937259845
0.2937341768
0.2939053956
0.293810816
0.2937983061
0.2938880108
0.2938911339
0.2935650825
0.2938013335
0.2937802038
0.2939764833
0.2936625262
0.2935724021
0.293851413
0.2937558848
0.2936948074
0.2939101405
0.2935740442
0.2936884315
0.293935985
0.2938224468
0.2938089435
0.2939934593
0.2938393944
0.2938598174
0.2936778813
0.2938969429
0.2939055735
0.2937551121
0.293860291
0.2936031842
0.2937420855
0.2940974511
0.2937817037
0.2938339482
0.2939107733
0.2938770534
0.2940310725
0.2937793756
0.2937921875
0.2937421025
0.2936475879
0.2939790081
0.2933926406
0.2935936467
0.2936409029
0.2936210441
0.2936058045
0.2935287082
0.2935849156
0.2936150333
0.2934868884
0.2935313974
0.2935301244
0.2935212363
0.2935545131
0.2936950963
0.2936560329
0.293705847
0.2935628399
0.293670117
0.2936514378
0.2936771092
0.2937204069
0.2937737717
0.2936751579
0.293510356
0.2936827388
0.2936976446
0.293524056
0.293676257
0.2933501195
0.2934285017
0.2935701192
0.2935212274
0.2932464078
0.2933021346
0.2936549993
0.2934446532
0.2930760535
0.293377774
0.2932812417
0.2931331913
0.2933155306
0.2933185841
0.2931312182
0.2931139201
0.2931382362
0.2931842383
0.2932803159
0.2931599232
0.2933146327
0.2928840512
0.2929440204
0.2933390557
0.2931308171
0.2932326189
0.2930623527
0.2932924357
0.2932716719
0.2929289034
0.293115525
0.2933462537
0.2933845301
0.2932014878
0.29315069
0.2935401903
0.293344389
0.2933724827
0.2931963599
0.2929568588
0.2932113313
0.2931645311
0.2932540729
0.2932322754
0.2930193021
0.2930856219
0.2930738266
0.2929802442
0.293223006
0.2927348002
0.2930835663
0.2928944807
0.2933269112
0.2930942957
0.293112552
0.2932753456
0.2933396423
0.2929785489
0.2933849075
0.2932486454
0.293524784
0.2931351846
0.2934563745
0.2932200615
0.2933506385
0.2935541977
0.2931803321
0.2932609273
0.2932295787
0.2932757215
0.2931582422
0.2930064614
0.292789636
0.2928611915
0.2931196068
0.293232057
0.2930917665
0.2932488291
0.2929985262
0.2930960124
0.2930046373
0.293094024
0.2929466924
0.2931959248
0.2930063333
0.2931049965
0.2930946848
0.2927117659
0.2928910369
0.2930961789
0.2928534972
0.2929788892
0.292711144
0.2929320124
0.2933517412
0.2930802825
0.2929536612
0.2931680265
0.2927084278
0.2930149391
0.2929033347
0.2929630023
0.2930635739
0.2928997212
0.2930872571
0.293147152
0.2933024924
0.2930980915
0.2928471275
0.2927891491
0.292967961
0.2931131781
0.2931248277
0.2930412471
0.2931554262
0.2925440341
0.293142121
0.2932567624
0.2930223137
0.2928379847
0.2930165178
0.2929942846
0.2929291307
0.2928940686
0.293027458
0.2928167636
0.2930816891
0.2930100061
0.2928140384
0.2930195938
0.2927119986
0.2930686007
0.2930032106
0.2928546538
0.292842612
0.2930638239
0.2926249232
0.2931203971
0.2930772759
0.292842929
0.2929378177
0.2926408778
0.2928970373
0.2928844655
0.2928251069
0.2927635527
0.2928357492
0.2928543106
0.2929468739
0.2928403419
0.2927441393
0.2927255703
0.2927614487
0.2932308844
0.2926349922
0.2928979463
0.2928625129
0.2928407769
0.293066995
0.292887786
0.2928829578
0.29282524
0.2927090709
0.292622283
0.2925625203
0.2927557647
0.2928202495
0.2925378367
0.2926291087
0.2927579146
0.2928418034
0.2927308083
0.2930908392
0.2929105587
0.2927619844
0.2927930678
0.2929758035
0.2929317936
0.2923234183
0.2927278468
0.2927452918
0.292778334
0.2927189653
0.2930830147
0.2928174463
0.2927371348
0.2926341934
0.2929667828
0.292833576
0.29254371
0.2930849991
0.2931330577
0.2929652662
0.2927464315
0.2927913569
0.2925758143
0.2928406251
0.2930022416
0.2929026974
0.2929296718
0.2927753557
0.2930774158
0.2931966445
0.2929054625
0.2927899799
0.2928866966
0.2929877834
0.2929352177
0.2927911687
0.293022399
0.292902229
0.2926709604
0.293005301
0.2931366748
0.2928821718
0.2928822469
0.2930761847
0.2929859975
0.2926098918
0.2930854161
0.2932388206
0.2926037567
0.2926464884
0.2928955078
0.2930152503
0.2929981239
0.2932284394
0.2928826456
0.2931245206
0.2928526216
0.2929268488
0.293091643
0.2927623979
0.2928227255
0.2928949163
0.2930671169
0.2930213558
0.2929709828
0.29303837
0.2931549462
0.292743272
0.2932354342
0.2931759387
0.2930342896
0.2931587966
0.2930966671
0.2931957886
0.2934929766
0.2929519258
0.2930323556
0.2929828959
0.2931327192
0.2933885489
0.2927483168
0.2929062927
0.293456125
0.2930685179
0.2931114213
0.2931221202
0.2931374234
0.293467576
0.2933358907
0.2934237727
0.2929461148
0.2931133168
0.2934132462
0.2932258002
0.2935249387
0.2932843046
0.2933939986
0.293323483
0.2931726243
0.292971362
0.2932561672
0.2930923993
0.2929942528
0.2930535808
0.2932803794
0.2938080148
0.2932507322
0.2934416567
0.2934648267
0.2932080258
0.2936379131
0.293307759
0.2937593293
0.293560841
0.2932821833
0.293243746
0.2934116012
)
;

boundaryField
{
    upperWall
    {
        type            calculated;
        value           nonuniform List<scalar> 5(0.2926874581 0.292574067 0.2919333074 0.2923201031 0.2921333883);
    }
    lowerWall
    {
        type            calculated;
        value           nonuniform List<scalar> 5(0.2944587296 0.2943617682 0.2946530154 0.2948742702 0.2944885404);
    }
    periodicX_half0
    {
        type            cyclic;
    }
    periodicX_half1
    {
        type            cyclic;
    }
    frontAndBack
    {
        type            empty;
    }
}


// ************************************************************************* //
