/*--------------------------------*- C++ -*----------------------------------*\
| =========                 |                                                 |
| \\      /  F ield         | OpenFOAM: The Open Source CFD Toolbox           |
|  \\    /   O peration     | Version:  v1706                                 |
|   \\  /    A nd           | Web:      www.OpenFOAM.com                      |
|    \\/     M anipulation  |                                                 |
\*---------------------------------------------------------------------------*/
FoamFile
{
    version     2.0;
    format      ascii;
    class       volScalarField;
    location    "7";
    object      rhoM_mixture;
}
// * * * * * * * * * * * * * * * * * * * * * * * * * * * * * * * * * * * * * //

dimensions      [1 -3 0 0 0 0 0];


internalField   nonuniform List<scalar> 
500
(
2.340893897e-06
2.339586299e-06
2.339930594e-06
2.340198106e-06
2.340742661e-06
2.324990264e-06
2.324832229e-06
2.325082239e-06
2.325541442e-06
2.324919177e-06
2.312112914e-06
2.31248967e-06
2.312675982e-06
2.312560651e-06
2.312406409e-06
2.301023377e-06
2.301300417e-06
2.301329296e-06
2.300878293e-06
2.300882593e-06
2.289997555e-06
2.289869931e-06
2.290466796e-06
2.290512756e-06
2.290121389e-06
2.27991474e-06
2.280014591e-06
2.279109754e-06
2.278819778e-06
2.278505106e-06
2.268434943e-06
2.26960262e-06
2.268695714e-06
2.268366851e-06
2.26836236e-06
2.258863391e-06
2.258246944e-06
2.258253846e-06
2.258586385e-06
2.258757378e-06
2.249660879e-06
2.248777254e-06
2.248158935e-06
2.248787243e-06
2.248802049e-06
2.23899517e-06
2.239328286e-06
2.239128085e-06
2.239273314e-06
2.239285587e-06
2.229606252e-06
2.229235317e-06
2.231177172e-06
2.230062704e-06
2.229852115e-06
2.220677663e-06
2.220607105e-06
2.220757671e-06
2.220608402e-06
2.220497184e-06
2.21152881e-06
2.211621635e-06
2.211234198e-06
2.211854819e-06
2.211465129e-06
2.202172314e-06
2.201575049e-06
2.20275437e-06
2.202061852e-06
2.201749433e-06
2.193555663e-06
2.193235613e-06
2.19343889e-06
2.193065521e-06
2.192818552e-06
2.184257155e-06
2.184047487e-06
2.183864275e-06
2.184641041e-06
2.183889826e-06
2.175374958e-06
2.17599826e-06
2.175185067e-06
2.175910427e-06
2.176548426e-06
2.166910405e-06
2.166807163e-06
2.166993429e-06
2.166577759e-06
2.167068944e-06
2.158871575e-06
2.158631065e-06
2.158669006e-06
2.158671193e-06
2.159122389e-06
2.150424608e-06
2.150097577e-06
2.150909684e-06
2.150755294e-06
2.151252293e-06
2.141946606e-06
2.141990796e-06
2.141831447e-06
2.142592323e-06
2.142243359e-06
2.133992572e-06
2.134638724e-06
2.134423381e-06
2.134580912e-06
2.13439823e-06
2.126220972e-06
2.125568138e-06
2.126650884e-06
2.125897698e-06
2.12711233e-06
2.117869721e-06
2.118484352e-06
2.118647438e-06
2.118871643e-06
2.118713336e-06
2.110284957e-06
2.109922481e-06
2.110522686e-06
2.110035248e-06
2.109954668e-06
2.102096262e-06
2.101951999e-06
2.102452747e-06
2.102643114e-06
2.101768285e-06
2.094365598e-06
2.09477826e-06
2.094296807e-06
2.095348991e-06
2.094977718e-06
2.087364589e-06
2.086613153e-06
2.086238724e-06
2.086591109e-06
2.086522083e-06
2.078806349e-06
2.07891372e-06
2.079448827e-06
2.078653771e-06
2.07932234e-06
2.071157974e-06
2.071098075e-06
2.071313677e-06
2.071056899e-06
2.071391833e-06
2.063640193e-06
2.064019149e-06
2.063952756e-06
2.063951804e-06
2.063364565e-06
2.056680003e-06
2.055613837e-06
2.056653608e-06
2.056867465e-06
2.057442625e-06
2.049100065e-06
2.049096563e-06
2.050070569e-06
2.050147294e-06
2.049664715e-06
2.041646342e-06
2.041272736e-06
2.042269523e-06
2.042458849e-06
2.041400073e-06
2.034424053e-06
2.03573712e-06
2.035129809e-06
2.035245751e-06
2.03515212e-06
2.027971103e-06
2.028188036e-06
2.029015656e-06
2.028411329e-06
2.027751823e-06
2.021653049e-06
2.021717717e-06
2.020774146e-06
2.021275457e-06
2.022083158e-06
2.014419562e-06
2.01536649e-06
2.013922142e-06
2.013748824e-06
2.014234101e-06
2.007412501e-06
2.007592382e-06
2.007082333e-06
2.008380596e-06
2.007790023e-06
2.00151067e-06
2.001926808e-06
2.001159605e-06
2.000633665e-06
2.001224203e-06
1.994709192e-06
1.994186083e-06
1.994525992e-06
1.994202853e-06
1.994457587e-06
1.987609488e-06
1.987385321e-06
1.98752392e-06
1.987459418e-06
1.988073461e-06
1.981184958e-06
1.980015107e-06
1.981300126e-06
1.980331892e-06
1.980003445e-06
1.974309458e-06
1.974227603e-06
1.974364375e-06
1.973537781e-06
1.974469712e-06
1.968115524e-06
1.967449424e-06
1.967365345e-06
1.967245184e-06
1.966683758e-06
1.961793745e-06
1.960595628e-06
1.960838783e-06
1.961452007e-06
1.960898871e-06
1.954182469e-06
1.954040078e-06
1.953886638e-06
1.954637048e-06
1.954715138e-06
1.948149981e-06
1.947831786e-06
1.948169018e-06
1.948730947e-06
1.948245984e-06
1.942583899e-06
1.942197564e-06
1.942353267e-06
1.942916814e-06
1.94270543e-06
1.936213557e-06
1.935799556e-06
1.936346946e-06
1.936071051e-06
1.936095651e-06
1.929334792e-06
1.929331378e-06
1.929828296e-06
1.929815654e-06
1.930417355e-06
1.923890048e-06
1.923635544e-06
1.923969004e-06
1.924413581e-06
1.923250573e-06
1.917657835e-06
1.917973592e-06
1.918692105e-06
1.918658657e-06
1.918330364e-06
1.911925039e-06
1.912761863e-06
1.912395842e-06
1.912822856e-06
1.912261452e-06
1.906459388e-06
1.905983464e-06
1.906162527e-06
1.906711878e-06
1.906487765e-06
1.900750282e-06
1.899850566e-06
1.90007984e-06
1.900450232e-06
1.90101433e-06
1.894289647e-06
1.894531022e-06
1.894098904e-06
1.894283937e-06
1.894521893e-06
1.889106972e-06
1.889349832e-06
1.888906842e-06
1.888960352e-06
1.888681213e-06
1.882490697e-06
1.882650209e-06
1.8823475e-06
1.882977005e-06
1.882177464e-06
1.877634074e-06
1.877272484e-06
1.876255025e-06
1.877274668e-06
1.877178908e-06
1.871521732e-06
1.87100986e-06
1.871117593e-06
1.871454004e-06
1.871933846e-06
1.865534456e-06
1.866659405e-06
1.865796531e-06
1.865598934e-06
1.865479259e-06
1.860193557e-06
1.860502188e-06
1.860408854e-06
1.859793573e-06
1.860335975e-06
1.855716602e-06
1.855054254e-06
1.854834214e-06
1.854134589e-06
1.854276348e-06
1.849029417e-06
1.849320867e-06
1.849733096e-06
1.848948254e-06
1.84969328e-06
1.843735923e-06
1.844475977e-06
1.844959783e-06
1.844558092e-06
1.84439159e-06
1.83835914e-06
1.838431911e-06
1.838704206e-06
1.839047176e-06
1.838997556e-06
1.833319647e-06
1.833659351e-06
1.834261134e-06
1.833641941e-06
1.833880755e-06
1.82818567e-06
1.828436189e-06
1.828744801e-06
1.827994331e-06
1.829313959e-06
1.82366504e-06
1.822987855e-06
1.823483776e-06
1.823659464e-06
1.823785445e-06
1.81843996e-06
1.818505935e-06
1.818489007e-06
1.81873241e-06
1.818652806e-06
1.813302829e-06
1.813092275e-06
1.813403755e-06
1.813641576e-06
1.81304935e-06
1.808500336e-06
1.808334631e-06
1.807700001e-06
1.809697064e-06
1.808287931e-06
1.803721458e-06
1.803473823e-06
1.803865941e-06
1.803261589e-06
1.803334306e-06
1.798629469e-06
1.798959852e-06
1.79833744e-06
1.798544395e-06
1.798217863e-06
1.793399112e-06
1.793562266e-06
1.792758033e-06
1.793808892e-06
1.793247339e-06
1.788304517e-06
1.788738929e-06
1.788422606e-06
1.7891311e-06
1.788357865e-06
1.784025285e-06
1.783379202e-06
1.783790861e-06
1.782926196e-06
1.784017375e-06
1.778790661e-06
1.778514368e-06
1.778245561e-06
1.778337609e-06
1.778620015e-06
1.773352742e-06
1.774021958e-06
1.774117744e-06
1.773622228e-06
1.773588742e-06
1.768947123e-06
1.769344842e-06
1.768569783e-06
1.768461969e-06
1.768312524e-06
1.763724922e-06
1.763605061e-06
1.764071641e-06
1.763422769e-06
1.763230777e-06
1.759151641e-06
1.759193336e-06
1.759971558e-06
1.759263539e-06
1.759184414e-06
1.755054803e-06
1.75486098e-06
1.755036785e-06
1.755196941e-06
1.755012312e-06
1.75028421e-06
1.750514972e-06
1.750453622e-06
1.750980592e-06
1.750019354e-06
1.745651397e-06
1.746081193e-06
1.74543504e-06
1.74518458e-06
1.746425621e-06
1.740624133e-06
1.739942441e-06
1.740652216e-06
1.741283356e-06
1.740710612e-06
1.736143901e-06
1.736919805e-06
1.736235459e-06
1.736581079e-06
1.736027764e-06
1.73192875e-06
1.731743507e-06
1.731497452e-06
1.731554516e-06
1.731703383e-06
1.72733435e-06
1.727226698e-06
1.727377226e-06
1.726464671e-06
1.727177192e-06
1.721899012e-06
1.72173709e-06
1.722269978e-06
1.722615998e-06
1.722875038e-06
1.717737197e-06
1.717648157e-06
1.717488373e-06
1.718181782e-06
1.717430114e-06
1.71309625e-06
1.712571558e-06
1.713004364e-06
1.712797558e-06
1.712610269e-06
1.708411081e-06
1.707675688e-06
1.7087654e-06
1.708577741e-06
1.708149824e-06
1.703514568e-06
1.703361339e-06
1.703546866e-06
1.703613763e-06
1.703714192e-06
1.699066488e-06
1.699120874e-06
1.69845163e-06
1.698668584e-06
1.699141512e-06
1.69357511e-06
1.693540963e-06
1.693578374e-06
1.694319549e-06
1.693297541e-06
1.68827553e-06
1.688314005e-06
1.688559799e-06
1.689110068e-06
1.689014946e-06
1.683081688e-06
1.683415846e-06
1.683408193e-06
1.683271157e-06
1.682415038e-06
1.677287483e-06
1.677117431e-06
1.676291442e-06
1.675851747e-06
1.676489295e-06
)
;

boundaryField
{
    upperWall
    {
        type            calculated;
        value           nonuniform List<scalar> 5(1.672560603e-06 1.675098557e-06 1.671318793e-06 1.669634019e-06 1.672102937e-06);
    }
    lowerWall
    {
        type            calculated;
        value           nonuniform List<scalar> 5(2.350842436e-06 2.348640899e-06 2.352144427e-06 2.351729799e-06 2.350385578e-06);
    }
    periodicX_half0
    {
        type            cyclic;
    }
    periodicX_half1
    {
        type            cyclic;
    }
    frontAndBack
    {
        type            empty;
    }
}


// ************************************************************************* //
