/*--------------------------------*- C++ -*----------------------------------*\
| =========                 |                                                 |
| \\      /  F ield         | OpenFOAM: The Open Source CFD Toolbox           |
|  \\    /   O peration     | Version:  v1706                                 |
|   \\  /    A nd           | Web:      www.OpenFOAM.com                      |
|    \\/     M anipulation  |                                                 |
\*---------------------------------------------------------------------------*/
FoamFile
{
    version     2.0;
    format      ascii;
    class       volScalarField;
    location    "7";
    object      translationalT_O2;
}
// * * * * * * * * * * * * * * * * * * * * * * * * * * * * * * * * * * * * * //

dimensions      [0 0 0 1 0 0 0];


internalField   nonuniform List<scalar> 
500
(
2075.883191
2075.81929
2076.084637
2077.177043
2076.607508
2090.793068
2090.183042
2090.668337
2091.68645
2091.203121
2102.73001
2103.823599
2104.379414
2104.994537
2104.193638
2115.463485
2115.580551
2115.66089
2116.454442
2115.820559
2127.376567
2125.318559
2126.776579
2127.182632
2127.31478
2137.679101
2136.846061
2136.580191
2136.803539
2137.732745
2148.339966
2147.5651
2147.394718
2148.627734
2147.706719
2155.998365
2156.760072
2156.947934
2158.128069
2158.861422
2165.030304
2166.286183
2166.386413
2166.508256
2166.620781
2175.612001
2177.502011
2174.887653
2175.669774
2175.67832
2185.003869
2186.002216
2185.298611
2184.859646
2185.310708
2195.073474
2195.845795
2194.030022
2196.419391
2193.750828
2203.421744
2203.905916
2202.954054
2202.7943
2206.100704
2213.557576
2212.939574
2214.810027
2213.152526
2213.213777
2221.518831
2222.871854
2222.808587
2221.842677
2222.388979
2232.610313
2231.896941
2232.63091
2232.950512
2232.015748
2239.306895
2241.953671
2241.013754
2240.92424
2240.375692
2248.74515
2249.394026
2247.869991
2250.39574
2249.245478
2258.197879
2258.105954
2258.312407
2259.162239
2258.386632
2269.182648
2267.50171
2267.940672
2267.524739
2267.238378
2276.320284
2276.806312
2274.918537
2275.910515
2274.756453
2284.126365
2285.372079
2285.13803
2284.946778
2284.890836
2293.31614
2293.454392
2294.066995
2291.989877
2293.058465
2302.653244
2302.968207
2302.11798
2302.212804
2300.737751
2311.531633
2309.670911
2310.327123
2311.21968
2310.727159
2318.129719
2318.902338
2318.312477
2320.028158
2318.169067
2326.413804
2327.799211
2327.446691
2327.357211
2326.450549
2334.470539
2337.828732
2335.977117
2336.438751
2335.288214
2344.119547
2344.294618
2343.936078
2344.261099
2344.608123
2354.149831
2352.609933
2353.33249
2353.593716
2352.948434
2361.299522
2360.31295
2363.115854
2360.48734
2361.157097
2369.87958
2369.590069
2368.981594
2369.304266
2368.441918
2378.434551
2378.469967
2377.906997
2377.852383
2377.103093
2388.259362
2388.542464
2385.205811
2387.162298
2386.404362
2396.141153
2396.069643
2396.468582
2395.775849
2394.778634
2404.364273
2404.624416
2403.645208
2403.209704
2404.968644
2411.869513
2411.815375
2410.690708
2412.658962
2410.943939
2419.470813
2418.134698
2418.512172
2421.626878
2419.599447
2427.278054
2428.090812
2428.156126
2427.179159
2427.124205
2436.446028
2435.485661
2436.486063
2436.921961
2436.436202
2444.999618
2444.34387
2443.487172
2443.632107
2445.40281
2452.8558
2453.05137
2452.798786
2453.339952
2455.475505
2459.305783
2461.245019
2459.333023
2461.487666
2459.477414
2468.608915
2469.732438
2468.781868
2467.985285
2468.582576
2476.403968
2477.067549
2477.267483
2476.862339
2476.650364
2485.380392
2486.07542
2484.034937
2484.992984
2483.471177
2495.286658
2492.532039
2494.741894
2494.992981
2493.407965
2502.699628
2502.375901
2503.74753
2501.923092
2501.062469
2510.255351
2511.577738
2511.044336
2510.173848
2508.407961
2519.202017
2518.89563
2518.644311
2518.52109
2516.375348
2526.633035
2526.735533
2527.002206
2527.806123
2524.318189
2533.289517
2533.951815
2533.343183
2532.972893
2531.408683
2542.530288
2540.944424
2541.052922
2541.013533
2542.376233
2549.896214
2550.347842
2548.645729
2550.898352
2550.947064
2559.07619
2559.030813
2558.735122
2557.856305
2558.864747
2566.711472
2565.365776
2566.534511
2565.899224
2564.181298
2573.236199
2574.46426
2572.100302
2573.570533
2573.549545
2581.698719
2581.882768
2583.860791
2582.636077
2582.459417
2589.761729
2589.573939
2589.343686
2589.286132
2589.11031
2596.440668
2596.625808
2597.409198
2597.148354
2597.867571
2604.585825
2605.432586
2604.907713
2606.855845
2606.810604
2613.46902
2613.248859
2616.256864
2613.579265
2614.511534
2620.882921
2620.654215
2620.856306
2620.94888
2620.292128
2628.242089
2629.963916
2628.706143
2628.551693
2628.729127
2635.88294
2636.118532
2636.565514
2637.814293
2637.268905
2642.954633
2644.898593
2644.478205
2643.230621
2643.162508
2651.832682
2651.265263
2651.41374
2650.876751
2651.18507
2657.308196
2657.49916
2658.704119
2658.076052
2658.066824
2665.766886
2667.339896
2666.236224
2666.589318
2665.260059
2674.251497
2671.737251
2673.325734
2674.630944
2672.116248
2680.684069
2680.498151
2680.785694
2680.655107
2680.570181
2688.581512
2689.166409
2688.181673
2688.483928
2688.682869
2696.299795
2695.475983
2695.593387
2695.056987
2696.418864
2703.604769
2704.019841
2703.721927
2704.307479
2705.336635
2711.064002
2711.704832
2711.053416
2709.687936
2710.82184
2718.305429
2719.832332
2718.234421
2717.738041
2718.20414
2726.361647
2725.574095
2726.454083
2725.331375
2727.14446
2734.820977
2734.815328
2733.325563
2731.443008
2732.658593
2740.942906
2742.92319
2741.382976
2743.17829
2742.641436
2748.882058
2748.447072
2749.345522
2748.60386
2751.02478
2758.230716
2757.22302
2758.192861
2756.515334
2758.404359
2762.500141
2765.457853
2765.40165
2764.948126
2765.338487
2769.726528
2772.492312
2773.836013
2772.743874
2769.929634
2779.545565
2779.797685
2781.48551
2778.782882
2780.518833
2788.676461
2786.177238
2787.423252
2787.335213
2788.44771
2794.449846
2794.826772
2794.881982
2794.705818
2794.412213
2802.367858
2801.965836
2802.293864
2802.621934
2802.616175
2809.439311
2810.356873
2810.569733
2810.255463
2809.676082
2817.404781
2818.116875
2816.554652
2818.709067
2818.530752
2824.579703
2825.313852
2825.143196
2827.399298
2825.423509
2832.539395
2833.691389
2832.727883
2834.197199
2834.588951
2840.196535
2840.405035
2843.906683
2839.45868
2840.28016
2846.36118
2846.588221
2849.829228
2847.197073
2848.61739
2855.876652
2855.962405
2856.118028
2856.61024
2855.332351
2864.980602
2865.968985
2867.044146
2863.333835
2863.365744
2874.112186
2872.542528
2875.215173
2875.019393
2875.25831
2882.346848
2881.367097
2880.5297
2880.834693
2882.068767
2891.330753
2888.943724
2891.723935
2895.066344
2891.021356
2902.503549
2902.232172
2901.900138
2904.243158
2902.35964
2915.736536
2913.842468
2914.890047
2912.821915
2915.043936
)
;

boundaryField
{
    upperWall
    {
        type            calculated;
        value           nonuniform List<scalar> 5(2924.16116 2918.985479 2920.961998 2923.609173 2922.47811);
    }
    lowerWall
    {
        type            calculated;
        value           nonuniform List<scalar> 5(2064.939044 2063.560052 2063.774639 2068.092114 2066.519371);
    }
    periodicX_half0
    {
        type            cyclic;
    }
    periodicX_half1
    {
        type            cyclic;
    }
    frontAndBack
    {
        type            empty;
    }
}


// ************************************************************************* //
