# St ()          
# Time           	patch            	min              	max              	average          
0.0014           	object	1.3956846617e-04	5.3777413025e-04	4.6340847760e-04
