/*--------------------------------*- C++ -*----------------------------------*\
| =========                 |                                                 |
| \\      /  F ield         | OpenFOAM: The Open Source CFD Toolbox           |
|  \\    /   O peration     | Version:  v1706                                 |
|   \\  /    A nd           | Web:      www.OpenFOAM.com                      |
|    \\/     M anipulation  |                                                 |
\*---------------------------------------------------------------------------*/
FoamFile
{
    version     2.0;
    format      ascii;
    class       vectorField;
    location    "2.096e-05/lagrangian/dsmc";
    object      U;
}
// * * * * * * * * * * * * * * * * * * * * * * * * * * * * * * * * * * * * * //


99998
(
(1141.2513 425.978021 -1051.392987)
(-1210.454843 -1255.282389 303.2793014)
(772.7970963 -1767.245367 -836.9484288)
(-1682.410257 1037.583412 122.1816978)
(1644.836495 840.8366887 -1189.58366)
(-1108.683149 -67.29945845 2228.596788)
(83.22055047 -1310.536425 -702.5672459)
(-1953.398475 -894.9489002 616.7825524)
(135.9475013 3162.908175 -1246.806614)
(1784.936279 -2532.44702 -450.5149111)
(145.1206929 779.5119009 -1655.913016)
(-623.4583599 1967.036134 -227.4188499)
(-1294.380013 261.3939176 -48.87115675)
(1544.101768 -928.7686022 2002.547984)
(-896.0354624 681.2295703 -1537.624262)
(-884.9534709 -591.5590384 451.9393201)
(-1418.668381 -1477.88306 -399.9782633)
(-250.0489532 743.65853 -253.6326425)
(1963.370116 -1195.465399 -524.3674316)
(-846.0771602 223.8508988 -3044.005559)
(4085.249163 958.7493266 -1128.22747)
(387.9511568 2320.248581 -231.7952433)
(2825.558336 -769.4058604 -784.1885602)
(-124.3677412 2133.236347 -972.6472307)
(-903.9785251 -1150.66898 1897.374423)
(-1592.200213 -2639.08681 -391.8613785)
(-125.2127708 -366.337844 2231.163762)
(-381.5677286 1302.267642 1333.718841)
(251.6021548 2112.34755 -1287.338036)
(-1027.596946 -452.2317864 -3781.943712)
(-311.4519345 870.4201531 -321.8209726)
(213.6293184 -92.42214633 1018.397113)
(-473.4386535 -2305.564003 -1687.676366)
(-210.8298701 -934.7690199 -3262.308764)
(307.3315564 157.3662231 -1364.13685)
(642.4063134 -634.2981275 -2754.266549)
(1016.271201 752.1297566 -838.7507152)
(678.6315586 100.9219546 291.8949455)
(783.1028054 266.7318403 -1022.852988)
(1185.97292 84.75113749 -794.6446375)
(107.4013148 -525.4837559 158.9657551)
(1216.187716 2084.928252 -1162.170759)
(-385.4417887 -832.5099825 -386.4970194)
(-459.7835854 -369.6705447 738.3677577)
(-41.36262759 -971.6875642 -517.3540882)
(2566.814695 -25.74874788 -478.4826594)
(-1312.982307 -1794.673069 -1314.427513)
(-1433.654132 603.5361809 -636.6002379)
(-2097.159619 -1175.208982 -461.0972695)
(1456.726288 2088.749879 -1132.837961)
(464.4675383 1644.434634 -1326.748739)
(-2199.570703 2175.916174 -904.1708248)
(-1690.323918 -492.3608437 -1810.166105)
(-169.2873357 954.2537787 1565.126363)
(2370.91674 2515.810163 -1412.242746)
(1109.638883 640.642496 -1537.391479)
(-557.5805934 2000.630018 -421.7073076)
(-2136.513168 -2311.422158 -528.2400478)
(2608.483724 -182.1499813 437.516018)
(2603.725017 1609.654235 -42.8250679)
(211.1901129 522.2047569 -1050.405869)
(-778.8700031 -1825.968841 317.251928)
(-104.1763879 844.3926566 2225.902159)
(-2531.919073 -1887.14902 -1703.816963)
(2988.424388 -1630.911288 783.1090791)
(295.7881049 -129.0869848 -326.3254688)
(-1570.258565 1280.361914 776.9640903)
(-233.9119281 1829.03489 1733.74201)
(782.6075974 272.2716383 -149.1103374)
(180.9392661 -1492.602762 -1294.955911)
(-507.4196135 1635.774605 728.1585371)
(580.9169677 925.0985715 -680.5960438)
(-278.2914141 -446.7341764 449.2505059)
(1650.165244 -282.4904785 1107.682848)
(-106.2899931 -271.2007871 -1523.070473)
(971.4123747 4079.094906 -737.9699475)
(1376.652372 94.00265565 2540.417411)
(-1383.612729 1956.980724 -1255.929021)
(-3351.1475 1115.616124 -248.0455795)
(-1948.78665 2328.064906 1660.510576)
(1362.977911 -1695.285882 -1991.022633)
(443.6812583 429.7223523 49.33973938)
(-559.9121573 -154.5441505 -1226.125138)
(-1723.200775 -678.5931117 -2071.925249)
(902.2645538 -1847.718009 217.1465142)
(487.7277558 -418.0658677 -309.0144834)
(1388.832214 -2091.256168 -1714.904115)
(-1782.012757 -1499.883994 1983.825078)
(289.9573002 834.446677 -219.1623037)
(1958.413775 121.890148 2641.192214)
(-334.7861751 -2060.830035 -2166.117578)
(138.8151105 -1017.278083 -2264.385596)
(991.4087448 -170.7086466 1041.057831)
(-1672.542592 -206.884994 -817.2536944)
(-2165.721096 -1043.388616 -2257.208709)
(-1869.386756 775.5053105 402.9464624)
(-2145.008426 2088.274423 -170.7729576)
(797.1527688 511.0804848 51.05637345)
(1376.958748 -1564.317265 -2487.556701)
(405.1709687 307.4657213 -611.7735938)
(-2412.248422 -1338.366454 -750.4176815)
(133.8509649 3327.822637 -2464.032659)
(-126.8583995 -794.8950038 -343.0534369)
(-1031.142156 999.2815656 -851.197703)
(-1516.563933 -2088.22411 2814.731842)
(-493.6898962 1857.907619 1624.385549)
(921.8504429 -5150.753597 602.7528612)
(1535.50897 454.0710973 1898.714211)
(-635.2225901 -1595.616315 1229.675677)
(83.15468183 1455.559085 1032.340303)
(-1657.655634 1362.126969 -2302.663074)
(-286.9642048 910.502449 259.6340025)
(-1214.315049 1768.882376 296.3721816)
(1990.229563 52.55687512 971.0350881)
(1626.617506 -76.23646157 -2859.28839)
(-496.8043973 -1826.696792 -1254.991118)
(-5213.735291 -1928.070163 -236.800203)
(-129.0368965 -821.0340869 -103.7907953)
(1562.55454 2253.392743 1237.612627)
(-1053.439678 -1234.323875 -472.9228071)
(-1488.802192 424.9814383 2349.391943)
(-1980.331775 560.1024244 -440.8930719)
(1390.533778 -1051.976741 1738.9112)
(-54.34766135 -521.6094759 -508.2960802)
(-2703.227444 -1222.129844 -1745.536643)
(1073.062089 -662.4309367 -970.8354841)
(153.4863117 -202.2812943 3554.229655)
(-546.9671473 -637.4764372 1223.32001)
(-813.6440893 -523.5275633 -215.8817797)
(-262.6965511 -2395.1859 735.2833792)
(-491.8894025 -302.5552449 1225.201038)
(-959.6897158 -2720.948235 1339.072209)
(-935.5691664 1592.717853 -2554.855998)
(-1800.341352 545.078325 90.91864121)
(-497.2725733 2141.571044 -1047.881289)
(-681.1233297 -1983.005867 899.6999763)
(48.62955698 2210.627005 1428.645703)
(-1187.676236 2656.793175 -1505.808413)
(-99.13460996 -702.8690702 372.6089937)
(-1798.744511 -117.1757829 -566.1032661)
(601.1408118 484.459188 1157.049479)
(1257.15888 -1446.661622 -692.2206426)
(-662.6512476 444.371812 310.9986926)
(577.7351343 -1554.789442 -235.4473065)
(-40.52794348 -320.6127666 -2100.857433)
(-470.8239433 -1911.095188 1433.47712)
(595.9142706 1166.785836 -1202.053959)
(1760.837117 -549.888033 1437.812046)
(-664.3439719 870.836129 -2232.758912)
(829.3286266 -3807.750177 1713.733769)
(-483.3407575 -395.8437504 809.8897797)
(426.6603656 1455.672391 -2088.214383)
(-1052.509538 -1595.325672 1030.749266)
(-1497.418926 -1220.534469 726.3138973)
(-987.5501731 290.4550713 413.5733667)
(-262.7851183 344.1649607 -74.64548511)
(429.3783362 1714.158609 755.7443964)
(2771.050323 3285.973359 877.7864107)
(378.6911835 392.4041169 -516.4147588)
(-542.8899952 725.3246942 130.7195766)
(1283.246229 633.0556575 433.1755293)
(931.2930347 -681.7644255 38.62476869)
(549.8063968 -637.7342374 8.921263174)
(2788.430472 -833.2077997 1718.35997)
(-3623.341195 -818.4246857 1315.367922)
(475.9440306 -1189.12768 -1981.507517)
(1548.523068 341.1812164 405.5282717)
(-1406.875659 -531.616341 -625.799209)
(815.693539 -53.82637379 -76.90165727)
(-161.297794 -220.1119767 1460.42462)
(1331.246056 1144.294778 261.0316397)
(234.2354342 829.0494574 -1403.60754)
(848.3599712 -2432.612743 924.3506882)
(-294.1877957 416.7516666 -1172.481584)
(555.2382239 1790.585865 330.6189401)
(-1000.864103 1049.568574 227.3138459)
(169.1234073 282.2710198 -1881.741487)
(1347.621952 1604.974974 1082.928009)
(-329.1321282 1546.559817 308.3474473)
(41.47556563 1490.738638 -1029.584223)
(1846.883324 -1497.227951 -1618.547382)
(-565.8788993 1598.629933 -899.5130308)
(-860.2636419 1582.801903 -557.6703019)
(1928.109836 804.7777799 1407.295728)
(764.0579696 2140.986726 211.3819439)
(1469.617825 1243.785717 1591.163797)
(-1460.86294 -2089.362806 -4119.507682)
(51.25941382 -900.4280159 216.9193942)
(739.5268098 -761.447056 -2366.27581)
(198.9390227 -780.2830456 1876.100767)
(-2140.351194 -2416.52396 -2616.104434)
(75.65412541 -2436.817844 171.9818036)
(-102.1071378 2360.257465 -2995.540923)
(-962.1730507 -901.0149977 1419.962247)
(412.3618953 -1000.582022 149.6562743)
(579.4108025 160.3037181 -2399.403281)
(911.220569 1202.016915 -1018.980842)
(-122.458802 1458.67207 759.4511913)
(-666.1350761 19.42500809 -978.0379881)
(-1463.102046 1182.524558 1032.341874)
(-154.0846656 1205.436227 235.4780626)
(-935.0090464 -278.9843599 129.6707717)
(-731.3392748 1259.594323 -1366.016188)
(-2415.179532 71.49361989 -2873.094374)
(-1701.249251 -1669.483864 822.9937754)
(1501.799343 -1613.922941 1475.602775)
(1268.292879 -936.5679701 -1883.594945)
(-1520.645066 -18.85993125 -273.3928208)
(237.6263232 -1562.525904 1964.070481)
(273.7942483 405.2980741 -710.565687)
(-3320.186817 1352.184518 -1545.439487)
(1009.313677 1267.54698 289.8917601)
(752.6118193 -3139.328681 2773.412747)
(-1393.862966 2792.756881 49.17114272)
(-619.9207124 826.8318832 212.3168376)
(-1170.692463 146.9218647 1804.199175)
(2292.682613 100.4448268 418.672435)
(-249.6255668 359.2404059 -144.6677397)
(-1071.483807 -155.3677526 -738.5812683)
(577.5194475 514.9814479 980.0398096)
(271.9734717 -722.1642406 -2045.931736)
(1268.39696 -2309.969947 -1243.847482)
(-1873.706997 503.2205885 476.4517081)
(1030.986401 -752.2579883 119.7057607)
(573.2684219 3034.558801 -616.9225223)
(-298.0646178 910.6518086 388.1443569)
(-370.1692375 3.575811184 2215.759996)
(-492.4107962 -241.6249264 81.28364512)
(-1544.642074 -1587.381406 1780.859376)
(-1554.851368 -1358.99522 1473.864745)
(-668.401492 1695.210425 -155.8035199)
(-1181.585421 180.4550888 -449.2368954)
(-735.5985851 -569.6420179 -1284.262738)
(-2360.863519 -3006.236084 -1171.068278)
(1870.68686 613.9653965 95.37067187)
(-437.8853478 -1553.344108 2371.72156)
(583.5686659 -408.7783259 333.8993891)
(-837.9016048 958.2826904 1038.609905)
(-2193.559332 3005.061194 -1098.569512)
(896.3797651 1078.054258 -263.8368664)
(266.5782829 -949.21046 -794.7736229)
(-752.0776329 2383.596847 -1442.111839)
(-1019.351275 557.3963729 1201.359129)
(1095.699719 -1194.20097 3429.89014)
(953.3924369 -132.0764435 2187.226323)
(-1304.860055 2952.610742 1474.782524)
(516.4181039 -389.6546031 -1740.965882)
(-723.1152584 -933.4541911 1986.828999)
(544.4277866 -613.4243945 2637.619748)
(3167.706376 -1609.936247 -1038.145797)
(837.0793348 -255.9002988 -546.7220937)
(675.1988223 -2459.011603 1049.994825)
(-1617.151519 -1033.079959 830.1841024)
(187.1046611 1424.107549 2410.513008)
(917.6313265 -827.6922791 -902.239612)
(376.8364179 -1759.078636 -1383.403907)
(-650.5805703 -214.346613 -754.0534548)
(1269.390739 -465.5189286 -969.9704713)
(-342.4858775 806.4646525 -1309.317245)
(2443.885333 -744.4849383 -1477.296866)
(-1577.629618 2189.39502 -1891.620281)
(-674.3343275 1894.673747 291.0622454)
(8.53760347 2087.243525 2546.164853)
(2105.718925 1467.636152 474.2654368)
(797.8869788 -567.1917786 587.8647825)
(2090.319582 2416.499798 587.1754874)
(-1408.417081 1701.19677 -988.0325682)
(1767.003371 -363.0683287 -945.7743529)
(-1130.766087 -230.742297 -300.7827605)
(-1270.050129 -1029.707029 35.61652975)
(-1205.149086 626.967322 738.9481924)
(-33.50238023 -1639.556017 104.3115981)
(1483.560193 -144.7925366 1262.079271)
(561.0128904 1584.093324 -705.0846465)
(-50.37695599 -1828.496438 -761.366766)
(-62.50181835 -986.4015695 -1060.933188)
(-352.4638349 2599.130852 451.8049427)
(873.2462078 827.4368185 471.8091076)
(-22.7734898 1561.930958 422.5268636)
(-938.875043 192.3777021 452.6922358)
(-1478.8564 -384.6868085 -559.4400145)
(-393.3520719 -126.8790459 -3235.200493)
(2103.548821 -1996.53203 -790.7989252)
(751.2287578 -1300.261085 -3889.064495)
(2512.581933 -2438.674851 -1034.115651)
(-999.8509298 489.8540987 22.05607377)
(2224.352433 -1323.983035 1986.82663)
(-344.4557596 -1000.280332 1622.819188)
(-1142.349183 -452.030199 -1263.953822)
(-221.7577436 2370.255374 -3148.239055)
(1460.031699 622.7487244 -1147.096933)
(717.6793213 519.2384171 656.1246283)
(-2.142772534 953.9996631 3550.30726)
(-268.635297 -302.5691012 -166.4978574)
(-1312.748145 -373.3094989 -625.6363269)
(-1839.47996 1148.482634 1351.333854)
(-3171.243969 2011.923392 -2705.145693)
(-605.6751866 647.0033678 363.254317)
(-419.8167419 371.5211846 1166.056121)
(-1238.606519 1110.476391 -1025.924752)
(-908.0596081 945.440596 272.866739)
(-433.1655536 -1309.145697 2030.32557)
(-2097.686737 -474.9251388 2519.158364)
(-364.1743477 -1245.719824 -359.569443)
(-366.0104196 -1339.424528 -2758.668135)
(-616.344372 -12.83408699 -1469.4885)
(1.999840058 264.0673113 -3415.710983)
(-1451.138559 -268.5371762 526.4187583)
(-682.2653993 -1581.207037 681.5524893)
(1042.154153 1797.062651 1558.397982)
(1047.113354 -1621.281509 1707.903518)
(-2023.258801 -227.238001 -118.0569596)
(2286.050739 -956.3005428 -191.4080364)
(1491.487416 826.7784258 1548.195371)
(-2636.160773 -234.7482639 894.8920229)
(-9.119619128 1694.128896 -1858.970493)
(2301.370735 -1529.138492 1421.381443)
(-262.664378 -1339.54195 -2514.86083)
(-475.9243261 -697.0048324 -1771.963463)
(-414.0676311 -3554.503631 -2222.437803)
(-516.6046769 -122.7404421 1228.746564)
(-3060.102041 1024.941166 -1752.677834)
(1072.499205 1015.348376 -753.0968971)
(-436.5122934 -435.3635958 -1914.135868)
(171.73664 237.9114286 -1072.293224)
(-835.2081959 -14.37497208 -218.4483682)
(-784.3339497 491.8530582 -2282.859443)
(825.663034 -282.2765352 -463.6922257)
(-1037.709974 1277.163649 -2585.220238)
(-1728.173796 -1595.994887 -769.0381611)
(1176.34652 2357.609428 2764.426431)
(553.0828448 -135.8963101 -2113.672606)
(129.0971935 1396.157359 -284.3979656)
(-863.309143 494.2791886 394.9319088)
(-960.5311048 2794.435299 214.9659517)
(2066.53681 -558.100067 -85.29589516)
(385.3610016 204.2016189 1192.676474)
(715.330028 -366.2428235 -1219.587687)
(836.2963305 1092.830452 -1877.090139)
(1838.619587 1069.285028 -1466.676913)
(-971.5963371 221.1759272 -636.8381241)
(696.2928741 848.6077302 775.507487)
(627.0275398 1275.975312 667.3361805)
(1119.224943 -2078.880683 3166.010279)
(-451.5627472 -42.45418933 -3504.170326)
(894.7043428 -403.7368719 685.4442445)
(-864.5025489 1079.776514 -1179.56743)
(-475.1287231 -62.64527453 740.9974802)
(999.4070123 -253.4081713 679.5850877)
(153.4369239 395.0513178 48.28216557)
(-601.5706672 -767.3305563 165.7026871)
(-1828.145944 2870.840714 1199.846134)
(-617.4025433 1871.725069 595.817415)
(261.1154705 -2519.331204 83.0823114)
(1626.06164 -663.6172222 855.8098682)
(1229.178673 -572.422415 -29.94724931)
(2035.19567 1303.110138 476.3154364)
(-392.7722972 1296.674728 -583.4325381)
(144.5091162 1133.167519 -1459.455421)
(-499.4164246 1846.406608 -1881.01976)
(1981.254401 -631.1642802 -3623.341743)
(1036.606003 -2715.544931 1831.196394)
(1536.614823 1846.361657 744.4792229)
(1710.959982 990.3211096 -493.923998)
(-2585.964738 1014.499712 -622.4483333)
(-186.7445271 -3208.82701 1160.623753)
(-1853.570483 993.8240693 19.19957545)
(-1147.458888 2412.475978 -60.77601365)
(-375.6100376 -730.7212317 644.7492189)
(-517.8064266 996.6524842 -3115.659174)
(2066.811267 377.1376429 332.1375228)
(-853.9058384 -1367.132543 3535.404959)
(830.177426 -830.9409177 -3398.574682)
(251.1020855 1083.32348 -860.2628289)
(-170.3717862 2380.367191 611.2202362)
(-3740.067452 -999.9841019 -586.2395978)
(-79.80232497 -995.6383725 1042.030056)
(1799.695736 -283.6662041 735.0648872)
(-1240.278887 1186.250265 -1601.544756)
(541.2665798 -2462.826102 -1242.966078)
(2587.930983 -2028.582655 3504.554976)
(61.74039421 857.8989748 -2467.793698)
(-509.0097801 133.3862246 2359.6713)
(2023.867707 -506.4394552 692.9468865)
(2106.16918 -1847.158781 -4056.582593)
(-41.70504409 1044.004874 -1059.335095)
(-1292.071101 1376.087604 -1526.191737)
(2954.269759 151.3418492 1725.568795)
(-1241.55912 -3120.300356 418.8347169)
(104.2067531 -198.2999528 526.403356)
(-1023.094584 -1655.619727 -8.933421257)
(-942.8700606 1404.517121 -1898.222426)
(33.44825021 690.0256133 1491.230715)
(-1359.586829 1073.745019 634.139151)
(-2540.734979 -1279.646235 -454.7936157)
(659.8260765 729.8499844 -2420.03862)
(409.5852598 -1477.691436 94.67174483)
(2338.335097 -1373.008161 -3028.184384)
(-284.8800089 -1634.896994 1278.457491)
(-383.3287019 692.8438021 -1198.907325)
(2218.807358 -296.6649591 -1311.875093)
(-2783.443311 -313.9019945 -1357.444462)
(-1315.757406 1155.147055 -723.9030781)
(132.1275244 359.030705 1543.981511)
(2783.959775 -101.6369206 -6.217543286)
(1679.826365 1696.483231 2004.027367)
(1332.531339 -291.470116 2681.024283)
(261.1153518 -975.6205983 -257.5156978)
(-962.5054892 -924.6398224 -1514.921412)
(1739.48543 1093.680541 -150.2295074)
(1848.044877 -1291.573044 459.703881)
(-3557.636996 -179.7004561 869.8001735)
(-293.5516741 -1086.801339 -352.3758972)
(-220.3377906 -238.8919609 266.2870596)
(-1180.89135 -1376.50909 -1536.764711)
(3300.697381 -963.1642162 -532.9820892)
(2333.496155 -431.0934249 -232.2060253)
(-919.2644385 297.2405486 52.80258224)
(-2799.336716 -376.808661 1571.391322)
(-907.8432605 -745.6293121 570.1087641)
(1046.384775 -2676.599892 -815.3824326)
(883.195588 -601.1959775 -1708.781018)
(-661.815125 -1813.077545 -1822.694851)
(72.83232415 -1707.320838 -2212.906438)
(-2784.950503 1664.968011 2168.184253)
(696.3972772 -727.5939078 2573.561903)
(803.9763569 534.6721134 769.4927901)
(1323.516793 -749.3422739 -36.7115516)
(-1598.211706 2184.116925 -1237.415646)
(-170.3443026 2869.772534 -1525.722235)
(1239.107393 -317.3084127 -1932.376854)
(1450.357263 -465.6098556 -507.3511206)
(-2515.506135 186.1515491 -1563.432286)
(-943.9358896 -1266.831864 -3495.036072)
(-1362.000678 1432.0673 -2367.850132)
(876.2880117 1575.288674 1090.586393)
(-2532.458093 -521.2783118 -174.1419362)
(-3355.827876 90.31777568 1636.071737)
(2897.265311 -933.4671399 -1265.633832)
(-2102.854259 -424.7440756 1192.604603)
(-2881.162326 1298.527428 -1122.684263)
(-653.8477845 -813.4609424 -116.0502817)
(245.2464766 2180.922564 -1838.870376)
(1015.23972 -1926.780025 1691.572841)
(359.4355442 126.3390938 -2030.319833)
(981.5413652 -1851.187106 -604.6450193)
(577.6875766 -2066.718712 1093.730509)
(1613.710906 -263.8945965 -1688.073921)
(-2218.522693 2226.927215 2849.613999)
(1282.858011 2964.023535 -730.5220184)
(-996.8946102 -414.9285148 288.4609603)
(708.4744911 -861.9060783 -1733.753868)
(-38.00561295 1940.765668 100.9997928)
(-298.47122 311.1320679 -1733.235185)
(2923.806828 -1022.843738 -1963.050021)
(-349.7399896 -969.5033023 213.7094955)
(-2057.004278 679.1433791 -1652.701745)
(-545.504551 -1167.929393 -1080.727434)
(-19.32924985 -640.2865885 -2055.509955)
(-252.388581 -1814.640127 -499.6452752)
(-1921.49845 -1008.710254 1215.395435)
(1510.741603 1262.264091 -2115.018926)
(-3943.540554 1748.91307 929.7753791)
(343.378536 323.7703217 -327.8856796)
(-1459.099724 346.0426769 424.3212677)
(753.6173856 -55.89801114 -2182.509579)
(-1106.232907 -623.8890529 -1387.345333)
(-1416.6134 550.5876899 -390.3617058)
(-275.9855668 -2518.946436 -959.4155529)
(1361.795005 2522.989308 994.5772134)
(-1866.627025 -797.6015369 1486.458106)
(800.6745788 2960.014314 -2530.104141)
(1084.87171 323.5596659 1078.105709)
(-350.0554843 -678.8474168 738.5778122)
(815.011697 -479.345453 1288.660625)
(448.0971827 -873.7409347 -966.8846699)
(1486.342 953.301292 -120.196151)
(713.7783083 745.3985021 68.2665128)
(881.1596271 335.1739102 34.0739431)
(177.3266031 172.1525568 -2199.599344)
(1033.448447 -95.18596005 -806.928906)
(-187.4443007 1136.016062 246.4694927)
(-2558.871947 2323.24578 474.0889977)
(3424.568894 -494.8862919 980.9965429)
(2465.987017 -281.2546061 -1269.055483)
(-1087.385526 -1197.406487 -614.5782839)
(861.5277687 -928.8678 -792.2485643)
(-499.4179122 -1970.880046 -722.8863912)
(-1410.169148 -1170.066799 1134.104694)
(-352.2415403 -1038.534287 -1664.076646)
(-2284.557573 2086.505965 468.2531678)
(-2475.641406 1569.218853 1641.598188)
(-23.42533843 -306.9837738 2008.47968)
(215.2435655 -1451.044978 675.4134406)
(2094.335856 216.5149832 1341.238725)
(2193.418411 -2693.768484 484.3481102)
(2300.31717 -589.1048603 202.7041814)
(-201.1559819 -1770.746851 1530.576669)
(-1408.882296 -1741.187861 -1008.509813)
(-441.7119994 2287.868686 -1219.066455)
(-1904.259073 1752.464877 -623.133167)
(-588.3337373 4069.316363 -553.2270978)
(-671.8732541 1053.916767 505.1027738)
(2783.145137 -2259.024759 1241.693287)
(776.55548 -1879.587375 2254.089925)
(1834.848874 -832.7197003 -1096.884344)
(1118.524617 -2001.459863 739.0409887)
(1910.315266 166.5094468 -307.9427236)
(1134.770698 -886.1736791 -2879.807477)
(193.8193201 -2593.001577 -71.29341522)
(742.4054628 472.3268433 3800.357025)
(82.89037722 531.7762213 243.8724006)
(-1000.566021 736.7045167 2335.296997)
(-1664.767344 -2834.050324 -309.0573858)
(-1487.981995 -1210.756094 763.5240243)
(-57.75516575 1431.313612 -349.2111807)
(355.6627201 -237.3002647 -441.2859326)
(1582.180369 -840.8345117 150.9551491)
(-181.874958 502.5339124 241.2599612)
(-114.2751385 1356.240476 148.3623485)
(-810.3627856 -1235.52483 776.3130786)
(-1196.508156 -1576.480606 1093.313612)
(-527.1118954 97.15782992 10.88195311)
(161.2996146 -2183.082223 -1912.71764)
(-1423.592886 -1461.497808 -220.3633167)
(-805.7282516 -424.3674957 -2089.717878)
(-594.6249817 204.5920922 121.435577)
(-1742.441334 688.8517792 -417.3021625)
(-2191.525074 -293.3843242 -1045.256882)
(323.123101 -237.1432666 -1101.073104)
(1424.93367 1198.873137 -2388.881039)
(-1974.789617 -528.1549238 467.5468448)
(-452.3796796 659.6450896 1485.462434)
(1274.821932 1047.222443 965.1104285)
(-2027.539562 596.1542595 903.7176904)
(348.4077404 -639.6578055 175.638691)
(551.390284 246.1965112 837.4709669)
(-328.1344834 -661.1743746 -121.9863113)
(-1700.446223 1438.234903 213.4016122)
(294.000013 -1337.579957 -1025.455525)
(-2046.002246 -2004.454607 -3299.987048)
(-1293.083549 -795.2233565 -1409.360025)
(-1510.423001 2913.343421 2686.206548)
(1298.400401 -1518.040579 1566.643363)
(-31.17163579 208.699255 -98.09429515)
(-648.142967 -1761.847428 653.4000761)
(3461.040295 479.2661085 142.346346)
(259.943624 -2371.626519 -293.789819)
(-1313.06558 -821.419214 -1311.46975)
(-2815.604931 262.7415047 -983.4044386)
(2607.578194 -1200.444889 -266.7214798)
(4066.006568 -522.2911959 941.1156802)
(92.27983486 -2330.609715 -713.03164)
(-2386.06108 793.1942365 -1548.504131)
(83.30330497 349.5685172 -1699.981412)
(351.0047097 -1101.794021 -2002.007448)
(641.9868356 -234.1365118 1186.389952)
(1409.681273 2094.685255 1849.197114)
(2944.035301 -139.4190399 -1017.495038)
(-924.9548589 2890.155232 -1710.716982)
(-2880.836227 422.2192012 -1111.207172)
(103.6475598 -12.28270613 452.5463882)
(-666.5574485 -679.4233276 -322.1254403)
(-468.5709037 -216.5025962 -922.4147947)
(-112.0334349 291.7879445 -1842.086074)
(1266.41385 1257.119529 -1259.610982)
(-947.4019216 140.6457909 -1188.050909)
(313.9254764 837.8082834 -365.8945473)
(-2123.404495 1750.092941 642.5326075)
(-696.1178166 -2854.585981 2157.846438)
(487.7923505 -361.1807415 1567.496374)
(448.2902922 -906.9051681 -2348.109007)
(-1468.479625 1613.31243 -1799.155726)
(-95.56342077 443.687184 808.0814531)
(-1727.454382 -239.6088983 -1682.153661)
(-668.7942834 724.11372 2328.702311)
(378.6304539 208.9110008 1073.509556)
(-87.42529646 1115.860186 1331.469032)
(1212.270348 -1547.265583 124.3718557)
(217.3374261 1293.893577 968.7758688)
(1929.946513 2047.683319 -209.6781811)
(-592.3344921 369.7395671 491.2070983)
(2114.971004 102.0610994 1716.386103)
(-1325.740729 -857.5309572 1256.369073)
(305.0147155 1131.746063 1283.633356)
(894.2233252 -4286.362011 1101.395073)
(-338.9858788 -532.1147872 719.2181114)
(1494.796178 -695.7875181 85.39046941)
(-3043.957342 -677.9438676 -1219.788582)
(2609.333166 -1723.174842 -504.7185121)
(-1423.328561 -1231.383336 76.2185827)
(-1700.916566 -2457.955379 -1403.424243)
(1012.55251 -2744.346813 -1018.053099)
(77.27729331 -480.2254541 -750.0004349)
(-938.7724157 -599.6613943 3901.21629)
(2698.194566 -270.9086454 610.8046287)
(-162.433076 -3812.34829 1745.039983)
(-1274.778953 -71.42243759 -212.4306687)
(1566.28111 1674.279153 1443.967951)
(1336.008464 -640.7768809 451.82563)
(-41.77372047 -497.2660804 -645.7088741)
(816.1931596 1995.656954 -73.56041935)
(875.3630626 117.9690671 2746.841286)
(179.0764036 19.74453347 376.1289695)
(460.4626056 1267.400774 -1069.167255)
(-2489.755198 -310.8237729 -843.1589897)
(-229.967505 -1130.851632 541.4977375)
(-1122.953717 2438.559245 -496.7235085)
(-235.3730924 -128.4003014 709.8548733)
(-1856.340916 796.0215458 353.6250569)
(497.8164461 1535.683919 -495.9409006)
(329.3089457 -49.0921511 -88.3816628)
(-741.3240426 -1726.758983 -1320.691027)
(740.385584 1117.526269 -711.8692965)
(-426.8343962 -445.7121278 1372.910637)
(1121.806478 -164.4153588 107.3732866)
(651.6338866 -25.87925374 860.5350711)
(-635.0614963 -368.300164 135.6980453)
(-567.0079327 2228.727925 702.1516651)
(-727.9423756 -1723.086614 -2572.119627)
(438.1623706 -341.4028044 -1129.479818)
(-932.4350982 -1649.498109 1517.574509)
(-299.8356802 60.30481863 1539.113684)
(328.0827622 1115.254513 437.4483225)
(78.52803433 -2114.701296 -3030.516882)
(-823.3096224 3330.95162 1151.765257)
(-1359.520477 1074.717758 722.3876347)
(-2781.175705 -2635.21858 62.65321727)
(-929.9606091 202.848556 -1715.139281)
(-2159.645504 343.8678401 -880.2509221)
(1126.494221 -718.7274635 -210.9241086)
(2361.890558 -579.294542 -1208.25051)
(439.3912846 -209.8796147 -1932.922508)
(1709.672672 -316.0331752 60.77427583)
(257.8716335 1701.779237 810.0576283)
(251.3814328 -541.4759502 -179.8311642)
(-102.9186908 1677.548054 573.7854632)
(-1193.554426 193.8176021 11.01063142)
(1587.990797 438.0450529 -900.890703)
(-2140.743857 -39.46716677 1232.736495)
(-1099.47548 -1111.145067 -771.4394933)
(2571.800496 706.9847868 1475.458295)
(241.9426751 -923.2556695 2370.325898)
(836.1299669 479.210384 -203.0357622)
(-281.3742228 394.9738563 585.0683198)
(-49.93036313 920.3679441 26.67718638)
(-389.124787 246.0284497 167.2906747)
(319.7289539 524.5101695 -926.3702024)
(-621.2066586 -2751.403936 1229.291814)
(-1763.653431 98.63422456 -1240.928751)
(-1073.353434 433.1402048 -2225.090302)
(-1110.785046 -347.9366834 -1347.542227)
(-995.3840511 597.7992136 -582.8275948)
(700.5263207 842.8179324 750.5446529)
(-303.1841567 1425.196184 -141.8227853)
(-2333.888833 877.5117284 -1033.364523)
(1162.857764 4339.547336 -2367.73825)
(11.19038535 1686.424905 -2970.9749)
(2609.809403 1600.866436 2989.986362)
(-776.0847099 0.7477620632 -2157.671697)
(1887.586026 96.90565346 1118.868663)
(2652.956724 -1522.40157 -335.9892956)
(179.3481925 -1665.50563 995.1410991)
(-250.5328189 -27.30905872 2231.88978)
(-817.9376959 1302.909573 787.1335116)
(326.0329571 -1843.099748 3195.938714)
(550.6067117 -652.2882213 -1998.052326)
(2597.288599 -2695.302346 1004.577419)
(-927.1803498 -785.4492402 -1466.858489)
(-688.0025476 -131.2573496 -323.0554035)
(2575.003486 1900.000993 -466.6093318)
(1220.583673 -172.223895 -1497.816216)
(815.8087763 190.15148 -95.04456667)
(1287.745416 -270.6107332 -35.31483837)
(579.9357191 -315.1476651 774.094977)
(3471.621885 2097.358474 3159.033523)
(1176.710615 -142.7704171 -819.7947705)
(-1748.868083 -1607.242068 2555.236912)
(-100.7954203 -1591.234756 -1575.567674)
(-887.3118865 -633.7008618 -63.55766821)
(680.8294904 -315.5001801 1390.038177)
(-1421.802911 -816.2737688 1311.237458)
(1634.7762 1027.667293 751.098112)
(-1072.853534 -703.4236082 -1991.998788)
(-888.9071353 373.6039701 97.86483258)
(773.9901926 -445.4098755 -1110.096901)
(1297.216549 -885.1235012 636.7655084)
(-725.9366229 -1256.306197 -4305.782399)
(1844.656821 -649.2426031 -940.6864301)
(730.2986373 -935.7764377 679.4309456)
(-1991.608898 -707.0401608 2747.01537)
(-544.7064579 1380.881446 644.7315327)
(-1488.515162 -537.2423604 658.6508797)
(429.0824062 -324.6941272 923.1803096)
(-1489.154149 -1676.121738 191.1938982)
(179.8603572 -586.8165189 107.3928319)
(1331.988246 -1917.41262 -691.1642848)
(1402.306534 -591.4181886 901.0271115)
(761.9768194 348.866003 -661.4512555)
(754.0803562 933.0577777 -2179.457836)
(236.7127019 1444.867166 252.2458735)
(-553.8291377 -1672.790968 -3.84151885)
(1250.448706 -2204.340983 394.1500833)
(-927.7497924 -2530.826551 925.9345832)
(335.1666425 1918.38448 -2032.810222)
(-1309.948457 -159.2692042 1736.852223)
(-889.2175869 2532.167797 1708.039428)
(-2667.519382 897.5199483 -75.66695611)
(-86.01178777 2499.983433 -3113.092197)
(-456.2172476 -281.5557816 1571.668943)
(2441.570556 -2903.892064 -2484.257889)
(-202.6377228 1075.981109 2646.383807)
(-1074.073622 1724.036282 1325.949217)
(2182.263517 2209.742843 1266.573474)
(-1599.694224 1183.496579 1856.726584)
(568.2558166 1755.258662 873.67721)
(918.8949622 -1221.253227 40.91731888)
(528.6488726 1724.359367 -2644.158916)
(-1304.729129 430.2359365 236.1929048)
(169.3508395 490.8651128 429.2699534)
(-538.4522548 -1614.618516 766.7505024)
(249.0509653 1112.389521 -1834.715482)
(-209.3402689 -1840.905408 1860.904533)
(-199.3250213 -810.9399508 2215.369487)
(606.3016403 2149.227539 1530.486981)
(-911.0079592 232.2496688 95.43760162)
(657.2691579 768.3542331 144.9939241)
(-872.0965095 -1835.793498 -1953.098634)
(-1516.366017 -2590.038159 1526.972346)
(383.4304017 -1581.018334 -1629.372581)
(-122.6451352 93.40113929 363.2875408)
(1216.929859 -1800.227946 2259.801484)
(-1221.104447 500.6205923 2166.858698)
(304.7092965 -907.8029501 308.8767275)
(595.5612701 -2554.175852 -1173.4047)
(484.2082977 159.7359194 2630.89806)
(-208.055285 1249.743416 2410.198944)
(-524.7641887 3690.863837 -1337.57473)
(-257.1188411 1552.801165 -1649.076788)
(-4214.54866 -1126.599785 -1459.903676)
(-339.0076553 84.68676742 2146.805409)
(-966.3574966 266.6478039 808.4188372)
(-1812.626943 -421.5222154 606.9740389)
(225.5009414 73.5233892 2000.204666)