/*--------------------------------*- C++ -*----------------------------------*\
| =========                 |                                                 |
| \\      /  F ield         | OpenFOAM: The Open Source CFD Toolbox           |
|  \\    /   O peration     | Version:  v1612+                                |
|   \\  /    A nd           | Web:      www.OpenFOAM.com                      |
|    \\/     M anipulation  |                                                 |
\*---------------------------------------------------------------------------*/
FoamFile
{
    version     2.0;
    format      ascii;
    class       labelField;
    location    "4.78/lagrangian/dsmc";
    object      origId;
}
// * * * * * * * * * * * * * * * * * * * * * * * * * * * * * * * * * * * * * //


97522
(
78950080
80092924
80244116
80537740
80542852
80700089
80880120
80991145
81030189
81138738
81267437
81280528
81304888
81306475
81425219
81483835
81493858
81532958
81570997
81613421
81641763
81699263
81828199
81830281
81851306
81906478
81929196
81944068
81966583
81968754
81973335
81984749
82006120
82023095
82084045
82093208
82133555
82144976
82181033
82185798
82212357
82216537
82240609
82282023
82284304
82287877
82288532
82313699
82319971
82342177
82366766
82385659
82386141
82451942
82460650
82471274
82486336
82489113
82499705
82502467
82530228
82541242
82554517
82561416
82562726
82569005
82569335
82573949
82591102
82594310
82614167
82635723
82637803
82649867
82665142
82693432
82755546
82764856
82782400
82835779
82854083
82897218
82906005
82907700
82935249
82936917
82942975
82948064
82952263
82960628
82975394
82978455
82983104
82983378
82993789
82996671
82997440
82998242
83001624
83018324
83018440
83019722
83043931
83064016
83076739
83098663
83099029
83125142
83133290
83141746
83150691
83153608
83161218
83163452
83173086
83190506
83192115
83201810
83202094
83203771
83209118
83214317
83214360
83219442
83242491
83243960
83244915
83260524
83263588
83277361
83281497
83287755
83290141
83298685
83301142
83304441
83317009
83320724
83321309
83324505
83330782
83336735
83350914
83354493
83368807
83375837
83375846
83376001
83379644
83384084
83386760
83391858
83393982
83395287
83402564
83402889
83403529
83413177
83415917
83416452
83420227
83425062
83426653
83426699
83430681
83434474
83435903
83441100
83448180
83454679
83458462
83458926
83470224
83470361
83471590
83483857
83484787
83487265
83491999
83504276
83511045
83513446
83513457
83513878
83524248
83526627
83526640
83529073
83535631
83556153
83559554
83561191
83564249
83574509
83575416
83578181
83589442
83592723
83593251
83595866
83598074
83598996
83600470
83601449
83611672
83612899
83613699
83614181
83625523
83625529
83633172
83634909
83639237
83639575
83639679
83642119
83657546
83659500
83664829
83669882
83670359
83674977
83675546
83680213
83686608
83686957
83695654
83698521
83703722
83703727
83705713
83706083
83709796
83736705
83739019
83739032
83743179
83749564
83753463
83754775
83759326
83760342
83764799
83770668
83777203
83782157
83788079
83788781
83790540
83794767
83799878
83801852
83804305
83806062
83811998
83824460
83824466
83824923
83827894
83833790
83850560
83851897
83861684
83864278
83868522
83877236
83882624
83883663
83884616
83886063
83892857
83895662
83904472
83919851
83926004
83927189
83927667
83931515
83935374
83935472
83941806
83948755
83951782
83953301
83954456
83956812
83959192
83959356
83966848
83983608
83985188
83993973
83995100
83999988
84008720
84009440
84013628
84016649
84026631
84026779
84027357
84029677
84033665
84037380
84044924
84045805
84052137
84060625
84061599
84063969
84064085
84065708
84069230
84071884
84076973
84077465
84077753
84079609
84080548
84084965
84085569
84085916
84088246
84089054
84089316
84089789
84090267
84091127
84096183
84096694
84097321
84099257
84100927
84101351
84102967
84104293
84105324
84106912
84110224
84112684
84113581
84120897
84123105
84125375
84130290
84130687
84131391
84132711
84132971
84133290
84138184
84139117
84141022
84142114
84146699
84148078
84150623
84152040
84153839
84156159
84158462
84159226
84165866
84166145
84170970
84172121
84175436
84176864
84178491
84183060
84184173
84184811
84190525
84194045
84199284
84202202
84204605
84209972
84214410
84215297
84217088
84218068
84218493
84218607
84222504
84222569
84223077
84223523
84223962
84224630
84225534
84225678
84225929
84227271
84230418
84230540
84230627
84234169
84234992
84243024
84247934
84249875
84255768
84268964
84270571
84271972
84273465
84274666
84276447
84277231
84279681
84281026
84282758
84284162
84285728
84288118
84291082
84293720
84293732
84294409
84294785
84303830
84305710
84307657
84309520
84310190
84312457
84319627
84319696
84320374
84320534
84321514
84323916
84323948
84325396
84328941
84333700
84336340
84339405
84340245
84345366
84345906
84346130
84348328
84351369
84355901
84362166
84363062
84364005
84364945
84369965
84370591
84370737
84371920
84372581
84373124
84373481
84377869
84383297
84384326
84385873
84386398
84387562
84388934
84390200
84390268
84392671
84398190
84400238
84400523
84402366
84403180
84405782
84414735
84414992
84418688
84419199
84420991
84421654
84422803
84423150
84424559
84425783
84427811
84430769
84433203
84433535
84434962
84439440
84440143
84442939
84444257
84444453
84445374
84445529
84446720
84447910
84453831
84454605
84454657
84455553
84455658
84455842
84456899
84457718
84458611
84459545
84460814
84462841
84463335
84465140
84468445
84468625
84469701
84470772
84471051
84475285
84475653
84476296
84477096
84480543
84480646
84486707
84487729
84488607
84489731
84492990
84493694
84494382
84494712
84497427
84500697
84501461
84502413
84502469
84502625
84503131
84505851
84505995
84506479
84507440
84508181
84509553
84510842
84512639
84514694
84516736
84519247
84523646
84523707
84524139
84526697
84526732
84532321
84533269
84537914
84541897
84542408
84543836
84543909
84544281
84545558
84546501
84546741
84547347
84547613
84550465
84550875
84551135
84551539
84552641
84556938
84558286
84558885
84559110
84560428
84561326
84562573
84563098
84563329
84564343
84565703
84565778
84565938
84568048
84570087
84570489
84570553
84572321
84572328
84573545
84575382
84576677
84579266
84581252
84583777
84584731
84585850
84586189
84586575
84588688
84589830
84591614
84592277
84592379
84595165
84596312
84596618
84596678
84596816
84599794
84604458
84604500
84604633
84604772
84609812
84611299
84611379
84611670
84612171
84612775
84613453
84613989
84615239
84615458
84615643
84616604
84618053
84618135
84618335
84619579
84620188
84620838
84624219
84626069
84628551
84630727
84633754
84633823
84636580
84637839
84638511
84640477
84641489
84643268
84643803
84644998
84646012
84647236
84647659
84651763
84651976
84653145
84653240
84654238
84655145
84656532
84657604
84657926
84659463
84660722
84660833
84660925
84664414
84665975
84666558
84666610
84667692
84668752
84669156
84669597
84670066
84671038
84671152
84671539
84671797
84674017
84676978
84678068
84678232
84678292
84681293
84681816
84682660
84684299
84685099
84688181
84688775
84689183
84691804
84692755
84692792
84693141
84694925
84695713
84696208
84696693
84698610
84699811
84700742
84700863
84701624
84701845
84707129
84708649
84709226
84710973
84711041
84713926
84714546
84714602
84714928
84715749
84716546
84717398
84717582
84717888
84718414
84718757
84720291
84721153
84721423
84721647
84721839
84722271
84722417
84724864
84725615
84727042
84727469
84729027
84729403
84729498
84729708
84732823
84734474
84737000
84737275
84738463
84739633
84739952
84740223
84741357
84741940
84742445
84742778
84742836
84746909
84747928
84748031
84749058
84749518
84753340
84754836
84755474
84755823
84756579
84756893
84759494
84759945
84760153
84761068
84762934
84763227
84766086
84766132
84766964
84768711
84768792
84769606
84770551
84770904
84770926
84771936
84774430
84774531
84775446
84778919
84780519
84781293
84781462
84782093
84782617
84783400
84785089
84788095
84788805
84789331
84789672
84793353
84793839
84797939
84797979
84798604
84798776
84800489
84800598
84800682
84801926
84802129
84802538
84802980
84803427
84803668
84804420
84805269
84805496
84806693
84806742
84807041
84807329
84808120
84808122
84808809
84809411
84809715
84809735
84809873
84811135
84811170
84811473
84811688
84812119
84813351
84814008
84815139
84815398
84816114
84817127
84818415
84820588
84821227
84824893
84827560
84834155
84834392
84834504
84835554
84836273
84838646
84838695
84839822
84840557
84844901
84846674
84846845
84846979
84847031
84847765
84849216
84849454
84849552
84850416
84851276
84853691
84854234
84854853
84855160
84857119
84857385
84857916
84859142
84859417
84859904
84859971
84860009
84860528
84860703
84861037
84863330
84865008
84865721
84866199
84866286
84866485
84868106
84868725
84868838
84868941
84869038
84870469
84871094
84871609
84871737
84871906
84872546
84873452
84873536
84873824
84874433
84875749
84877189
84877299
84878156
84878209
84878440
84879378
84881972
84882101
84882497
84883553
84883950
84886085
84887404
84888859
84888996
84894263
84894519
84894791
84895356
84896358
84897513
84901862
84903512
84904850
84905241
84905986
84906041
84906586
84908714
84908738
84910540
84911231
84915277
84915770
84916524
84917436
84917486
84918714
84920853
84921246
84921283
84921697
84922270
84924139
84924423
84926307
84928241
84929312
84931989
84932531
84933574
84933981
84934543
84935646
84936378
84937012
84938622
84939790
84939936
84940788
84942536
84943027
84943467
84944917
84945106
84946091
84950028
84950145
84952542
84952957
84953528
84954085
84954753
84956651
84957131
84957616
84957686
84957784
84958923
84959065
84959517
84959633
84963408
84963654
84963752
84964114
84965244
84965276
84967464
84969231
84970146
84970777
84972252
84973583
84976218
84976536
84978848
84981745
84982337
84982760
84983577
84983911
84983976
84985696
84985733
84986207
84986567
84986968
84987028
84987191
84987219
84987231
84987573
84987762
84988529
84989022
84990499
84991553
84992849
84993372
84993558
84993709
84993937
84994226
84995236
84995609
84995722
84996613
84996910
84997941
84998320
84998445
84998854
84999009
84999045
84999335
84999615
85000331
85000378
85000562
85001000
85001916
85001962
85002991
85004643
85006150
85006200
85007159
85008171
85008482
85008663
85008677
85008910
85010678
85010814
85010933
85011361
85011405
85012467
85013492
85013903
85014234
85016706
85017752
85018650
85020734
85023110
85023919
85024372
85024872
85026919
85027909
85028607
85028863
85029471
85029570
85030417
85030960
85031383
85031583
85031971
85036779
85037148
85038738
85038762
85039697
85039913
85041077
85041339
85041626
85042120
85042224
85042335
85042500
85043262
85043520
85043720
85043946
85044699
85045410
85047700
85047849
85048110
85048192
85048562
85048954
85049838
85051299
85051859
85052546
85053228
85053309
85053914
85055405
85057375
85057848
85058226
85058330
85059358
85060813
85061449
85061695
85063952
85064082
85064533
85064654
85064910
85067472
85068526
85070158
85070221
85070290
85070395
85071030
85071298
85071842
85073393
85073939
85074491
85074598
85074628
85075418
85075640
85075790
85076040
85076047
85078337
85078894
85079386
85082245
85082695
85083249
85085712
85085843
85087173
85087280
85087570
85088215
85088292
85088837
85090141
85090540
85091344
85091901
85094041
85094221
85095690
85095786
85098767
85099078
85099938
85101852
85102029
85102239
85102994
85103440
85103854
85103910
85103934
85105304
85105868
85105950
85106533
85107503
85107800
85108541
85108693
85108830
85110326
85111034
85111978
85112193
85112349
85113055
85113183
85113314
85114035
85114037
85115730
85116211
85116254
85117823
85117987
85117993
85118325
85118359
85119403
85119815
85120865
85120866
85121649
85121801
85122119
85122807
85123375
85123445
85123582
85124816
85124922
85128497
85129342
85130045
85130521
85130642
85131361
85131483
85132283
85132348
85132598
85133316
85133416
85134655
85135850
85135965
85137290
85139115
85140902
85141592
85143414
85144121
85144145
85144523
85144638
85145358
85145613
85145813
85146755
85147291
85147588
85149163
85149391
85150477
85150756
85151275
85153684
85154006
85154134
85156016
85156549
85157090
85157110
85157428
85157429
85159873
85160290
85160730
85161227
85161677
85162243
85162961
85165315
85165945
85166016
85166170
85166362
85166756
85166812
85167516
85167622
85168016
85168655
85169248
85169821
85170333
85170425
85171698
85172072
85172321
85172455
85174017
85174391
85175247
85175349
85175785
85176152
85177013
85177277
85177315
85177771
85178548
85179162
85180364
85180672
85184443
85184988
85185560
85185956
85186036
85186402
85187723
85187966
85188373
85191811
85192839
85192922
85193530
85193576
85193751
85194199
85194823
85194834
85194970
85196500
85196682
85197088
85197376
85198652
85199243
85199543
85199782
85200111
85200139
85200551
85201967
85202152
85202506
85202930
85203026
85203152
85203306
85204167
85205675
85205720
85207181
85207328
85208172
85209059
85209343
85210156
85210164
85210867
85210882
85211074
85212353
85212563
85212689
85212855
85213185
85213638
85214973
85215446
85215589
85216461
85216899
85217351
85217750
85217969
85217991
85218126
85218949
85219336
85219979
85220961
85221054
85221138
85221250
85221979
85222466
85223775
85224072
85224565
85224639
85225568
85226013
85226093
85226298
85226664
85228121
85228131
85228152
85228615
85229151
85229832
85231817
85231890
85232004
85232419
85232665
85232712
85232771
85232870
85233055
85233141
85233738
85235966
85236085
85236319
85236676
85238017
85238266
85239242
85239879
85240601
85240922
85241421
85241643
85241718
85242544
85243189
85243223
85243248
85243844
85244549
85246096
85246815
85247093
85248392
85248776
85249007
85249036
85249078
85250441
85250953
85251337
85251343
85251861
85252361
85252867
85253892
85254717
85255245
85256191
85257674
85257685
85258100
85258578
85259491
85259521
85259980
85260298
85260476
85260548
85261050
85261114
85261123
85261250
85261286
85261409
85261453
85261753
85263792
85264156
85264325
85264376
85264637
85264833
85265815
85266414
85267561
85267586
85269698
85270155
85270189
85272126
85272797
85273369
85273537
85273715
85274348
85274400
85275121
85276038
85276506
85276611
85276641
85277947
85278541
85278933
85279233
85279715
85279800
85280007
85281319
85282025
85282936
85285971
85286096
85286491
85286771
85287480
85287536
85289370
85289573
85290875
85290919
85291004
85292364
85292527
85293169
85293609
85293903
85294292
85294411
85295867
85296034
85296282
85297468
85298423
85298730
85298998
85299464
85300283
85300988
85301704
85302005
85302210
85303021
85304794
85305200
85305427
85305898
85306212
85306701
85306821
85306834
85307783
85307929
85308769
85309640
85310167
85310741
85310769
85311086
85312412
85312642
85313305
85314174
85314465
85314593
85314940
85316417
85317971
85318321
85319122
85319799
85319842
85320721
85320872
85321583
85321694
85321936
85324028
85324071
85324570
85324931
85325191
85325206
85325755
85327017
85328408
85328489
85328686
85329238
85329457
85329643
85329912
85330032
85330147
85330183
85330324
85330522
85330781
85330836
85331322
85333610
85333806
85334269
85335072
85335112
85335765
85336602
85337027
85337065
85337444
85337992
85338802
85338839
85339425
85339652
85339656
85340416
85340743
85341422
85342061
85342467
85342724
85343365
85343562
85343696
85344232
85344629
85344651
85345329
85345995
85346662
85347282
85347310
85349724
85350865
85351456
85353945
85354236
85355622
85357070
85358066
85358414
85358491
85359578
85359793
85360026
85360029
85360256
85360906
85362970
85363098
85365149
85367749
85369871
85370203
85370330
85370655
85371081
85371754
85372928
85373196
85373272
85373428
85373468
85373878
85374071
85374779
85375436
85375609
85376867
85377122
85377273
85377282
85377938
85378112
85378703
85378752
85378783
85379178
85379190
85379695
85379978
85380066
85380624
85381280
85382416
85382728
85383783
85384393
85384569
85384793
85384895
85385013
85385539
85386131
85386157
85386226
85386555
85386764
85387833
85387884
85387984
85388549
85388975
85389376
85389765
85389971
85390016
85390725
85392379
85392666
85392814
85393229
85393387
85394087
85394121
85394648
85394792
85395034
85395519
85396678
85399006
85399480
85400564
85400595
85400654
85400805
85401475
85401570
85401939
85402652
85402971
85404230
85404258
85404298
85404353
85404749
85405957
85406086
85406548
85407694
85407842
85408052
85409472
85409588
85409640
85409712
85409738
85410489
85411276
85412088
85412300
85412948
85413049
85413921
85414161
85414810
85415403
85418488
85418628
85418933
85419085
85419140
85419252
85419425
85419787
85419890
85419944
85420022
85420158
85420285
85420867
85421317
85421513
85421651
85421838
85422524
85423755
85425003
85425263
85425628
85425982
85426611
85426912
85426986
85427417
85427758
85428375
85429090
85429697
85431208
85431970
85432252
85432664
85432890
85433328
85433650
85433914
85434351
85434659
85435029
85435364
85435741
85436500
85436718
85437820
85438236
85438461
85438522
85439287
85439530
85439758
85439942
85440445
85440769
85441105
85441241
85441718
85442022
85442051
85443575
85445248
85445823
85446578
85447471
85448496
85448906
85449543
85449625
85449772
85450011
85450829
85451657
85452487
85452962
85454161
85454207
85454411
85454415
85455154
85456056
85456221
85456738
85457275
85457839
85458830
85459617
85459790
85459906
85460071
85460558
85461217
85461386
85461947
85461957
85463599
85464596
85464618
85464675
85464970
85465329
85466215
85466262
85466302
85466577
85466676
85467376
85467502
85467514
85467543
85467789
85468729
85469060
85469239
85469548
85469706
85470411
85470424
85470867
85471738
85471901
85472385
85472615
85473103
85473365
85473408
85473471
85473634
85474902
85475031
85476766
85477184
85477861
85478779
85478783
85478802
85479319
85479836
85479976
85480293
85480671
85481101
85481189
85481350
85482519
85482636
85483282
85483312
85483540
85483807
85483894
85484406
85484562
85484905
85486353
85486615
85487009
85487979
85488025
85488242
85488262
85488317
85488538
85488544
85488727
85488950
85489291
85489671
85489845
85490111
85490502
85490694
85490862
85490919
85491423
85491552
85491747
85491768
85492352
85493316
85493449
85493554
85493933
85495091
85496478
85496639
85496647
85497087
85497814
85498220
85498253
85498276
85499236
85499481
85499709
85500795
85501404
85502275
85503120
85503379
85503380
85504745
85504770
85505055
85505324
85505798
85505992
85506766
85507818
85509153
85510716
85511722
85512118
85512222
85512669
85512904
85513052
85513439
85513682
85513828
85513849
85514588
85515249
85515320
85515490
85515867
85516960
85517062
85517184
85517731
85518716
85519150
85519199
85519253
85520004
85520652
85520902
85521101
85521557
85521787
85522147
85522167
85522189
85522865
85523012
85523325
85523354
85524059
85524257
85524381
85525795
85525998
85526219
85526550
85526782
85526939
85527209
85527291
85527636
85528110
85528384
85528815
85529127
85529128
85529396
85529689
85529850
85529989
85530234
85530734
85530746
85530858
85531301
85532097
85532597
85532806
85533026
85534033
85534792
85535315
85537461
85537867
85538186
85538773
85539029
85539099
85539109
85539637
85539774
85540129
85540202
85541107
85541258
85541447
85542215
85542907
85543020
85543073
85543851
85545192
85546555
85547228
85547302
85547382
85547655
85547974
85548530
85549085
85549374
85550360
85550916
85551262
85552155
85552827
85553114
85553714
85553925
85554109
85554677
85554869
85555205
85555237
85555261
85555887
85555917
85556437
85557122
85557232
85557275
85558374
85559354
85560243
85560443
85560607
85560986
85561561
85561693
85562904
85564105
85564610
85564713
85564734
85564779
85564907
85564975
85565323
85565777
85566066
85566943
85568580
85568680
85568965
85569027
85569559
85569573
85569603
85570582
85570779
85571415
85572663
85572868
85573931
85574697
85575087
85576971
85578206
85578335
85578348
85578382
85579126
85579450
85579808
85580323
85580741
85580910
85581500
85581700
85582148
85582633
85582850
85582930
85583268
85583439
85583862
85584649
85584922
85584977
85585446
85587427
85587467
85587615
85587845
85588003
85588319
85588782
85588828
85588914
85589743
85590188
85590394
85590438
85590623
85591216
85591382
85591584
85591678
85591868
85592300
85592330
85592846
85592854
85593020
85593898
85594871
85594872
85595419
85596177
85596281
85596999
85598532
85598593
85598959
85599137
85599519
85600837
85600934
85601357
85601409
85601617
85601956
85602023
85603037
85603160
85603325
85603435
85603440
85603531
85603756
85603823
85604190
85604501
85605279
85606023
85606044
85606162
85606716
85608265
85608942
85609315
85609603
85610387
85611937
85612113
85612398
85612964
85612970
85613005
85613762
85614231
85614249
85614499
85615222
85615354
85615434
85616071
85616183
85616506
85616687
85617445
85618347
85618533
85619478
85619955
85620782
85622427
85622501
85622756
85623177
85623350
85624031
85624177
85624749
85624923
85624972
85625317
85625435
85625473
85625546
85627795
85627835
85628265
85628396
85628449
85628637
85629178
85629589
85629610
85629722
85630311
85630917
85631452
85631641
85631815
85631854
85631998
85632599
85633280
85633774
85634401
85634453
85634978
85635125
85635806
85636099
85636194
85636286
85636506
85636526
85636916
85638734
85638760
85638778
85640316
85640331
85640346
85640551
85640748
85641409
85641559
85641997
85642026
85642188
85642816
85642851
85643445
85643675
85644905
85645002
85645069
85645101
85645651
85645823
85645840
85646075
85646369
85646439
85646560
85646756
85647516
85647987
85648076
85648117
85648137
85648999
85649456
85649693
85650643
85651041
85651469
85651777
85652169
85653047
85653187
85653270
85653347
85653717
85654542
85655201
85655298
85656796
85656915
85656986
85657070
85657580
85658148
85658243
85658289
85658459
85658753
85658857
85658979
85659432
85659879
85660148
85660223
85660309
85661713
85661831
85661915
85662310
85662479
85663060
85663481
85663860
85664350
85664390
85664637
85665327
85665895
85666015
85666196
85666359
85666428
85667121
85667330
85667372
85667910
85667960
85668022
85669136
85670348
85670721
85670811
85670928
85671037
85671396
85672134
85672173
85672237
85672377
85673703
85673776
85674086
85674260
85674428
85674748
85674810
85674857
85674961
85675194
85675197
85675357
85675649
85675895
85676502
85676944
85677483
85677860
85679248
85679273
85680431
85680752
85680780
85681004
85681065
85681510
85681895
85681930
85681954
85682063
85683205
85683284
85683463
85683994
85684264
85684601
85684849
85685089
85685134
85685854
85686170
85686274
85686737
85686790
85686849
85687150
85687208
85687271
85687322
85687533
85687885
85687915
85688545
85688829
85689347
85689557
85689735
85689808
85690583
85690744
85691028
85691370
85691918
85691939
85692209
85692383
85692678
85693304
85693348
85694333
85694446
85694603
85695203
85695518
85695969
85696093
85696098
85696164
85696318
85696348
85696747
85697976
85698423
85698455
85698650
85699521
85699553
85699865
85699899
85700191
85702044
85702364
85702387
85703709
85704967
85705002
85705697
85705812
85706021
85706036
85706535
85706871
85707223
85707632
85708331
85708381
85708385
85708749
85708772
85708852
85710331
85710602
85711040
85711082
85711773
85712416
85712559
85712850
85712949
85713206
85713210
85713580
85714634
85715356
85716082
85716424
85716523
85716564
85717188
85718098
85718151
85718935
85719067
85719375
85719786
85719969
85720242
85720250
85720383
85720722
85721379
85723020
85723158
85723464
85723663
85723695
85723840
85723866
85723876
85723952
85724579
85724658
85724909
85725133
85725152
85725158
85725215
85725561
85726038
85727492
85727936
85727942
85727943
85729303
85729512
85729688
85730801
85731009
85731135
85731481
85731518
85731555
85731827
85732114
85732356
85732401
85732597
85732649
85733183
85733331
85733404
85733456
85733694
85733772
85734147
85734352
85734411
85735014
85735492
85735941
85736353
85736654
85737023
85737146
85738013
85738288
85738342
85738508
85739434
85739461
85739755
85739770
85739810
85740697
85740789
85740982
85741265
85741455
85741646
85741814
85742029
85742212
85742649
85743472
85743532
85744057
85745406
85745778
85746284
85746884
85747009
85747202
85747410
85747993
85748171
85748354
85748414
85748806
85749486
85749818
85750099
85750554
85750701
85750762
85750847
85750888
85751570
85752332
85752542
85753037
85753254
85753256
85753598
85753664
85753700
85753733
85753809
85754693
85754955
85755656
85755660
85756352
85756536
85757110
85757117
85758335
85758602
85759259
85759427
85759924
85760211
85760225
85760251
85760882
85761357
85761713
85761788
85761869
85761981
85762102
85762298
85762314
85762317
85762455
85763138
85763165
85763949
85764000
85764318
85764729
85764978
85765356
85765509
85765773
85765992
85766385
85766424
85766431
85766541
85766558
85766636
85766898
85766999
85767100
85767219
85767440
85767565
85767618
85768250
85768296
85769791
85769884
85770090
85770111
85770313
85770700
85770739
85771441
85771889
85772208
85772253
85772392
85772560
85772563
85772719
85772989
85773248
85773734
85774484
85774748
85774954
85775083
85775176
85775424
85775593
85775613
85776506
85777208
85777519
85777848
85779129
85779559
85779650
85779685
85779687
85779764
85780121
85780369
85780399
85780411
85782196
85782223
85782508
85782653
85783036
85783153
85783245
85783721
85783934
85783945
85784300
85784313
85784607
85784848
85784995
85785432
85785536
85785823
85787014
85787052
85787212
85787706
85788078
85788133
85788494
85788622
85788656
85788727
85788746
85789002
85789041
85789519
85789625
85790404
85790612
85790872
85791202
85791500
85791964
85792132
85792388
85792475
85793010
85793025
85793234
85793337
85793353
85793726
85794304
85794336
85794376
85795064
85795079
85795373
85795572
85795717
85796245
85796562
85796675
85796716
85796857
85796919
85797211
85797217
85797355
85797415
85797663
85798160
85798911
85799340
85799526
85799966
85800957
85801137
85801288
85801803
85802217
85802271
85802656
85802771
85803587
85804373
85804543
85804694
85804733
85804804
85805066
85805240
85805847
85806140
85806396
85806567
85806776
85807494
85807604
85807698
85807882
85808383
85808409
85808676
85809260
85809906
85810269
85810431
85810445
85810683
85810741
85811012
85811047
85811747
85811882
85811956
85811971
85812125
85812410
85813069
85813927
85814514
85814887
85814891
85816190
85816203
85816388
85816674
85816799
85817017
85817642
85817829
85818032
85818097
85818244
85818365
85818498
85818599
85818966
85819588
85819789
85819896
85819992
85820317
85820386
85820631
85821357
85821500
85821543
85821800
85821802
85821950
85821968
85821978
85822162
85822171
85822227
85823100
85823309
85823374
85823456
85823551
85823557
85823620
85823684
85823951
85824056
85824845
85824970
85825063
85825371
85826074
85826581
85826762
85827112
85827127
85827479
85827495
85827587
85828120
85828218
85828492
85828931
85829395
85829577
85829677
85829734
85829803
85830166
85830374
85831129
85831258
85831290
85831578
85832112
85832771
85832919
85832930
85833104
85833822
85834065
85834202
85834549
85834619
85834858
85834986
85835447
85835483
85835620
85835718
85836526
85836626
85836911
85836915
85836962
85837246
85837401
85837688
85837789
85838802
85838951
85839285
85840030
85840049
85840062
85840379
85840435
85840662
85841109
85841501
85841673
85841873
85842039
85842694
85843257
85843698
85844860
85845304
85845740
85845748
85845906
85846367
85846583
85846672
85847316
85847619
85847707
85847978
85848119
85848682
85849004
85849130
85849450
85849627
85849810
85849946
85850031
85850473
85850842
85851189
85851497
85852259
85852461
85852693
85853170
85853310
85853311
85853336
85853562
85853608
85853892
85854156
85854207
85854471
85854532
85854562
85854904
85855563
85856067
85856197
85856624
85856643
85856679
85856955
85857006
85857599
85857622
85858054
85858665
85858816
85859617
85859721
85859743
85860303
85860609
85860878
85860887
85861030
85861333
85861630
85861706
85861774
85862053
85862415
85863063
85864121
85864515
85864807
85865225
85865530
85865684
85865705
85866055
85866446
85866894
85867205
85867640
85868495
85869145
85869174
85869329
85869568
85870062
85870569
85870673
85871006
85872098
85872190
85872250
85872698
85873078
85873239
85873633
85873637
85873992
85874051
85874173
85875465
85875570
85875780
85875871
85876864
85877363
85877409
85878100
85878189
85878205
85878240
85879372
85879406
85879595
85879617
85879647
85879706
85879734
85880141
85880500
85880551
85880968
85881085
85881166
85881991
85882117
85882298
85882726
85882915
85882978
85883288
85883501
85884185
85884777
85884867
85885107
85885322
85885463
85885701
85886032
85886360
85886413
85886571
85886817
85886883
85887281
85888070
85888230
85888376
85889103
85889114
85889160
85889247
85889264
85889296
85889650
85890057
85890120
85890618
85890736
85890769
85890838
85891455
85891532
85891592
85891778
85891809
85891894
85892032
85892688
85892738
85892856
85893141
85893143
85893368
85893380
85893471
85893758
85894211
85894215
85894473
85894742
85894784
85894999
85895077
85895513
85895755
85895950
85896224
85896338
85896921
85896940
85897106
85898129
85898742
85899433
85899441
85899717
85900129
85900212
85900327
85900643
85901040
85901115
85901263
85901411
85901748
85902139
85902505
85902648
85902742
85903293
85903643
85904593
85904653
85904863
85904964
85905336
85905373
85906172
85906335
85906769
85907360
85907433
85907688
85908041
85908344
85908445
85909044
85909232
85909243
85909978
85910001
85910048
85910221
85910302
85910356
85910570
85910741
85910971
85911409
85911583
85911664
85911813
85912789
85913413
85914003
85914249
85914368
85914795
85914974
85915387
85915396
85915642
85915783
85915925
85915940
85916339
85916459
85916530
85917438
85917984
85917987
85918252
85918594
85918902
85918943
85919023
85919058
85919108
85919387
85919582
85919971
85920291
85920313
85920660
85920973
85921262
85921585
85922270
85922316
85922445
85922910
85922981
85923341
85923653
85923694
85924108
85924240
85924538
85924951
85925094
85925209
85925349
85925728
85926108
85926176
85926334
85926673
85927356
85927729
85927850
85928283
85928357
85928536
85928655
85928671
85928698
85928876
85929125
85929473
85929483
85929566
85929725
85929877
85930468