/*--------------------------------*- C++ -*----------------------------------*\
| =========                 |                                                 |
| \\      /  F ield         | OpenFOAM: The Open Source CFD Toolbox           |
|  \\    /   O peration     | Version:  v1706                                 |
|   \\  /    A nd           | Web:      www.OpenFOAM.com                      |
|    \\/     M anipulation  |                                                 |
\*---------------------------------------------------------------------------*/
FoamFile
{
    version     2.0;
    format      ascii;
    class       labelField;
    location    "7.9999999999/lagrangian/dsmc";
    object      origProcId;
}
// * * * * * * * * * * * * * * * * * * * * * * * * * * * * * * * * * * * * * //

47648{0}

// ************************************************************************* //
