/*--------------------------------*- C++ -*----------------------------------*\
| =========                 |                                                 |
| \\      /  F ield         | OpenFOAM: The Open Source CFD Toolbox           |
|  \\    /   O peration     | Version:  v1706                                 |
|   \\  /    A nd           | Web:      www.OpenFOAM.com                      |
|    \\/     M anipulation  |                                                 |
\*---------------------------------------------------------------------------*/
FoamFile
{
    version     2.0;
    format      ascii;
    class       Cloud<passiveParticle>;
    location    "7.9999999999/lagrangian/dsmc";
    object      positions;
}
// * * * * * * * * * * * * * * * * * * * * * * * * * * * * * * * * * * * * * //

47648
(
(0.04694186899 0.7618674419 0.005) 384
(0.01163280884 0.861240099 0.005) 431
(0.01798525791 0.5389985166 0.005) 266
(0.03309108013 0.8201780622 0.005) 413
(0.03640124178 0.6984159557 0.005) 348
(0.038549092 0.697789655 0.005) 348
(0.03654899517 0.7375835344 0.005) 368
(0.01349417673 0.7108690035 0.005) 356
(0.006170874829 0.7785406038 0.005) 385
(0.04208925362 0.5935096415 0.005) 299
(0.007370399034 0.5049508433 0.005) 250
(0.0317295696 0.9322317595 0.005) 468
(0.02459780239 0.6074568988 0.005) 302
(0.02621520881 0.849637079 0.005) 422
(0.04535319932 0.7608208615 0.005) 384
(0.009656372874 0.7585209357 0.005) 375
(0.03608112661 0.942257072 0.005) 473
(0.02868644434 0.8020858886 0.005) 402
(0.04182579609 0.5503406924 0.005) 279
(0.04790976523 0.9897836662 0.005) 494
(0.02937986326 0.8997249907 0.005) 447
(0.008084799179 0.6258848636 0.005) 310
(0.00111986635 0.9328164625 0.005) 465
(0.0127584647 0.9142275854 0.005) 456
(0.01678362793 0.5952798947 0.005) 296
(0.02696445441 0.9601833188 0.005) 482
(0.0463209565 0.7796039 0.005) 389
(0.006390039986 0.8429149617 0.005) 420
(0.04663247524 0.7042133961 0.005) 354
(0.03624840376 0.7127928892 0.005) 358
(0.01743713149 0.998744155 0.005) 496
(0.02155444453 0.8755206533 0.005) 437
(0.03184147596 0.7151922203 0.005) 358
(0.04222197929 0.9785790657 0.005) 489
(0.03965258766 0.7911016564 0.005) 398
(0.02157400143 0.9197813695 0.005) 457
(0.04421897322 0.9791378164 0.005) 489
(0.02518123784 0.8128730714 0.005) 407
(0.01206997471 0.9394448115 0.005) 466
(0.03009739521 0.6249558709 0.005) 313
(0.04567924065 0.7344944784 0.005) 369
(0.03686094622 0.973480915 0.005) 488
(0.03859318307 0.7675959352 0.005) 383
(0.02034366153 0.8385809813 0.005) 417
(0.0345465899 0.6462716126 0.005) 323
(0.04620428423 0.8997675446 0.005) 449
(0.03683695933 0.8525292539 0.005) 428
(0.01038287498 0.805526006 0.005) 401
(0.01221916798 0.8226776484 0.005) 411
(0.0009553141656 0.6572666448 0.005) 325
(0.03358583879 0.670046164 0.005) 338
(0.03023953294 0.7727928097 0.005) 388
(0.03235972747 0.8435120755 0.005) 423
(0.02973644257 0.8517456533 0.005) 427
(0.004636467106 0.8753999661 0.005) 435
(0.04562141719 0.5228202518 0.005) 264
(0.03580187255 0.8950744301 0.005) 448
(0.0485036461 0.8406718246 0.005) 424
(0.04102612204 0.9020290064 0.005) 454
(0.03757853049 0.9558712174 0.005) 478
(0.0335864342 0.8689104826 0.005) 433
(0.007779544558 0.9716682224 0.005) 485
(0.03997272536 0.7586025615 0.005) 378
(0.007876286836 0.5327779349 0.005) 265
(0.03574893329 0.7632991275 0.005) 383
(0.03768367955 0.9700434297 0.005) 488
(0.03600512183 0.5839615072 0.005) 293
(0.02750527552 0.6506865344 0.005) 327
(0.02091376044 0.6646314177 0.005) 332
(0.02580525768 0.5083938517 0.005) 252
(0.01229434191 0.7603158636 0.005) 381
(0.03176442857 0.6821476029 0.005) 343
(0.02952090999 0.6448716287 0.005) 322
(0.0395715641 0.5523141592 0.005) 278
(0.008709186378 0.5739320957 0.005) 285
(0.01872259031 0.9162828396 0.005) 456
(0.04074638611 0.7478839868 0.005) 374
(0.01723331411 0.5783040834 0.005) 286
(0.01337784874 0.8560073538 0.005) 426
(0.008522454019 0.8650344938 0.005) 430
(0.03829776908 0.5513218291 0.005) 278
(0.002601034499 0.7321726601 0.005) 365
(0.007656164443 0.6794286941 0.005) 335
(0.04790156454 0.6833776713 0.005) 344
(0.04330158397 0.916470999 0.005) 459
(0.00566715689 0.906259269 0.005) 450
(0.04140010078 0.8533780197 0.005) 429
(0.01092980439 0.7095032601 0.005) 351
(0.01995949545 0.9796345289 0.005) 486
(0.00529124415 0.888792145 0.005) 440
(0.01732412582 0.755885297 0.005) 376
(0.01085837782 0.9193860364 0.005) 456
(0.01949470822 0.9565397116 0.005) 476
(0.01667326186 0.7426499984 0.005) 371
(0.001986767338 0.8264921659 0.005) 410
(0.007764846751 0.8924898163 0.005) 445
(0.04428960467 0.814693463 0.005) 409
(0.01439795238 0.8740551897 0.005) 436
(0.03599327856 0.904974856 0.005) 453
(0.01933282381 0.6619844116 0.005) 331
(0.009417792178 0.6994764439 0.005) 345
(0.03397747781 0.9767868279 0.005) 488
(0.02073410691 0.9937524908 0.005) 497
(0.0122445343 0.8220504301 0.005) 411
(0.0398638395 0.7428238148 0.005) 373
(0.01597829271 0.9171553275 0.005) 456
(0.01389688272 0.6602986658 0.005) 331
(0.03219052839 0.9943183593 0.005) 498
(0.0360319707 0.7878919401 0.005) 393
(0.02112541382 0.8753575974 0.005) 437
(0.0113167466 0.805293874 0.005) 401
(0.003659267936 0.6001143431 0.005) 300
(0.01051110521 0.9170183658 0.005) 456
(0.01314833132 0.7749560012 0.005) 386
(0.03690621831 0.769571987 0.005) 383
(0.03821694591 0.9873854024 0.005) 493
(0.04138452517 0.7566459011 0.005) 379
(0.02131688656 0.8480343296 0.005) 422
(0.01100925928 0.719434658 0.005) 356
(0.02945750962 0.8493060799 0.005) 422
(0.03081874484 0.6598272941 0.005) 328
(0.02274652908 0.9431816911 0.005) 472
(0.01683628641 0.6329498862 0.005) 316
(0.03962571882 0.8253837251 0.005) 413
(0.01089450193 0.723748549 0.005) 361
(0.04525075487 0.9603852839 0.005) 484
(0.03985947538 0.8945846091 0.005) 448
(0.04061659892 0.5963878648 0.005) 299
(0.04309992815 0.825080822 0.005) 414
(0.04797333083 0.9908251353 0.005) 499
(0.04727080162 0.8147083298 0.005) 409
(0.0128178077 0.9152981276 0.005) 456
(0.02509303939 0.6729164064 0.005) 337
(0.01910588029 0.6389067034 0.005) 316
(0.03667945212 0.5444411896 0.005) 273
(0.003399048742 0.788968773 0.005) 390
(0.01722392925 0.8058043515 0.005) 401
(0.03793701265 0.7875485498 0.005) 393
(0.04212362878 0.5260682233 0.005) 264
(0.009200891362 0.7689919188 0.005) 380
(0.01378218776 0.7275101242 0.005) 361
(0.01035871778 0.7230856234 0.005) 361
(0.04698948441 0.7311981369 0.005) 369
(0.03430963236 0.9213142376 0.005) 463
(0.02044077648 0.9678327343 0.005) 482
(0.01964093418 0.9454130822 0.005) 471
(0.03398464706 0.9824840142 0.005) 493
(0.02794157985 0.791517698 0.005) 397
(0.01404414746 0.7291292538 0.005) 361
(0.02162955006 0.9433748635 0.005) 472
(0.0421965247 0.7137783372 0.005) 359
(0.005604500181 0.7651134143 0.005) 380
(0.03509360759 0.938377377 0.005) 468
(0.0465688361 0.5987472009 0.005) 299
(0.01892730967 0.9774068049 0.005) 486
(0.01034108555 0.9778316661 0.005) 486
(0.02934186771 0.9903567429 0.005) 497
(0.02547797006 0.8951973097 0.005) 447
(0.01501188917 0.6673563845 0.005) 331
(0.04399271474 0.8386215995 0.005) 419
(0.02633722153 0.734795642 0.005) 367
(0.04154003947 0.7590355932 0.005) 379
(0.002550709905 0.5849156417 0.005) 290
(0.01775406714 0.7956976057 0.005) 396
(0.03418454849 0.5703724682 0.005) 288
(0.0397581867 0.9839320588 0.005) 493
(0.03079516221 0.9766677095 0.005) 488
(0.03389123014 0.7248505111 0.005) 363
(0.02045103926 0.9926528415 0.005) 497
(0.004320746049 0.8983259375 0.005) 445
(0.04663582113 0.8591137376 0.005) 429
(0.02386184711 0.9976722882 0.005) 497
(0.01382761883 0.8625491125 0.005) 431
(0.0444210136 0.713428735 0.005) 359
(0.04234980896 0.9006976122 0.005) 454
(0.01427177186 0.8832371484 0.005) 441
(0.0139596642 0.8920538156 0.005) 446
(0.04421677647 0.7852905696 0.005) 394
(0.01526079741 0.5136893861 0.005) 256
(0.003665761491 0.8766055038 0.005) 435
(0.008003596011 0.804737861 0.005) 400
(0.006538035283 0.8140269442 0.005) 405
(0.003625371723 0.7895680258 0.005) 390
(0.04039526614 0.9998888296 0.005) 499
(0.02162304069 0.9441431082 0.005) 472
(0.04371684168 0.9110023706 0.005) 459
(0.03557995694 0.7888496205 0.005) 393
(0.03515303335 0.7740289087 0.005) 388
(0.00934250824 0.7768653561 0.005) 385
(0.004575038251 0.5663671716 0.005) 280
(0.04637133284 0.9114452604 0.005) 459
(0.03230552022 0.679966281 0.005) 338
(0.03867335788 0.8884614601 0.005) 443
(0.04815652933 0.8052651892 0.005) 404
(0.03544171139 0.5383133022 0.005) 268
(0.04746454331 0.7641821737 0.005) 384
(0.03719101408 0.5312004577 0.005) 268
(0.005157210962 0.6801249589 0.005) 340
(0.0387218531 0.8922959673 0.005) 448
(0.04403043107 0.8217565877 0.005) 414
(0.04405905732 0.939354119 0.005) 469
(0.04231136598 0.8939746769 0.005) 449
(0.01268513415 0.8989841875 0.005) 446
(0.03669322253 0.5818774851 0.005) 293
(0.006197725538 0.9700833269 0.005) 485
(0.001918062256 0.9940241958 0.005) 495
(0.02359903357 0.951312283 0.005) 477
(0.01677525385 0.888726072 0.005) 441
(0.0003434483902 0.924983356 0.005) 460
(0.04176362306 0.8569739717 0.005) 429
(0.02767012012 0.8844401141 0.005) 442
(0.009218907132 0.8983113981 0.005) 445
(0.04560374871 0.8389812208 0.005) 419
(0.01342288828 0.6459336543 0.005) 321
(0.003151215437 0.8576844535 0.005) 425
(0.04674737654 0.9256608468 0.005) 464
(0.006956944573 0.9295923641 0.005) 460
(0.03843327622 0.7811654529 0.005) 393
(0.02124523855 0.7871093577 0.005) 392
(0.01787639837 0.8112869085 0.005) 406
(0.03406751404 0.7465991201 0.005) 373
(0.01549547397 0.6776985684 0.005) 336
(0.01585674904 0.6933701668 0.005) 346
(0.02024821712 0.6577541301 0.005) 327
(0.02798905108 0.8749781461 0.005) 437
(0.03561134317 0.9060421809 0.005) 453
(0.04050555163 0.8902681417 0.005) 449
(0.04173021367 0.7074168394 0.005) 354
(0.02688388038 0.8045061208 0.005) 402
(0.003090266683 0.7953590367 0.005) 395
(0.01002958358 0.9787824135 0.005) 486
(0.03846111286 0.9936716656 0.005) 498
(0.03515034896 0.8724332013 0.005) 438
(0.00976417072 0.6214322867 0.005) 310
(0.003866942988 0.7537900385 0.005) 375
(0.0231163186 0.8587413188 0.005) 427
(0.0009478616868 0.6651742897 0.005) 330
(0.02595998794 0.7168971078 0.005) 357
(0.006380351344 0.8719958222 0.005) 435
(0.003704086446 0.7869658175 0.005) 390
(0.01073571837 0.8049611609 0.005) 401
(0.004842667411 0.9854051168 0.005) 490
(0.03668745991 0.8585554909 0.005) 428
(0.01578329968 0.8115362902 0.005) 406
(0.04617968105 0.744584973 0.005) 374
(0.04385775715 0.9411044368 0.005) 474
(0.0383034129 0.9505480256 0.005) 478
(0.03293992698 0.9488278674 0.005) 473
(0.01034334499 0.5523771847 0.005) 276
(0.004961624695 0.7426700875 0.005) 370
(0.03855228305 0.9430645436 0.005) 473
(0.008672580247 0.942713506 0.005) 470
(0.02969003544 0.7599380903 0.005) 377
(0.005845238285 0.8489587611 0.005) 420
(0.03910513163 0.8138828382 0.005) 408
(0.02012407735 0.9310569509 0.005) 467
(0.007248036099 0.660907119 0.005) 330
(0.01051738753 0.6412061946 0.005) 321
(0.03968582541 0.6675383366 0.005) 333
(0.007590960646 0.8881637035 0.005) 440
(0.04201208598 0.8478031879 0.005) 424
(0.04701349121 0.6013105335 0.005) 304
(0.04008624855 0.8573390827 0.005) 429
(0.01685433146 0.5945180007 0.005) 296
(0.03904279837 0.818770813 0.005) 408
(0.003194217552 0.6326705802 0.005) 315
(0.02228443356 0.9496112556 0.005) 472
(0.01600576073 0.6523036654 0.005) 326
(0.01310268634 0.9406157551 0.005) 471
(0.01392388398 0.8270547566 0.005) 411
(0.02142267335 0.8837816453 0.005) 442
(0.01607718828 0.9373045555 0.005) 466
(0.003681164835 0.7966065608 0.005) 395
(0.0434979717 0.8312732728 0.005) 419
(0.03692874265 0.7097580788 0.005) 353
(0.001158045785 0.9306346064 0.005) 465
(0.003296690061 0.6827562341 0.005) 340
(0.03251226037 0.6484067601 0.005) 323
(0.01928598345 0.7251098532 0.005) 361
(0.005974833151 0.9770425458 0.005) 485
(0.02214976254 0.7553628285 0.005) 377
(0.03367723712 0.8964757202 0.005) 448
(0.04104584769 0.6648771962 0.005) 334
(0.02604311605 0.6540932311 0.005) 327
(0.04470918463 0.636079582 0.005) 319
(0.0310976219 0.6675085423 0.005) 333
(0.04896682512 0.9653260481 0.005) 484
(0.04512288779 0.8534284834 0.005) 429
(0.02852709071 0.9004129792 0.005) 452
(0.02775576535 0.5802671285 0.005) 292
(0.02087075642 0.9975681212 0.005) 497
(0.02988113449 0.7362707246 0.005) 367
(0.04702617987 0.8928939186 0.005) 449
(0.02366669338 0.9562619449 0.005) 477
(0.001428428521 0.7705259886 0.005) 385
(0.03554568145 0.761339389 0.005) 383
(0.04162332447 0.9475097178 0.005) 474
(0.007965057738 0.6372280633 0.005) 315
(0.02271488305 0.8168973618 0.005) 407
(0.03883163593 0.8100482694 0.005) 408
(0.01400542528 0.7412156672 0.005) 371
(0.03862242218 0.5267480372 0.005) 263
(0.01029411122 0.7889199657 0.005) 391
(0.03624510301 0.7368354636 0.005) 368
(0.04429434727 0.7356987059 0.005) 369
(0.02507057145 0.916222769 0.005) 457
(0.02842658445 0.9664382777 0.005) 482
(0.02342776863 0.9658655484 0.005) 482
(0.01243086322 0.9969199422 0.005) 496
(0.007957157768 0.9731453095 0.005) 485
(0.04384697373 0.619564952 0.005) 309
(0.03115996054 0.8760070188 0.005) 438
(0.01652616258 0.909762727 0.005) 451
(0.04359990055 0.7305135532 0.005) 369
(0.01981153467 0.7445284166 0.005) 371
(0.01255746627 0.6842033735 0.005) 341
(0.04007704636 0.9722466895 0.005) 489
(0.006173901501 0.8191808423 0.005) 405
(0.02141075038 0.8826011654 0.005) 442
(0.02750912376 0.8499113578 0.005) 422
(0.01825702392 0.5473922323 0.005) 271
(0.02575407093 0.7404612693 0.005) 372
(0.03361795446 0.8176211769 0.005) 408
(0.01290091931 0.6587618105 0.005) 326
(0.007586320343 0.8159108692 0.005) 405
(0.03726906421 0.8204076713 0.005) 413
(0.01044783723 0.7015990554 0.005) 351
(0.0476189756 0.6713941004 0.005) 339
(0.03099139121 0.5957376206 0.005) 298
(0.01644727 0.6667361535 0.005) 331
(0.01850228351 0.959931552 0.005) 476
(0.04590139714 0.7217275474 0.005) 364
(0.03144979414 0.7670073683 0.005) 383
(0.01186634218 0.5149947874 0.005) 256
(0.03084340685 0.8765907028 0.005) 438
(0.00650495947 0.5677532529 0.005) 280
(0.03686570624 0.6484604449 0.005) 323
(0.04226208571 0.8098022628 0.005) 404
(0.008328653778 0.6841575494 0.005) 340
(0.04139089238 0.7808098927 0.005) 394
(0.03574377028 0.8015008202 0.005) 403
(0.02031342713 0.892697677 0.005) 447
(0.04570363843 0.7907612775 0.005) 399
(0.01766646263 0.8986323013 0.005) 446
(0.03216836192 0.8502514919 0.005) 428
(0.01386478966 0.9797891793 0.005) 486
(0.008163870112 0.5417997609 0.005) 270
(0.01131285161 0.6565167649 0.005) 326
(0.01890416034 0.7211953243 0.005) 361
(0.01381341606 0.7849972838 0.005) 391
(0.03122898621 0.7933917212 0.005) 398
(0.003721920797 0.7621440103 0.005) 380
(0.0066162363 0.7027126366 0.005) 350
(0.04408891164 0.7615310991 0.005) 384
(0.03425111797 0.8478888344 0.005) 423
(0.02730017139 0.9575287389 0.005) 477
(0.001736685922 0.9069307416 0.005) 450
(0.004734934474 0.7257284073 0.005) 360
(0.03412723615 0.6548289729 0.005) 328
(0.003003317438 0.9288318533 0.005) 460
(0.02975731264 0.8460447169 0.005) 422
(0.030830756 0.7958305945 0.005) 398
(0.0008065979112 0.9370632095 0.005) 465
(0.03170299221 0.991411667 0.005) 498
(0.006953107772 0.7321129777 0.005) 365
(0.02406925461 0.9649162525 0.005) 482
(0.01258067815 0.5680936501 0.005) 281
(0.04320025036 0.6392182285 0.005) 319
(0.03638164547 0.5297262064 0.005) 263
(0.04660867857 0.8011821558 0.005) 404
(0.03167571147 0.6164929147 0.005) 308
(0.0208877069 0.7441413955 0.005) 372
(0.04318066993 0.7778151527 0.005) 389
(0.03733546303 0.9311826129 0.005) 468
(0.008271111243 0.9125795769 0.005) 455
(0.03814773703 0.5652885541 0.005) 283
(0.02801406008 0.6706795761 0.005) 337
(0.01424242573 0.7344302574 0.005) 366
(0.03242443464 0.9552282796 0.005) 478
(0.002198787817 0.5662491176 0.005) 280
(0.04815982882 0.8160630573 0.005) 409
(0.04212589677 0.5665338157 0.005) 284
(0.04880694703 0.869873664 0.005) 434
(0.04853125365 0.6542859341 0.005) 329
(0.04080921187 0.9647911005 0.005) 484
(0.01595321882 0.9601044436 0.005) 481
(0.004636744013 0.5957039769 0.005) 295
(0.01483293376 0.9093018054 0.005) 451
(0.02840801185 0.7102215506 0.005) 357
(0.03376665861 0.8616768222 0.005) 433
(6.473036206e-06 0.8303224034 0.005) 415
(0.02632123332 0.7634584645 0.005) 382
(0.007360871474 0.6218009018 0.005) 310
(0.0334565063 0.8497120765 0.005) 423
(0.03661298713 0.837215623 0.005) 418
(0.01395377952 0.617066346 0.005) 306
(0.0487703984 0.5894049905 0.005) 294
(6.64359334e-05 0.7678709757 0.005) 380
(0.01313693587 0.6977124481 0.005) 346
(0.04564972586 0.8986944119 0.005) 449
(0.03521292161 0.6221018576 0.005) 313
(0.01221687674 0.7392364265 0.005) 366
(0.0377054306 0.807755709 0.005) 403
(0.03689709812 0.8960731311 0.005) 448
(0.0006849632763 0.7559292345 0.005) 375
(0.0008450857572 0.9744731619 0.005) 485
(0.04772277868 0.8338036605 0.005) 419
(0.006550648678 0.7782966322 0.005) 385
(0.009474783226 0.8205609831 0.005) 410
(0.03333441438 0.9096118647 0.005) 453
(0.02739631661 0.9735091058 0.005) 487
(0.03256477572 0.993264174 0.005) 498
(0.008226124603 0.8568752085 0.005) 425
(0.03117842779 0.8035409348 0.005) 403
(0.009005245903 0.9894618416 0.005) 490
(0.008742661313 0.7795390774 0.005) 385
(0.02350862804 0.7309518669 0.005) 367
(0.03999809754 0.6462384354 0.005) 323
(0.01135509717 0.8196952261 0.005) 406
(0.02426477579 0.7705184004 0.005) 387
(0.00326198887 0.9488402285 0.005) 470
(0.003344638863 0.7670093494 0.005) 380
(0.03438377297 0.6784181552 0.005) 338
(0.01001508978 0.9654705147 0.005) 481
(0.03103643798 0.947544245 0.005) 473
(0.03592520357 0.836420473 0.005) 418
(0.03683730821 0.9855742044 0.005) 493
(0.01690992591 0.8054036506 0.005) 401
(0.03115693498 0.6782901324 0.005) 338
(0.04819958925 0.6484255184 0.005) 324
(0.01906809603 0.9192724275 0.005) 456
(0.04879780022 0.7915857226 0.005) 399
(0.005399815352 0.7381874343 0.005) 365
(0.04835444507 0.7848712049 0.005) 394
(0.02623206618 0.5682597121 0.005) 282
(0.002561906166 0.7517272686 0.005) 375
(0.001757794939 0.7808709619 0.005) 390
(0.04622076909 0.7894184689 0.005) 394
(0.0306376417 0.8131736046 0.005) 408
(0.03500631136 0.6417771791 0.005) 323
(0.02335606745 0.5317048594 0.005) 267
(0.02455674368 0.8519671872 0.005) 427
(0.04254632828 0.8363762485 0.005) 419
(0.03982926716 0.8116875173 0.005) 408
(0.01296674124 0.7966809944 0.005) 396
(0.03675097042 0.8020764829 0.005) 403
(0.004731813217 0.9397675902 0.005) 465
(0.0416435162 0.7359908634 0.005) 369
(0.03929816628 0.8154642305 0.005) 408
(0.03174375607 0.8084660628 0.005) 403
(0.04015247528 0.8420981348 0.005) 424
(0.0007082311999 0.97955721 0.005) 485
(0.01572731192 0.6004495943 0.005) 301
(0.01822405963 0.5942893887 0.005) 296
(0.00274025067 0.7598674663 0.005) 375
(0.02536252399 0.880718793 0.005) 442
(0.04051085402 0.8037839 0.005) 404
(0.03487271768 0.7107944373 0.005) 358
(0.04406398724 0.8162619807 0.005) 409
(0.006534123354 0.9365336738 0.005) 465
(0.03467851861 0.7902569328 0.005) 398
(0.03350075915 0.5222846896 0.005) 263
(0.02191535491 0.6086252526 0.005) 302
(0.03325256064 0.7447353737 0.005) 373
(0.04356875792 0.8603461312 0.005) 434
(0.01711328003 0.7777485629 0.005) 386
(0.0006356488425 0.8551691804 0.005) 425
(0.02038348485 0.939458854 0.005) 467
(0.037350283 0.9569631847 0.005) 478
(0.008914407539 0.8852978597 0.005) 440
(0.009818157223 0.8479881033 0.005) 420
(0.02215831299 0.6464180993 0.005) 322
(0.01550188866 0.6031412433 0.005) 301
(0.01735132246 0.8775595652 0.005) 436
(0.03084388681 0.771484418 0.005) 388
(0.03600215171 0.654919136 0.005) 328
(0.0267547738 0.7865524556 0.005) 392
(0.02720941336 0.7358742659 0.005) 367
(0.03510666529 0.5960494482 0.005) 298
(0.02626435474 0.6607490857 0.005) 332
(0.04229855103 0.849680341 0.005) 424
(0.04891164902 0.7778447272 0.005) 389
(0.03557648764 0.6948830519 0.005) 348
(0.0488186553 0.8893534362 0.005) 444
(0.02127190065 0.7716727319 0.005) 387
(0.01368515914 0.8423791122 0.005) 421
(0.04416359297 0.7410766041 0.005) 374
(0.04780652432 0.7506751434 0.005) 379
(0.04314725709 0.6002658719 0.005) 304
(0.03286375107 0.7922799765 0.005) 398
(0.00522111907 0.53990407 0.005) 265
(0.02811345038 0.9425159146 0.005) 472
(0.04096807824 0.8694538162 0.005) 434
(0.01575957618 0.6685635005 0.005) 331
(0.007587428241 0.6485128117 0.005) 320
(0.02678874439 0.720262564 0.005) 362
(0.01854792558 0.9522433426 0.005) 476
(0.01834272215 0.6838263441 0.005) 341
(0.003886392445 0.5593573946 0.005) 275
(0.03123479494 0.8159384128 0.005) 408
(0.01758658688 0.8502011259 0.005) 426
(0.008956540992 0.6236664983 0.005) 310
(0.02806970011 0.6018863791 0.005) 302
(0.03639017696 0.9700249685 0.005) 488
(0.03063679029 0.9723884215 0.005) 488
(0.03479244163 0.7536261885 0.005) 378
(0.02156664813 0.7559753172 0.005) 377
(0.0192686568 0.968237746 0.005) 481
(0.01325083331 0.9434034593 0.005) 471
(0.02328131556 0.7148270575 0.005) 357
(0.03805813898 0.8938658799 0.005) 448
(0.003251582511 0.6387554109 0.005) 315
(0.04451253328 0.7310959897 0.005) 369
(0.002197441476 0.5218307475 0.005) 260
(0.0269033705 0.5570982244 0.005) 277
(0.04548579905 0.7437973851 0.005) 374
(0.03390590831 0.9805031073 0.005) 493
(0.005634386109 0.934912037 0.005) 465
(0.03373914605 0.5164160263 0.005) 258
(0.01329201021 0.6750308302 0.005) 336
(0.006022168918 0.8151948496 0.005) 405
(0.04719576968 0.6828704175 0.005) 344
(0.03625448041 0.5955242668 0.005) 298
(0.0223167793 0.8688168084 0.005) 432
(0.04973021004 0.5448745552 0.005) 274
(0.02866600283 0.8219166538 0.005) 412
(0.03982362835 0.7628851102 0.005) 383
(0.00949816571 0.9269509776 0.005) 460
(0.007187803972 0.7200934944 0.005) 360
(0.03380347594 0.7750303605 0.005) 388
(0.04438019908 0.5239874373 0.005) 264
(0.03963997733 0.6987290672 0.005) 348
(0.001539359305 0.7540897317 0.005) 375
(0.0435638685 0.9002890761 0.005) 454
(0.006638853841 0.7201708624 0.005) 360
(0.004410267749 0.9816296844 0.005) 490
(0.002426682034 0.779888357 0.005) 385
(0.04336050374 0.8217260272 0.005) 414
(0.02473151394 0.7144937891 0.005) 357
(0.0186367254 0.7424205739 0.005) 371
(0.02635888709 0.8720893868 0.005) 437
(0.02428133944 0.933724671 0.005) 467
(0.02626840255 0.6019735642 0.005) 302
(0.04785784858 0.745769374 0.005) 374
(0.02813952324 0.9812171758 0.005) 492
(0.03683383461 0.9336628113 0.005) 468
(0.01542104658 0.5385721896 0.005) 266
(0.005833963223 0.8146872455 0.005) 405
(0.02269425895 0.9386325247 0.005) 467
(0.0089888225 0.9006031152 0.005) 450
(0.01659751183 0.6916087539 0.005) 346
(0.02231870527 0.8205671277 0.005) 412
(0.03974482897 0.7007417462 0.005) 353
(0.03249647754 0.7506370177 0.005) 378
(0.04931802698 0.9218746806 0.005) 464
(0.04536084664 0.816164312 0.005) 409
(0.04484017872 0.894614443 0.005) 449
(0.0340167023 0.6785229601 0.005) 338
(0.009771059385 0.5399116237 0.005) 265
(0.04014407377 0.5967138089 0.005) 299
(0.003135730593 0.9634632057 0.005) 480
(0.0342440732 0.993593308 0.005) 498
(0.01548846681 0.9805010108 0.005) 491
(0.02559888133 0.7818098637 0.005) 392
(0.0169195869 0.6787661324 0.005) 336
(0.02395618602 0.9461419456 0.005) 472
(0.01742086046 0.8603352977 0.005) 431
(0.02319911204 0.7434834042 0.005) 372
(0.02597777438 0.9590750222 0.005) 477
(0.01952165429 0.6641539336 0.005) 331
(0.01236962767 0.8734563545 0.005) 436
(0.04159977016 0.6915799889 0.005) 349
(0.03606285306 0.8036156014 0.005) 403
(0.04773065079 0.6801177365 0.005) 344
(0.02767934618 0.5872506603 0.005) 292
(0.0117349436 0.7046146531 0.005) 351
(0.0150579914 0.5926608344 0.005) 296
(0.01079262737 0.5784778154 0.005) 286
(0.02115522376 0.8308867175 0.005) 417
(0.01489918327 0.7838158642 0.005) 391
(0.01270368871 0.5947549345 0.005) 296
(0.03924597941 0.9572507075 0.005) 478
(0.04489460185 0.849041378 0.005) 424
(0.01382860364 0.7632726889 0.005) 381
(0.01101394526 0.5302268712 0.005) 266
(0.02859573513 0.5790672702 0.005) 287
(0.02766190042 0.8232437846 0.005) 412
(0.04091456308 0.8476637541 0.005) 424
(0.03931735949 0.5407134865 0.005) 273
(0.02264433133 0.725264618 0.005) 362
(0.01392039534 0.5803949363 0.005) 291
(0.01581767882 0.8827066607 0.005) 441
(0.0493641006 0.7332444307 0.005) 369
(0.03973275778 0.9165467038 0.005) 458
(0.03293430083 0.5343537365 0.005) 268
(0.02600822712 0.7904206268 0.005) 397
(0.02806755551 0.8736103038 0.005) 437
(0.04748978317 0.8276181292 0.005) 414
(0.01494730093 0.6920036136 0.005) 346
(0.02915183636 0.9006387448 0.005) 452
(0.02121645432 0.8703245047 0.005) 437
(0.01112860619 0.527494938 0.005) 261
(0.03735929084 0.7986326876 0.005) 398
(0.04069086907 0.6747385899 0.005) 339
(0.007619319924 0.9795149452 0.005) 485
(0.04471687385 0.7123564567 0.005) 359
(0.0138194001 0.6659261604 0.005) 331
(0.02931327243 0.9910572549 0.005) 497
(0.005593433917 0.6563301216 0.005) 325
(0.04077258427 0.6402970519 0.005) 324
(0.002405828882 0.8637750619 0.005) 430
(0.04487281899 0.5255702634 0.005) 264
(0.0482562692 0.858559724 0.005) 429
(0.002686731905 0.8310385982 0.005) 415
(0.0449992286 0.9116308019 0.005) 459
(0.01119284256 0.5116888412 0.005) 256
(0.02193653062 0.6157600794 0.005) 307
(0.001036528918 0.7870879937 0.005) 390
(0.04931342329 0.7589434187 0.005) 379
(0.01474161627 0.9620928046 0.005) 481
(0.03116091069 0.8937647558 0.005) 448
(0.01636081184 0.9182932161 0.005) 456
(0.03529910762 0.5299001452 0.005) 263
(0.02691515938 0.567407217 0.005) 282
(0.03409291929 0.9809137879 0.005) 493
(0.009942393728 0.86334087 0.005) 430
(0.04781876204 0.9219065363 0.005) 464
(0.04517758422 0.9228976606 0.005) 464
(0.04698494857 0.889776105 0.005) 444
(0.03892907994 0.8245107326 0.005) 413
(0.002708495113 0.973250281 0.005) 485
(0.0151844652 0.977031864 0.005) 486
(0.01078374259 0.9476027516 0.005) 471
(0.0143687272 0.5531218799 0.005) 276
(0.01201251875 0.7792883134 0.005) 386
(0.02597415762 0.7983378616 0.005) 397
(0.02294126186 0.7484217893 0.005) 372
(0.008935371651 0.7695967549 0.005) 380
(0.001226773328 0.8567118576 0.005) 425
(0.003092722603 0.7378729068 0.005) 365
(0.01149549432 0.9958130076 0.005) 496
(0.003690751748 0.5045470273 0.005) 250
(0.04197982768 0.9388906868 0.005) 469
(0.0312481826 0.7712737778 0.005) 388
(0.03012554658 0.9970775657 0.005) 498
(0.03591404303 0.8555460089 0.005) 428
(0.03836489828 0.6857826778 0.005) 343
(0.04535832408 0.6592094877 0.005) 329
(0.02499742454 0.6736801907 0.005) 337
(0.04760568713 0.9562723253 0.005) 479
(0.02726895024 0.8765457192 0.005) 437
(0.03491233592 0.628022301 0.005) 313
(0.02399180215 0.7835939664 0.005) 392
(0.04618410146 0.7347245658 0.005) 369
(0.004542115111 0.5498459427 0.005) 270
(0.03371125179 0.6678648013 0.005) 333
(0.03295385504 0.8605883825 0.005) 433
(0.01443522339 0.8026651833 0.005) 401
(0.02421670226 0.8281806361 0.005) 412
(0.01189132301 0.9261425978 0.005) 461
(0.02439867188 0.7837927973 0.005) 392
(0.01210553887 0.8998093035 0.005) 446
(0.01321200278 0.6377220942 0.005) 316
(0.04647720073 0.652794107 0.005) 329
(0.01743326293 0.6244534695 0.005) 311
(0.04320646951 0.6620345678 0.005) 334
(0.04293243143 0.5887124388 0.005) 294
(0.04467359158 0.8359549022 0.005) 419
(0.02245898705 0.9190176942 0.005) 457
(0.04676894405 0.5784751756 0.005) 289
(0.02935457761 0.9207726134 0.005) 462
(0.01485656352 0.7148111493 0.005) 356
(0.0207271069 0.6965130348 0.005) 347
(0.001171623122 0.9757886362 0.005) 485
(0.03069056469 0.6952651504 0.005) 348
(0.04331498618 0.5738040682 0.005) 289
(0.003562390449 0.888008063 0.005) 440
(0.004415504009 0.9037011201 0.005) 450
(0.04999395644 0.9092027647 0.005) 454
(0.04832085634 0.6366166824 0.005) 319
(0.0353039617 0.8037098537 0.005) 403
(0.0391700554 0.8206260662 0.005) 413
(0.04902384827 0.8525252293 0.005) 429
(0.04931502713 0.8003146608 0.005) 404
(0.04966172418 0.8689872437 0.005) 434
(0.02449646579 0.8237557233 0.005) 412
(0.004304195031 0.8535161953 0.005) 425
(0.0233812915 0.6692859904 0.005) 332
(0.02706557659 0.8233221483 0.005) 412
(0.03349361815 0.647579006 0.005) 323
(0.02924669304 0.8479115726 0.005) 422
(0.01694684383 0.9194334486 0.005) 456
(0.003085071402 0.7641067338 0.005) 380
(0.01438591589 0.9699309483 0.005) 481
(0.0418478365 0.9954444254 0.005) 499
(0.02738630311 0.6805923041 0.005) 342
(0.04287427147 0.9650656047 0.005) 484
(0.01367017898 0.7034987481 0.005) 351
(0.04708757572 0.977009751 0.005) 489
(0.04744888013 0.5142032358 0.005) 259
(0.02250615683 0.8761714791 0.005) 437
(0.006273226547 0.6634650359 0.005) 330
(0.04031960596 0.5133682018 0.005) 259
(0.0029233623 0.5384455244 0.005) 265
(0.0454258617 0.8362863908 0.005) 419
(0.03062998623 0.7016952352 0.005) 353
(0.02200307274 0.8592146483 0.005) 427
(0.02207840228 0.7182810492 0.005) 357
(0.005440830577 0.6536108719 0.005) 325
(0.04958445773 0.7089866932 0.005) 354
(0.02189930986 0.7415034398 0.005) 372
(0.03861465525 0.9967767427 0.005) 498
(0.03425055575 0.7412261191 0.005) 373
(0.03982970954 0.5828632897 0.005) 293
(0.001473337094 0.5586930036 0.005) 275
(0.04830197201 0.8961153445 0.005) 449
(0.01987344411 0.8911875607 0.005) 446
(0.03711584425 0.9233510855 0.005) 463
(0.01051859482 0.693861372 0.005) 346
(0.04283899864 0.9137004758 0.005) 459
(0.007758177464 0.9464825391 0.005) 470
(2.685540197e-05 0.8570813952 0.005) 425
(0.03573354398 0.7080119405 0.005) 353
(0.03762104541 0.9409942699 0.005) 473
(0.03248921709 0.813359535 0.005) 408
(0.0004891824931 0.7086106461 0.005) 350
(0.03084388588 0.9039208367 0.005) 453
(0.02745845116 0.9073132171 0.005) 452
(0.002053467592 0.6344397284 0.005) 315
(0.04628079614 0.9029818777 0.005) 454
(0.01792522095 0.9892350463 0.005) 491
(0.005225803587 0.6524985607 0.005) 325
(0.03497063215 0.951667434 0.005) 478
(0.04218547462 0.9161452117 0.005) 459
(0.01803224565 0.6568520906 0.005) 326
(0.02860926236 0.6332682689 0.005) 317
(0.01478855639 0.9141560161 0.005) 456
(0.02216180409 0.6975234593 0.005) 347
(0.03248122069 0.8741430233 0.005) 438
(0.02460079082 0.9197765868 0.005) 457
(0.01450921384 0.8809710498 0.005) 441
(0.03017318608 0.6256785122 0.005) 313
(0.04285477805 0.6011807861 0.005) 304
(0.02207583277 0.9567391929 0.005) 477
(0.01828901843 0.9170132928 0.005) 456
(0.02288226716 0.9454736072 0.005) 472
(0.006986157763 0.6434128375 0.005) 320
(0.03052640608 0.9061241229 0.005) 453