/*--------------------------------*- C++ -*----------------------------------*\
| =========                 |                                                 |
| \\      /  F ield         | OpenFOAM: The Open Source CFD Toolbox           |
|  \\    /   O peration     | Version:  v1706                                 |
|   \\  /    A nd           | Web:      www.OpenFOAM.com                      |
|    \\/     M anipulation  |                                                 |
\*---------------------------------------------------------------------------*/
FoamFile
{
    version     2.0;
    format      ascii;
    class       scalarField;
    location    "0.01/lagrangian/dsmc";
    object      ERot;
}
// * * * * * * * * * * * * * * * * * * * * * * * * * * * * * * * * * * * * * //


63937
(
4.576741942e-21
7.354171501e-21
1.429907922e-21
9.563645928e-21
2.776265838e-21
3.96937065e-21
2.186182689e-21
1.066592322e-21
9.580599749e-21
8.133306749e-22
4.105482757e-21
2.134769486e-21
6.387620147e-22
5.076857597e-21
6.902025137e-22
1.218719977e-21
3.925815832e-21
2.243681155e-21
5.433397152e-21
1.565325829e-21
2.15870371e-21
1.37385568e-21
5.94201576e-23
7.944879312e-21
5.670085008e-21
2.185902632e-21
4.739369434e-21
6.601827055e-22
2.451862015e-21
2.229469009e-21
2.807046377e-21
3.273513788e-21
7.541854877e-23
1.546725678e-21
2.632039953e-21
2.15812193e-21
1.11446359e-20
8.014064348e-21
1.01460178e-20
5.539330426e-21
1.187678876e-21
1.603687075e-20
1.955022829e-21
1.501462993e-20
2.745698786e-22
2.139368661e-22
5.384215457e-21
5.061730301e-21
1.562993494e-21
6.187924941e-22
7.294758478e-21
1.026884123e-21
5.785455094e-22
5.823488324e-21
7.123437808e-22
6.030902202e-21
2.807863629e-21
4.73992215e-21
3.160985534e-20
3.569756585e-21
1.69925974e-21
5.094348239e-21
1.287135024e-20
1.289903624e-21
4.025040206e-21
7.347822571e-21
4.52519402e-21
2.05187374e-21
5.116161444e-21
3.072755473e-22
3.476735657e-21
2.433077275e-21
2.071678742e-22
7.174625062e-21
3.778719642e-22
2.557000794e-21
1.871569551e-21
9.446515482e-21
1.334488579e-21
1.882331471e-21
6.286047798e-21
1.538876782e-21
7.920856619e-21
4.993373841e-21
3.890945102e-21
5.413081274e-21
1.558386333e-22
5.060898026e-22
7.297751521e-21
3.182278883e-21
1.902194092e-21
1.853020524e-22
1.226845684e-21
9.202314607e-21
3.640706251e-22
1.033111483e-20
1.171121673e-20
3.812107054e-21
1.809054715e-22
7.325222472e-21
5.422682684e-21
1.035911497e-21
1.721118042e-21
1.192230462e-20
3.694931549e-23
2.23528991e-21
1.734966208e-21
6.876650757e-22
3.870213947e-21
4.133450414e-21
1.165739801e-21
9.900182775e-22
1.688919155e-21
1.775161127e-21
1.206395595e-20
4.095934743e-21
5.817519656e-21
1.859114269e-21
1.068647891e-20
4.287419223e-21
1.095785081e-20
6.910368512e-22
4.367662303e-21
3.317108688e-22
3.151272881e-21
6.865283616e-21
5.527004889e-22
6.651667801e-21
8.500005087e-22
3.605108059e-21
7.4951784e-21
3.10170774e-22
1.715829632e-21
1.207416089e-20
8.234374947e-21
7.033026247e-23
2.315941714e-21
5.660449751e-22
2.883471791e-21
4.294843734e-21
5.263556831e-21
8.668072494e-21
7.297975845e-21
2.822915676e-21
6.156487901e-22
9.400308374e-23
3.604410814e-21
5.849377073e-21
8.660739728e-22
3.150840856e-21
6.559310899e-21
1.232788332e-21
6.978290684e-21
4.207428239e-21
2.717224688e-21
1.001981387e-20
5.604113608e-21
4.637547271e-21
1.329985992e-20
6.938956002e-21
3.068609709e-21
6.39952621e-21
2.359676247e-23
6.067741512e-21
1.070900044e-20
3.366757009e-22
2.720973458e-21
9.826249026e-23
2.248225167e-21
7.623646832e-22
3.706882398e-21
1.294719504e-21
1.114199012e-20
1.130761135e-21
1.661557604e-21
1.472232917e-20
6.598841421e-21
2.091315994e-21
6.333008803e-22
8.404552543e-22
8.101280912e-22
2.356442573e-21
8.097601514e-22
2.797478284e-22
1.361303796e-21
2.96513135e-21
3.232387599e-21
7.481639488e-21
2.962261713e-22
6.234507098e-22
1.898517729e-21
2.520726698e-21
4.046988919e-21
9.528411484e-22
1.281944294e-21
7.310406883e-21
1.962526403e-21
1.343075329e-21
1.573035052e-20
3.908303581e-21
3.392032701e-21
1.074137109e-21
1.419550047e-21
2.142864839e-21
3.019607139e-22
2.10172911e-21
2.553457734e-21
1.994873046e-20
1.260887586e-21
1.354400276e-21
1.541284887e-21
1.30308257e-21
1.76412138e-21
1.749033543e-21
1.003914403e-20
6.910543551e-21
3.929048109e-21
4.251932736e-21
4.70255141e-21
2.045049444e-21
2.071651733e-21
1.810276661e-21
6.607086824e-21
7.681131156e-22
1.775955982e-20
2.567742626e-21
1.267914835e-20
7.974231127e-21
8.259982996e-21
3.649765072e-21
1.834853639e-21
3.55655248e-21
1.28265868e-20
2.896971322e-21
3.751044248e-21
3.051569261e-21
2.286421698e-21
9.205753269e-21
1.734650463e-21
1.941659753e-21
4.060846349e-21
2.229082637e-21
8.395314512e-21
4.780658277e-21
1.10286118e-20
9.08108748e-22
9.128913278e-21
2.774778458e-21
1.255600975e-21
3.300794834e-21
2.586618008e-21
6.434820718e-22
4.435399876e-21
7.978032168e-21
8.359471631e-22
1.870527515e-21
6.277086411e-21
1.441449526e-21
2.152341549e-21
4.065205321e-21
1.608531373e-21
1.004358877e-21
2.302298864e-20
5.405364126e-21
2.864436482e-22
1.997402158e-22
8.072617197e-21
6.7910956e-21
2.192648921e-21
1.614021387e-21
3.021968237e-21
3.159404786e-21
3.600016524e-21
6.294564454e-22
4.014339156e-22
8.929154264e-21
7.970215857e-21
1.855797855e-21
6.915103763e-22
1.338163871e-20
1.543775875e-21
6.102434937e-21
5.133863137e-21
8.54919926e-21
4.90373324e-22
1.440549973e-21
1.52418695e-21
2.097530304e-20
5.44464058e-21
1.966155557e-21
1.184188492e-21
3.507103423e-21
1.034226255e-20
5.96503871e-23
2.06131284e-21
3.17522511e-22
2.239190077e-21
2.359108538e-21
1.173122546e-21
8.782939034e-22
8.24406785e-23
1.717407089e-21
2.006431121e-20
1.988820925e-21
5.524587754e-21
2.264448301e-21
7.269314015e-21
7.875422393e-21
1.649297511e-21
4.661596643e-21
5.305676944e-21
7.267509277e-21
1.194263249e-20
8.321550762e-21
4.096000439e-21
1.168944127e-21
1.558594754e-21
8.716940585e-22
5.307843919e-21
8.584358064e-21
2.434909595e-23
4.839814889e-21
5.060469198e-21
1.565278941e-22
6.998698734e-21
3.620375385e-21
8.544345287e-21
3.125519115e-21
8.597326869e-22
7.566325316e-22
6.529371573e-22
7.159033661e-21
3.098194887e-21
2.292614692e-22
4.929230225e-21
3.840813731e-21
1.851002695e-21
3.74455113e-21
7.147203985e-21
3.571024745e-22
2.947128149e-21
2.122060462e-21
1.558184353e-21
3.897335149e-21
1.441134282e-21
7.418402939e-22
1.586611315e-21
7.540198051e-22
4.597810419e-21
5.931390258e-21
8.757227764e-22
3.136698982e-21
2.914986818e-21
1.115847379e-20
7.969139697e-21
4.667231052e-21
8.542037704e-21
7.246333689e-22
2.450890261e-21
1.492333821e-20
4.958455712e-22
3.69056147e-21
5.250267009e-21
2.073051779e-21
3.622438666e-21
4.105110194e-21
3.027346132e-21
1.74409689e-21
3.690349e-21
2.973599265e-21
2.180518394e-21
1.980612108e-21
1.951352191e-21
2.754629924e-21
2.977520943e-21
2.865211686e-21
5.556949937e-22
1.096021845e-21
5.385343689e-21
5.421071972e-21
4.496118072e-22
7.380425486e-21
3.33524696e-21
4.805058484e-21
3.663726798e-21
1.28903894e-21
1.346532469e-21
1.415953896e-22
1.87023409e-21
1.271736916e-20
6.744446707e-21
1.241086262e-22
3.214831794e-21
1.213980077e-21
8.979566935e-21
2.743094978e-21
3.024389211e-21
4.920185427e-21
1.249067048e-21
2.00202313e-21
1.117805972e-21
3.172216554e-21
3.901358328e-21
1.669937237e-21
8.512739913e-22
4.053238928e-21
1.302310807e-21
1.615966283e-21
1.023211583e-20
2.093694853e-21
5.80471493e-21
6.424461679e-21
4.058770528e-22
8.367856021e-21
7.533103662e-21
3.183154485e-21
6.38885493e-22
3.282527195e-23
6.03518768e-22
7.034184392e-21
6.505372492e-22
1.447598218e-21
2.999982403e-22
3.607677939e-21
3.007666761e-21
8.815401759e-21
1.311388451e-21
3.49150455e-22
4.930704769e-21
2.188324464e-20
2.229741099e-21
1.250622273e-21
3.476795876e-21
2.93613672e-21
5.298632589e-21
9.391604557e-23
8.789355767e-21
3.134048541e-21
1.219541974e-21
3.298100004e-22
6.619439704e-21
1.428969383e-20
1.159875551e-20
2.294378044e-21
6.303719236e-21
8.903583137e-22
1.629445736e-21
7.751280791e-21
5.409972183e-21
1.748018726e-22
1.215488979e-21
6.043195165e-22
2.847330701e-21
4.685181817e-21
6.31021747e-21
1.253695198e-21
9.428218349e-22
1.658190571e-21
4.175876437e-21
3.879004363e-22
4.874330521e-21
2.081807419e-20
1.153840282e-20
5.85527383e-21
7.188646164e-22
7.203040079e-21
1.827955493e-20
8.521427554e-21
1.5945228e-21
8.633796205e-22
2.702830559e-21
5.259908299e-21
8.982027007e-21
1.090518437e-21
4.308103251e-21
1.482566303e-20
1.096712561e-20
3.33746061e-21
2.051726581e-21
1.83096591e-23
1.380164027e-21
3.157523374e-21
8.007873468e-21
9.015229298e-21
1.428475477e-21
2.329115969e-21
4.911647282e-21
1.299643022e-20
1.394260123e-20
2.153828955e-21
1.415062198e-21
2.566599385e-21
4.313739777e-21
1.065281265e-20
1.820302739e-22
2.270471138e-21
7.224830827e-21
1.169043482e-20
1.098482487e-20
1.726826837e-23
6.876052949e-22
2.334083436e-21
1.810218423e-21
7.621747659e-22
3.623644098e-21
7.997041372e-22
7.90677986e-21
5.763699011e-22
1.674843761e-21
1.335350085e-21
2.314934157e-21
1.072511123e-21
7.318208983e-21
1.121443861e-21
5.643554462e-21
1.017432746e-21
2.953200538e-21
1.377934566e-21
1.91074147e-21
3.021617143e-21
2.020448249e-21
6.042612651e-22
7.101831093e-21
1.254444934e-20
6.708057067e-21
3.472221969e-21
1.369597258e-21
8.401079152e-22
8.304635112e-21
2.771244364e-21
2.54826333e-21
1.878217604e-22
6.413316102e-22
1.662358914e-22
5.068252813e-21
5.545826113e-22
7.010027807e-21
1.417576538e-21
1.856397284e-21
1.068185002e-21
1.968960801e-21
3.297773667e-21
3.690134943e-21
9.684030497e-21
1.110452773e-20
3.154352193e-22
4.299200469e-22
1.689832017e-21
2.235557372e-21
4.931179946e-21
1.849889284e-21
7.776963394e-21
3.10951921e-21
9.981009219e-21
5.609143653e-21
2.308187319e-22
4.106838626e-21
8.052100299e-21
1.404388509e-21
2.525057357e-21
7.241849046e-22
7.326095461e-21
4.010498783e-21
2.52892086e-22
2.016153397e-21
1.675710315e-21
2.912308134e-21
1.640214461e-21
3.044300469e-21
5.652737764e-21
6.535027229e-21
1.095977319e-20
4.341218888e-21
3.624808959e-21
8.213710173e-21
1.179955097e-22
2.347109707e-22
1.100958731e-20
6.566927312e-22
1.116823307e-21
1.341626607e-20
3.050287064e-21
6.803858226e-21
3.855540092e-21
4.185045505e-21
3.305035061e-21
1.723617077e-21
5.526129916e-21
7.583081668e-21
3.402487715e-21
3.568656435e-21
1.065858041e-20
2.050742816e-21
3.8691514e-21
2.237723346e-21
1.18382823e-20
1.029468401e-21
2.581182378e-21
7.306579719e-22
1.017327521e-20
1.316641235e-21
5.509457805e-21
4.368747622e-22
3.562796698e-22
1.578959047e-20
2.711675429e-21
1.315472823e-21
2.793895413e-21
9.732479451e-22
6.071431721e-21
5.158646515e-21
7.827607368e-21
1.704715461e-21
3.390718419e-21
3.03615074e-21
2.100846854e-21
2.977910846e-21
4.938272393e-21
3.025351645e-21
3.943969181e-21
1.238075749e-20
3.821596827e-22
4.746547026e-21
6.880887613e-21
7.382619884e-21
3.775507897e-21
3.374393347e-21
4.820671829e-22
7.370743702e-22
3.716523122e-21
1.563369244e-21
1.088991872e-20
6.765614396e-21
1.592085518e-22
1.505929759e-21
2.729230269e-21
2.997609113e-21
1.870170685e-21
2.85485354e-21
2.568752043e-21
4.906907211e-21
5.838697816e-21
6.555148664e-21
5.597548866e-21
6.688336403e-21
4.141519464e-22
3.312089613e-21
1.094083465e-20
2.070641722e-21
9.924595236e-23
9.188773602e-22
1.298457414e-21
5.644643595e-21
2.192480483e-21
8.440343559e-23
8.409756787e-22
3.243069002e-22
1.465637774e-21
3.384513016e-21
3.99336584e-21
4.947548202e-21
1.558611217e-21
1.765752961e-21
4.034655638e-21
3.035457246e-21
1.015255948e-21
2.623882728e-21
2.485694199e-21
8.948068418e-21
9.367239579e-21
6.787475761e-21
5.986179819e-22
4.976268727e-21
1.975834482e-22
4.687523388e-21
1.059424597e-20
1.347162873e-20
6.872684392e-21
6.552499708e-22
5.98491672e-21
1.097296281e-21
2.746502057e-21
1.497596052e-20
2.698019973e-22
3.955989595e-22
4.518293165e-21
1.270298763e-22
2.590184861e-21
3.614521328e-21
5.675366145e-22
3.613368302e-21
1.86096173e-21
1.026419986e-20
1.046551888e-21
2.42059989e-21
5.560335282e-21
7.637517004e-21
6.157001539e-21
3.230520808e-21
9.18956712e-21
5.388709782e-21
1.059655016e-20
1.502966725e-22
1.230184084e-20
6.360552639e-22
4.346892184e-21
2.926911521e-21
2.493324469e-21
3.086047309e-21
6.431780713e-21
1.872971533e-21
6.230088002e-21
1.395608707e-21
1.510883382e-21
9.798969913e-22
5.156310502e-21
3.776657085e-21
2.451549267e-21
2.990526163e-21
2.397297158e-21
7.259348281e-21
3.318694855e-21
1.271070546e-22
9.080278797e-21
2.131709655e-21
3.806783021e-21
4.580770089e-22
8.159132443e-21
1.385651546e-21
6.539063901e-22
1.790191751e-21
1.64680985e-20
5.72473004e-21
2.084036979e-21
1.266917739e-20
4.935979004e-21
1.168747079e-20
1.617386748e-21
5.141308466e-21
3.783849184e-23
1.574021083e-21
3.234483575e-22
9.558998454e-22
4.294764324e-21
7.257856261e-21
2.512522302e-21
1.413529324e-22
3.242604391e-20
7.771101726e-21
1.659816723e-22
2.457970049e-22
3.827851409e-21
5.201333271e-21
9.738705491e-21
3.205273328e-22
8.115318466e-21
3.665806343e-21
2.489842044e-21
5.521067512e-22
2.038754774e-20
4.700566463e-22
3.533169148e-21
3.557532872e-22
3.669064078e-21
1.110574774e-21
1.584096823e-21
6.718929868e-21
4.448784924e-21
2.849603324e-22
1.685396499e-21
1.702695009e-21
7.598749225e-22
4.078258902e-21
5.500707099e-21
2.375191185e-21
2.700051993e-21
1.880750521e-21
1.249145552e-21
5.539839773e-21
1.385450198e-20
6.85102677e-21
3.956656463e-21
1.679033142e-21
1.837564644e-20
6.131495086e-22
3.63030012e-21
2.683839333e-21
8.291594173e-22
6.000838941e-21
6.012039742e-23
7.460633034e-21
3.980450385e-21
2.215447645e-20
1.524308797e-20
1.545437032e-21
1.166036354e-20
3.750628553e-21
9.234109212e-21
1.158950522e-20
3.399175664e-21
8.083463464e-21
4.461606602e-21
6.64000528e-22
1.374217613e-20
1.289836542e-20
3.782131729e-21
3.770733854e-21
6.762166257e-21
7.531235882e-22
6.646376118e-22
1.085087293e-20
2.134183569e-21
1.382390967e-21
1.588054237e-21
3.752276134e-21
7.48028838e-21
5.615685548e-22
8.912242605e-22
4.729354092e-22
3.806599282e-22
4.691547345e-21
1.945439946e-23
8.427857104e-21
4.012968044e-22
1.236677512e-20
3.258324218e-21
3.406702068e-21
4.204621384e-21
3.304043929e-20
5.262641496e-21
5.933701967e-22
2.885582956e-21
6.345006649e-21
2.629474888e-21
8.047140938e-21
3.811487612e-22
1.814089784e-21
1.158841897e-22
4.533685255e-21
6.317211725e-22
2.320324855e-21
2.735378264e-20
6.601561758e-22
1.459122805e-21
4.663527999e-22
1.856851599e-20
3.86766653e-21
3.538952913e-21
1.552141485e-20
1.078829129e-21
2.395423662e-21
4.508178213e-22
2.816582586e-21
5.330430733e-21
2.388622757e-21
6.722415039e-23
6.901230445e-22
1.939297727e-21
1.829366358e-21
1.637174475e-21
1.858263614e-21
2.987396709e-22
7.136343947e-21
1.16214392e-21
5.253170621e-21
9.607083391e-22
7.713866347e-21
2.524467246e-21
1.282860036e-20
3.600338719e-22
1.478668691e-20
2.592828793e-21
1.628357598e-21
1.082266437e-21
3.851967034e-21
1.041288821e-22
3.89436397e-21
4.810009276e-21
5.441092064e-21
6.697208638e-21
6.444972045e-22
5.177064386e-21
1.996502068e-21
3.230714236e-21
3.463262622e-21
8.279944091e-23
6.432450847e-21
1.422312647e-21
3.262468424e-21
1.516606483e-21
7.482933445e-21
1.314550973e-22
4.911221126e-21
2.140331317e-21
4.154816651e-21
7.239580422e-22
4.727683687e-21
4.251344011e-21
9.561408504e-22
1.349209609e-21
9.751994592e-22
7.027880475e-21
4.471430344e-21
3.199345435e-21
2.009828004e-21
2.775596523e-21
3.068937601e-21
4.480889374e-21
6.145075447e-21
4.356033756e-22
1.518649211e-21
6.655633767e-21
1.894981963e-20
3.437639118e-21
1.572906988e-21
2.442112358e-21
1.170889545e-21
4.215962529e-21
3.368036037e-21
2.615013385e-21
1.684177228e-22
2.621303856e-21
1.990355162e-20
3.158180645e-21
4.27488059e-21
1.800658465e-23
4.042644273e-22
8.190105209e-21
3.279609654e-21
8.994460233e-21
3.399906286e-21
1.552435316e-20
3.453991725e-21
2.675258984e-21
5.884641063e-21
5.015892168e-23
1.163546977e-21
2.576283384e-21
2.48670073e-21
2.100320338e-20
7.210651964e-21
4.5189568e-21
6.0357418e-21
6.321352816e-22
2.955832514e-21
2.914808156e-21
1.037560454e-21
1.130390586e-21
4.216862124e-22
2.5887576e-22
2.665449606e-22
1.251873624e-22
7.751150654e-21
7.042466595e-21
8.104174515e-21
9.727735551e-22
5.268460461e-21
5.651321895e-22
4.074136642e-21
4.796959006e-21
2.661208159e-21
9.811229646e-21
3.613917168e-22
3.103432736e-21
8.64835617e-21
2.89035659e-21
2.524582886e-21
9.664131957e-22
3.800617872e-21
5.431749606e-21
7.62259023e-21
6.96076959e-21
4.088236206e-21
9.422063211e-22
8.303807412e-22
3.104142676e-21
1.3185802e-21
8.179631625e-21
3.93593991e-21
3.26696526e-21
3.522075116e-22
2.562230235e-21
4.532587141e-21
5.795585302e-21
2.501095811e-22
2.095682548e-22
4.216468715e-21
1.00577143e-21
3.545681421e-21
1.925856301e-21
3.808787933e-21
5.173708185e-21
5.177237143e-21
2.416705772e-21
1.922514277e-21
3.450450772e-21
2.682390866e-21
9.147705756e-21
3.273891469e-21
5.324622462e-21
1.475200178e-21
1.009604061e-20
8.671198454e-21
4.389545988e-21
1.033920392e-21
9.321786572e-22
2.331992575e-21
1.043492863e-20
1.873091269e-21
3.055174399e-21
2.288489963e-23
1.709079442e-21
7.682109357e-21
8.002474415e-21
6.703365041e-21
1.198536136e-21
1.416377235e-20
1.942381231e-22
2.528329912e-21
7.140227385e-21
1.925893102e-20
1.04447071e-21
5.327969816e-21
1.084625349e-21
1.959721081e-21
1.1687946e-20
2.448250271e-22
5.326277464e-21
5.327349364e-21
3.364672788e-21
3.688581979e-21
5.620598119e-21
1.913638302e-22
7.752699396e-22
1.103463464e-20
1.932648258e-21
3.752494868e-21
1.402916399e-22
4.608882862e-21
4.325813531e-22
2.387828585e-21
1.086101547e-20
6.541357235e-21
1.547555869e-21
2.454241397e-21
1.177694137e-21
7.774524437e-22
4.579298614e-21
1.677145609e-20
4.627352031e-21
3.037036001e-21
1.329714307e-21
1.264986104e-21
4.283464272e-21
5.02761128e-21
1.41594896e-21
1.50790191e-22
8.271457747e-21
1.397223245e-21
1.135981211e-20
1.097329593e-21
1.500355064e-22
6.684953843e-22
1.709322249e-21
8.60458164e-21
6.76293562e-21
7.853955061e-21
5.228913632e-21
6.668329818e-21
4.23877238e-21
2.757648709e-21
3.672179248e-23
6.454215783e-21
5.122935036e-21
1.577176557e-20
3.56766308e-21
5.564796375e-21
1.539467184e-21
1.759461528e-21
2.793555872e-21
9.313277847e-21
2.891686595e-21
9.440755944e-22
1.157773164e-20
8.358147962e-21
4.276758727e-21
4.09111559e-21
1.641942138e-21
1.955553723e-21
1.543512151e-21
1.940354499e-21
1.375145749e-22
2.801799213e-21
7.648845698e-22
2.162375962e-21
1.116128021e-22
1.011795563e-20
3.705502093e-21
8.887069856e-21
3.464501853e-21
4.150626551e-22
1.287770166e-21
1.005916633e-21
3.657021168e-21
6.185243253e-21
5.024141941e-22
4.937808596e-21
7.948264618e-22
9.897768468e-21
2.734469267e-21
5.651079844e-22
4.78151827e-21
1.540234886e-21
1.519494812e-21
4.85972639e-21
1.426219808e-21
6.654725036e-21
4.769705432e-22
6.268307967e-21
2.35962064e-21
9.2908153e-22
1.024229326e-20
2.988549235e-21
1.634024416e-21
5.827753279e-21
4.303213742e-21
2.389992914e-21
6.51781215e-21
5.364851271e-22
5.011756174e-22
3.886853679e-21
1.550254973e-21
4.400801843e-21
7.141852457e-22
5.916812986e-23
3.557292796e-21
2.532212128e-22
6.139670707e-21
8.950595369e-23
1.402427694e-20
2.771367098e-22
1.384960533e-20
2.355019291e-22
1.158022147e-21
1.058594604e-21
9.577327756e-21
5.684307831e-22
3.212469657e-21
2.246573958e-21
2.184657245e-21
3.633633974e-21
8.035700855e-21
2.505903754e-21
1.189878204e-21
2.344757637e-21
1.331817169e-21
5.968580631e-21
3.763342528e-21
2.328852599e-21
1.976370736e-22
8.403287515e-22
3.025855982e-21
9.120634081e-22
1.172110137e-20
3.794782421e-22
3.798899686e-21
4.840476167e-21
7.592339826e-22
2.053369889e-21
1.405990669e-21
1.624343852e-21
7.585979698e-21
2.750799068e-21
9.796600876e-22
2.450493338e-21
5.474974104e-21
6.310013933e-21
7.513229094e-22
1.585330552e-21
7.896976224e-21
3.434392793e-21
9.12003671e-21
1.020608243e-21
1.053299472e-20
4.706598051e-22
5.915185345e-21
3.812596068e-21
4.382589365e-21
7.34989408e-21
8.675252378e-22
2.973171446e-21
1.217621064e-20
2.929058745e-21
3.484268892e-22
5.008256464e-21
2.20214006e-21
1.373813085e-21
1.481412215e-20
1.117933172e-20
6.820990358e-23
1.175722966e-21
8.163376687e-22
8.05958072e-21
3.828160922e-21
6.656551442e-21
6.689072124e-21
2.105428527e-21
4.325658343e-21
1.275912198e-21
5.59345927e-21
3.448250595e-21
3.271831914e-22
5.705925319e-22
8.287169028e-22
3.688404144e-21
6.713822273e-21
8.396121733e-22
3.979497027e-21
2.371133246e-21
8.698812279e-22
2.05556079e-21
7.036422965e-22
1.807960958e-22
5.153551872e-22
3.601403712e-21
6.022266214e-21
7.712512383e-22
1.313990602e-22
1.292974171e-21
1.937229057e-20
1.382259674e-21
7.558375728e-21
3.46384234e-21
8.989946433e-21
1.614825298e-21
4.089621353e-21
3.669837644e-21
1.52695075e-21
5.659594842e-21
1.374612407e-21
6.636410135e-21
8.342126057e-21
1.818095477e-21
4.265778807e-21
5.523774121e-21
2.819090748e-21
1.184781491e-20
2.427226379e-21
4.91196844e-21
2.011387872e-22
1.746262237e-21
1.301161032e-20
5.836217084e-21
2.587075627e-22
1.029605529e-20
3.112952188e-21
3.870812134e-22
3.298527792e-22
4.326260667e-22
8.059001784e-22
7.140831733e-21
2.191919424e-21
3.795444905e-22
1.426988608e-21
2.045501199e-21
6.449433931e-21
8.316716703e-21
1.143827836e-21
6.647635352e-21
7.528770677e-21
2.367074374e-21
3.144635851e-21
4.651016755e-22
1.027999783e-21
4.314670799e-21
2.864677654e-21
1.734479892e-22
1.110764633e-20
5.143266067e-21
2.01571661e-20
2.579323145e-21
7.183701843e-22
2.415053398e-21
4.518932806e-21
6.971057571e-22
4.958130014e-21
5.004264643e-21
1.477438752e-22
3.402502101e-21
4.827560217e-22
5.133024352e-21
9.068524793e-21
2.30677438e-21
1.061735583e-21
1.945613729e-21
6.011306926e-21
5.164267552e-21
7.717506581e-21
6.426136055e-22
1.330757279e-21
1.187559379e-22
9.612287353e-21
3.558348723e-21
6.02480338e-22
9.991071005e-22
9.481776578e-23
1.160928552e-21
3.106985034e-22
2.080266299e-21
1.028392262e-21
6.696813348e-22
9.46206071e-21
4.385887926e-21
2.580443093e-21
3.078301064e-21
7.753954068e-22
1.239968497e-21
2.457797951e-21
4.76095474e-21
4.24894411e-21
4.638932234e-21
5.507262644e-22
3.297103475e-21
3.439702613e-21
1.20697277e-20
2.168131813e-21
7.60657338e-21
1.265245456e-21
3.224913194e-21
1.512064047e-21
2.026372575e-21
9.199868114e-21
8.692248555e-21
5.298359178e-22
1.270514487e-21
3.32478675e-21
4.589786641e-21
6.181529296e-21
6.841222927e-22
1.20167442e-21
6.237024629e-22
1.066845902e-20
1.022329108e-21
6.012696331e-21
2.473033696e-21
1.378684387e-21
1.881286193e-21
2.440875997e-22
3.086200959e-21
7.341882651e-22
4.628892011e-21
3.116948724e-21
1.66717943e-21
9.022697528e-21
1.244872682e-20
1.53881837e-21
2.127834427e-21
8.296714787e-21
2.452627458e-21
5.503291808e-22
2.255920968e-21
1.400456861e-20
1.05240471e-20
8.836986953e-21
2.017119694e-22
9.771648176e-21
1.100978632e-21
3.70622001e-21
7.758797775e-21
8.560962518e-21
6.70855062e-21
2.258044447e-20
4.120926435e-21
8.489091643e-21
1.755954722e-22
9.722920898e-22
1.406495562e-21
9.829923014e-21
8.126140902e-22
8.476382746e-21
1.38122284e-20
5.353421178e-21
4.793350832e-21
6.843765068e-21
6.386238413e-21
6.573861755e-22
3.664184951e-22
1.804135266e-21
3.440649034e-21
7.689248601e-21
4.677175665e-21
1.253172135e-22
3.604704683e-21
3.722964811e-21
1.307857884e-20
3.365072216e-21
6.106667235e-22
3.454900335e-21
2.87111394e-21
5.909635172e-21
8.705013944e-22
9.612432138e-22
2.875574854e-21
1.074948097e-20
6.108696267e-22
5.900472217e-21
6.292053479e-22
1.417552644e-21
9.560124935e-22
5.832957901e-21
7.52541828e-22
3.646392158e-21
1.224410549e-21
3.404979211e-21
1.001249149e-20
2.577523997e-21
8.648067587e-23
5.362089674e-21
9.692229308e-22
2.810026248e-22
8.51332562e-22
4.574125609e-21
3.334534813e-21
3.27494156e-22
1.28883698e-22
5.390291625e-23
1.144560497e-21
1.681197127e-21
8.790642128e-21
3.992334849e-21
6.835496096e-21
2.315106551e-21
7.815409701e-23
6.345446866e-22
1.398203896e-21
3.929020549e-22
1.391730121e-21
1.969556509e-21
4.011138176e-21
2.335840587e-21
9.036592358e-21
8.82464128e-22
2.472504716e-21
7.866697972e-22
1.650034376e-21
3.578347628e-21
9.117496139e-21
4.025042568e-22
1.734137451e-21
1.633646594e-21
5.377616142e-21
9.291335582e-21
4.874583331e-21
1.809142062e-22
2.002515391e-22
2.089165676e-21
2.961396885e-22
8.82204494e-22
1.520210864e-21
7.600212161e-21
3.482985457e-21
2.516816956e-22
1.270338097e-20
4.157131375e-21
3.357968048e-21
5.262453226e-21
7.936580803e-21
7.725800503e-21
5.806766784e-21
6.724524462e-21
3.103943905e-21
1.84954736e-21
9.026104385e-22
5.69060093e-22
8.404416592e-21
2.538184553e-21
9.256267736e-22
1.456330005e-21
5.42501885e-21
1.2410328e-21
6.278015305e-21
9.835912937e-21
4.472466165e-22
4.423136488e-21
2.493724147e-22
4.07973718e-21
1.205210836e-20
1.044232793e-20
2.989191693e-21
2.446123796e-21
7.112649212e-21
1.340906574e-21
4.084201449e-22
5.293720178e-21
9.37454309e-22
8.149195884e-21
4.028584512e-21
5.018139814e-21
1.877201103e-21
3.772106221e-21
3.549205895e-21
2.241357808e-21
1.746236069e-21
4.456482157e-22
1.017432483e-20
2.446542206e-21
1.509105682e-21
2.32944867e-21
2.866294396e-22
4.194293218e-21
1.033472492e-21
1.817715315e-21
2.630194799e-21
2.455566348e-21
3.347087646e-21
1.772174929e-21
7.857985352e-22
7.478624163e-21
2.761745368e-21
2.595312493e-21
8.557203911e-21
3.793664491e-21
7.024556348e-21
1.521431289e-21
8.471021182e-21
7.949479485e-21
2.093568051e-22
1.894472852e-21
5.834634345e-21
5.038532229e-21
3.529178159e-21
2.95854628e-21
6.365118295e-21
4.062106251e-21
2.204781013e-21
3.728903118e-21
2.692914906e-21
2.837177852e-21
8.693554655e-21
4.480643034e-22
3.589330863e-22
9.24283754e-21
6.451758755e-21
6.48006144e-23
8.422277517e-22
1.313030077e-21
2.56234271e-21
6.04528954e-21
1.017789466e-20
1.66685878e-21
1.946787372e-21
4.342516704e-21
3.264251185e-21
1.385801799e-21
2.780441853e-21
4.675026644e-21
2.87664099e-21
3.440612606e-21
8.235082977e-21
1.231412919e-20
6.478110207e-22
3.40708331e-22
1.251453109e-20
5.818772052e-21
1.11727582e-21
7.728300942e-21
9.051142784e-21
1.320212489e-21
1.050433695e-21
5.741872843e-22
1.892348351e-21
2.038137172e-21
4.562045254e-21
2.317707605e-21
4.257508763e-22
3.540600078e-22
2.01129272e-22
2.187101654e-22
5.12817929e-22
8.821868765e-21
1.075601159e-20
1.045850914e-20
4.98654966e-22
6.534190177e-22
1.412562835e-23
1.868175862e-21
5.25977025e-22
5.136377039e-21
1.507443535e-21
2.563269919e-21
5.867295771e-23
5.13153586e-21
6.560801859e-22
3.761242485e-21
4.439376084e-21
2.363495531e-21
5.13734685e-21
5.603545798e-21
1.569587655e-21
1.816495182e-21
3.450513166e-21
8.515335301e-21
8.847998636e-21
5.181013714e-21
9.229554752e-22
1.640499449e-21
1.244714004e-20
7.381201485e-22
1.794575838e-22
4.713788314e-21
1.442663209e-21
3.991835729e-21
2.79552361e-21
1.73350651e-21
6.573937942e-21
9.219353444e-21
2.013741949e-21
1.804361962e-21
7.947511946e-21
6.657293064e-22
1.501442711e-20
2.34549505e-21
5.358914681e-21
2.107353632e-21
7.978416185e-22
5.639938458e-21
4.417001828e-23
3.632937121e-21
8.370729741e-21
3.720484034e-21
2.472998689e-22
8.503825877e-21
3.920710175e-21
7.18340056e-22
1.153844353e-21
5.025581351e-22
2.402144314e-21
7.446371782e-21
7.111670008e-21
1.285091484e-20
1.537682003e-21
1.950711899e-21
1.658159095e-21
1.334713661e-21
2.514010671e-21
4.638529685e-22
6.402023356e-21
8.396411736e-21
3.034599514e-21
2.512525376e-21
1.348291011e-20
2.184644506e-21
7.212865474e-21
2.799391794e-21
4.9999358e-21
7.252796396e-22
6.252940581e-21
4.169144501e-21
1.765723003e-21
1.650066537e-21
8.439378478e-21
3.967933208e-21
1.249544904e-21
1.295516916e-22
5.91369498e-21
8.539575893e-21
1.602252856e-21
3.73677793e-21
1.148973424e-20
1.380317296e-20
2.385394407e-21
6.301242061e-21
9.849215396e-21
7.438776697e-21
4.174534787e-22
6.653288312e-21
1.053873202e-20
6.719103967e-21
4.886612651e-21
3.656463222e-21
1.204266046e-20
2.400694839e-22
5.804388967e-21
2.429949277e-21
7.354379729e-21
4.778322245e-21
1.902584156e-21
1.129204395e-20
2.48769976e-21
3.195324995e-22
1.595227239e-20
3.191101407e-21
4.901128582e-21
1.092776493e-21
5.519497229e-22
1.452889568e-20
1.172902775e-21
7.682314082e-22
8.380008967e-21
3.710829539e-22
1.268131577e-22
9.166698074e-21
3.923520582e-22
1.238661075e-20
2.128602905e-21
1.829593734e-21
6.016518897e-21
4.215645353e-21
8.491633414e-22
5.265810583e-22
2.114752786e-20
6.149068916e-21
3.621126397e-21
1.174943528e-20
1.340798787e-21
2.432731674e-22
8.441334239e-21
4.264842943e-22
2.088869804e-21
5.55867141e-21
3.746056685e-21
8.092689962e-21
4.299096794e-21
6.529835311e-22
3.409728506e-21
6.849035371e-21
2.446541825e-21
9.086096903e-22
2.492017546e-21
1.940925617e-21
8.969106188e-21
1.200232636e-21
1.369629128e-21
5.03940989e-22
8.056049854e-23
1.271790244e-20
2.283618837e-21
2.942639812e-21
1.048391543e-20
1.652567401e-20
7.117288554e-21
1.473039733e-21
1.938131283e-21
3.968608532e-21
3.058898869e-21
3.024463375e-21
3.946891335e-21
3.879453543e-23
1.385507224e-20
6.786536718e-21
5.143748996e-21
4.058266059e-22
1.886393378e-20
1.258701172e-20
5.199210148e-21
4.316003606e-21
4.86296111e-21
7.041359508e-21
3.505230275e-21
1.020850623e-20
4.105619735e-21
4.950104755e-21
1.667567499e-21
1.648316539e-22
3.775189539e-21
1.824853168e-22
5.656427622e-21
2.74240673e-21
1.067101551e-21
2.233019605e-22
1.776648112e-21
5.406512916e-21
6.181672179e-21
2.382863192e-21
7.993828019e-21
1.156876975e-22
3.001245013e-21
1.12866614e-21
3.620238144e-21
5.911714675e-21
3.587178182e-21
3.332438812e-21
4.733554915e-21
8.155472263e-22
6.908434367e-21
2.820207905e-21
1.060599257e-21
4.04781091e-21
4.525105941e-21
7.342265507e-22
1.511453591e-21
1.687085603e-21
3.959598911e-21
3.41708313e-21
3.707255809e-21
2.395393808e-21
4.047589799e-21
2.946494036e-21
3.379481837e-21
2.749529295e-21
8.575811521e-22
2.263373493e-21
1.031531802e-20
1.180855638e-21
1.717397387e-20
5.509896193e-21
5.134249044e-21
4.955025786e-21
5.544635976e-21
2.305272871e-21
1.851155442e-21
3.994209745e-21
5.077604951e-21
2.509018794e-21
3.638914889e-22
1.539112461e-21
3.092455801e-21
1.438714156e-21
2.15646063e-21
2.977820148e-21
6.317222202e-22
5.046780703e-21
2.960381873e-24
5.979517616e-22
4.979750659e-21
2.040828515e-22
3.693119568e-21
6.992526294e-21
1.047947307e-21
2.039357425e-21
4.650002627e-21
1.242244898e-20
2.784648151e-21
5.463748248e-22
6.686582828e-21
9.79176994e-22