/*--------------------------------*- C++ -*----------------------------------*\
| =========                 |                                                 |
| \\      /  F ield         | OpenFOAM: The Open Source CFD Toolbox           |
|  \\    /   O peration     | Version:  v1706                                 |
|   \\  /    A nd           | Web:      www.OpenFOAM.com                      |
|    \\/     M anipulation  |                                                 |
\*---------------------------------------------------------------------------*/
FoamFile
{
    version     2.0;
    format      ascii;
    class       Cloud<dsmcParcel>;
    location    "0.01/lagrangian/dsmc";
    object      positions;
}
// * * * * * * * * * * * * * * * * * * * * * * * * * * * * * * * * * * * * * //

63937
(
(0.02043541188 0.004273663566 0.004151872747) 2734
(-0.04556977502 -0.01251390416 0.01995803235) 3620
(-0.02757460895 -0.02050250806 0.02356697517) 3904
(0.008758953322 0.01167721536 -0.03224327866) 531
(0.0367940807 -0.03804420757 -0.03035647742) 337
(0.04415293978 0.003899819371 0.01392988581) 3378
(0.02838329009 -0.01161893776 -0.01747298696) 1395
(-0.02568038653 0.02818423365 0.005817777863) 3144
(0.01187412066 -0.01342191201 0.005755713596) 2992
(-0.04901014164 -0.01736078101 0.01037567066) 3280
(0.04024386504 0.007682016779 -0.02513130028) 838
(0.04999122621 -0.01546615513 0.03794990996) 4899
(-0.007648257595 -0.0340656336 -0.03688039048) 28
(-0.01300809457 0.02943661689 -0.03372264788) 587
(-0.04171159549 -0.02994306296 -0.02777494016) 681
(0.001305087358 0.03967116896 0.01020747802) 3510
(0.04967400065 -0.03273390169 -0.02695947804) 679
(0.02332786543 0.004332010213 -0.005486031047) 2094
(-0.01994275059 -0.01991159739 0.02632563836) 4246
(-0.01061798458 -0.01986069077 0.03752702705) 4887
(0.0236392547 -0.02911318345 -0.01254930331) 1654
(-0.01433152681 -0.01505834154 -0.03844918333) 87
(-0.04849277296 -0.0227027882 0.02703069191) 4220
(0.01104082789 0.002871511019 0.02845898536) 4332
(-0.03322841625 0.03700377981 -0.02095655739) 1263
(-0.0341156329 0.008430278676 -0.01292510905) 1783
(0.04598797237 -0.02454718063 -0.02449847108) 1039
(0.009802660862 0.00130660455 -0.02145666068) 1131
(-0.02642763304 -0.03215115554 -0.01691208216) 1304
(0.009049238411 -0.0004127472468 0.007043143166) 3031
(-0.00103433595 0.02112220237 0.01962235944) 3769
(0.0178228803 0.01388490123 -0.03483141928) 533
(0.03817196256 0.03513590442 -0.01353240262) 1917
(0.01498941143 -0.00998365154 0.02228821907) 3972
(0.03333576414 0.02013818554 -0.03866948628) 256
(0.0151039796 0.03486145092 0.02725390252) 4453
(-0.006767608895 0.02533533127 0.01739344103) 3788
(-0.02238609642 -0.03842040573 0.00390176284) 2565
(-0.002197059769 0.02329135983 0.01275735295) 3449
(0.005033314806 -0.003750436106 0.0207024363) 3991
(0.01213306895 -0.02386166366 -0.005048237859) 1992
(-0.04329235603 0.0358512169 0.03338648024) 4781
(0.007591834433 -0.03372872306 0.03697002927) 4831
(0.03974411127 -0.02562496926 0.02006815939) 3897
(0.04612226731 0.02645665402 0.001026633945) 2839
(0.03760710569 -0.003851256779 0.03624913485) 4957
(0.03353767344 0.0388612232 0.01765323644) 3836
(0.03857822436 -0.03702956722 -0.03315556767) 337
(0.006713281185 0.03929414312 -0.01587001558) 1591
(0.04211188817 -0.03417986467 0.008148025522) 2918
(0.004469084852 -0.01173111548 0.01867211909) 3630
(0.03222058364 0.01153503374 0.01882121331) 3736
(-0.01745704343 0.01938709356 0.01239111293) 3426
(0.00854012485 -0.02918409026 0.03756522612) 4851
(-0.03771054055 -0.02404072316 0.01300470041) 3262
(0.02650915184 -0.02272449387 -0.01493664373) 1675
(0.00295836524 -0.001916953306 0.01420197874) 3350
(0.04989029499 -0.007611463904 0.03703995813) 4939
(0.02311894578 -0.02575156041 -0.007299536519) 1974
(-0.02483020049 -0.01048617855 -0.03031772527) 425
(0.006911453856 -0.004535504435 -0.01485906038) 1751
(0.02942656573 0.007655474653 0.03076475538) 4675
(0.002566271544 0.01279731376 -0.02326842399) 1170
(0.01750171147 0.03053247948 0.02419286939) 4133
(0.02614256451 -0.03269503143 -0.03748362146) 35
(-0.04017622695 -0.0350360232 0.01542882196) 3521
(-0.004055581661 -0.006661856024 0.02884603362) 4289
(-0.03485065315 0.0375375599 0.01326197812) 3503
(-0.02850240448 -0.02318548581 -0.007517828226) 1984
(-0.04799154175 -0.02525442701 -0.01509795425) 1320
(0.002571515357 0.02738274478 0.02881061804) 4430
(0.03948938489 -0.01772147131 -0.001679639057) 2337
(0.02862594105 -0.02294596896 0.01916010896) 3595
(0.03348081813 -0.03155376779 -0.03593963415) 36
(-0.02102893067 0.01996272623 -0.02228176149) 1185
(-0.02227475853 -0.01340874584 -0.03406172513) 425
(-0.01168705753 -0.01866705422 -0.004691370948) 2327
(-0.01488078464 0.01085382838 -0.01514038935) 1487
(-0.04472657037 -0.03500688837 -0.001442091196) 2241
(0.03114730534 0.004157982713 -0.01164804774) 1776
(0.005033578955 -0.03263667069 0.01729171891) 3551
(0.03275235763 0.03255563422 0.002194660142) 2856
(-0.001525674446 -0.007116651317 -0.01008630905) 1729
(-0.0162597254 -0.01890445861 0.006922113762) 2966
(0.04371480134 -0.02779484872 -0.03238044583) 378
(-0.04803155205 0.03696601815 -0.002749521415) 2540
(0.001172407873 -0.02648574099 0.0157461425) 3570
(0.02842538134 0.004309571771 -0.009290287673) 2095
(0.01729974833 0.03191864916 -0.03531950405) 293
(0.02742995547 -0.03725939113 -0.03151326136) 335
(-0.03495698711 0.002558096994 -0.03609174842) 163
(-0.02520428345 -0.02512188708 0.03376693763) 4524
(-0.01303641437 0.01137657281 0.0292421214) 4367
(0.04961164612 -0.02243121074 0.01715408064) 3599
(0.03484233717 0.00577099828 -0.02683144315) 836
(0.02782274266 0.01233373487 0.002795374832) 2775
(0.02890831276 -0.008440181017 -0.01636585129) 1415
(-0.01316935807 -0.01037883402 0.01989280277) 3627
(-0.02367080529 0.02978100231 0.02156117398) 4105
(-0.03568323216 -0.02662351887 -0.004278446493) 2282
(-0.04393849315 0.008171294445 -0.02847934681) 821
(-0.03414463449 0.009401195494 -0.005819295273) 2103
(0.02021809848 0.039605199 -0.004795089322) 2554
(0.03617459131 -0.02070825891 -0.02388194799) 1037
(0.01460489727 0.02838273621 0.02993415812) 4432
(-0.01051662227 0.0326994398 -0.03219109496) 607
(0.03705485798 -0.03211828656 -0.02441696823) 997
(0.04774017832 -0.01602572787 0.03192723976) 4579
(0.0479678668 -0.01655832251 0.03426976505) 4579
(-0.01108156096 0.03399765676 0.02452222656) 4127
(-0.0281659955 -0.001438918208 0.02107219538) 3984
(-0.02845124769 0.01675925947 -0.01185081413) 1824
(0.03271997383 -0.03508609559 0.0137075192) 3216
(-0.009234838041 0.03426065054 0.02933893084) 4448
(0.04963859489 -0.009233716316 -0.03240279818) 459
(-0.0308497081 -0.006196914828 -0.001285641748) 2363
(0.007467261692 0.01821150238 -0.02398897653) 1191
(-0.01320301922 -0.03597544662 0.008378889942) 2887
(0.04559757849 -0.006749721208 -0.01049012768) 1739
(0.006245312035 0.02877972237 -0.009909199609) 2191
(0.0454707827 0.03749111986 -0.01190476545) 1919
(0.009016004509 -0.03130053291 0.02760445434) 4191
(-0.03617203459 0.008566697885 0.02684538587) 4342
(0.04464636305 0.01353078719 -0.001033027004) 2458
(0.0339563711 -0.01672021422 0.0008815623078) 2656
(-0.01199835377 -0.02492265671 0.01820846837) 3587
(0.02005361659 0.03570714288 0.01212596068) 3514
(0.02040811475 0.01679262353 0.002180224376) 2794
(0.0214900989 -0.02451613427 -0.01040814065) 1674
(-0.03709648803 0.02752114729 0.01633200438) 3782
(0.04429468188 0.02196369527 -0.01592267088) 1538
(-0.03949560252 0.03604009598 0.0145871577) 3502
(-0.0006783736747 0.002009006182 0.004276218736) 2729
(0.004060400121 -0.008217325857 -0.01445407232) 1730
(0.0003802077063 0.02582543074 0.02708024401) 4430
(0.02161690656 -0.03312893627 0.02145457389) 3874
(0.04247247852 0.02876652603 -0.004389865225) 2518
(-0.02722555515 -0.02368976997 0.03002250359) 4544
(0.03412495894 -0.001850751503 -0.006543916818) 2076
(0.03730010729 -0.01421589469 -0.01284094086) 1717
(-0.01877770752 -0.004341633727 -0.02378271649) 1106
(0.0149554987 -0.03863725153 -0.02465483577) 972
(0.04257707672 -0.009491794437 -0.006461552054) 2058
(0.003827923313 0.02795873836 -0.03535933813) 270
(0.04994064296 0.009210994743 0.03419234708) 4679
(-0.04981228426 -0.008785608093 0.01456647814) 3320
(0.02940089165 0.007822330254 -0.02621003577) 835
(0.01876705855 0.01522012821 -0.03960305746) 233
(0.003427462326 0.01393307939 0.03399834232) 4690
(-0.01369256936 -0.01883473253 -0.003869327335) 2327
(-0.04018331269 0.03204988912 0.0193734225) 3801
(-0.03444936041 -0.01133792861 -0.00735115426) 2023
(-0.02570956396 0.00820587277 -0.03792808578) 184
(0.04596374077 -0.01849597512 0.007334037688) 2979
(0.03793430209 -0.01049004569 0.01530105031) 3637
(0.04100739946 0.03633580998 0.03259036198) 4798
(-0.03984489971 -0.02144050508 0.03651766746) 4862
(0.01735543972 0.0170836588 0.008040596414) 3113
(0.01571745587 -0.03209901313 0.01033793047) 3233
(0.03162564477 -0.03909832337 -0.001506234474) 2256
(0.0457827243 -0.01857162492 0.03531690488) 4899
(0.02678872835 0.01655317962 -0.01600421226) 1515
(0.0006133744356 0.0174521408 0.03560654308) 5030
(0.02640497159 0.02575293788 0.02327789662) 4115
(-0.03584500991 -0.01707881722 0.01922733025) 3602
(-0.02630413847 0.03454884726 0.01719857771) 3804
(-0.02354887461 0.03723679179 0.0345274994) 4785
(-0.0389027722 0.003431128298 0.03579997926) 4962
(0.03290769733 0.0296501969 0.0244053695) 4116
(0.0421451277 0.008407228429 0.02294980467) 4038
(0.006712698654 -0.03585075859 -0.003801122361) 2251
(-0.03314084832 -0.006980726966 -0.03222864161) 443
(-0.03320600822 -0.01222164862 0.01073321781) 3303
(0.0232024824 0.03727931085 -0.02844681684) 954
(0.04468023761 0.03898394402 -0.01308298348) 1918
(-0.04932516745 0.0181010526 -0.003658597442) 2460
(0.01506348556 -0.02665404181 -0.02415959092) 1013
(0.02214228284 0.02717898549 -0.01325873481) 1874
(0.0412488386 0.02806785551 0.03081255405) 4758
(-0.03812708028 0.0391449459 0.02818731466) 4462
(0.0006682065964 0.02566706472 0.02269812281) 4110
(0.03648877688 -0.01329509893 0.01312611708) 3317
(0.004324593115 -0.0006256257915 -0.03377699712) 470
(0.01943106453 0.0002536178278 -0.02901518455) 813
(0.03087080178 0.01715108401 -0.03326392075) 556
(0.01612569709 0.02912603971 -0.03147774076) 593
(-0.002654281328 -0.03395319556 -0.02291914844) 989
(0.04396502366 -0.03110582181 -0.02655134501) 678
(-0.002560835378 0.01148267372 -0.001135239547) 2449
(0.005413390508 0.03067467915 -0.02601400332) 931
(-0.04232873978 -0.0155610907 0.02145575908) 3921
(-0.0465621524 -0.02449800673 0.02496932863) 3900
(0.00907690454 -0.007460454149 -0.02503265409) 771
(0.02836354434 0.01664688613 0.03423210022) 4715
(0.009510962226 -0.01206440423 -0.03605692638) 111
(0.03027383587 0.02263079238 0.01604439442) 3776
(0.01168578243 0.03229322726 0.006361184444) 3172
(-0.01712486165 -0.03083629385 0.01967708544) 3546
(0.04858035717 -0.02618146125 -0.0178419067) 1339
(0.04987875823 0.02078142391 -0.01588802144) 1539
(0.02121780919 -0.02739933674 0.02540439615) 4214
(0.03622211049 -0.02433697859 0.003419136689) 2637
(0.01928407577 -0.0240374492 -6.528029887e-05) 2313
(0.03085687678 -0.01358059205 -0.03074103423) 436
(-0.04942928974 -0.01782914638 0.02683791299) 4240
(-0.03761779002 0.03259148659 -0.004314748282) 2522
(-0.001702138538 0.01528677699 -0.002848938498) 2469
(-0.02108865484 -0.0273757837 0.02806156376) 4205
(-0.0268746326 -0.01246462206 -0.01403129072) 1704
(0.04693682661 -0.018437443 0.007496369829) 2979
(0.029675572 -0.01293342393 -0.03448807555) 435
(0.007733445757 -0.02377612449 0.009640019447) 2951
(0.03269538857 -0.01481712224 0.01269986054) 3316
(-0.02072082934 0.00466842933 0.007979618034) 3045
(0.007092421569 -0.01973054723 0.009548748152) 2971
(-0.003806444059 -0.02217967043 -0.02002386409) 1029
(-0.02520805573 0.03916853316 -0.03511987667) 304
(-0.01650160579 0.03541172305 -0.02027278801) 1266
(0.01978589065 0.02600509289 -0.0032329394) 2513
(-0.02793488673 0.03971874257 0.03246029951) 4784
(-0.04258178167 -0.02522265534 -0.009925637105) 1961
(0.007079315565 0.004791875654 -0.01509441691) 1451
(-0.01984835524 -0.01786087335 0.02297672971) 3926
(-0.03122900587 0.005737389227 -0.02537185871) 823
(0.0154133591 -0.01891918693 -0.01197487551) 1693
(0.01512843671 -0.01357824952 -0.03514591538) 113
(0.02779163695 0.0311534901 0.006245445825) 3175
(0.01408249556 0.003126156427 0.02301389726) 4012
(0.02433953469 -0.02169822891 0.004129793797) 2634
(-0.04007206742 -0.02788442162 -0.02209123634) 1001
(-0.02539601064 0.03811334267 -0.02323707551) 1264
(0.002330138311 -0.01309018334 0.02851206619) 4270
(-0.006569377635 0.03744200539 -0.02539256124) 948
(-0.001907837544 0.02666597828 0.006405083359) 3149
(-0.03098739776 -0.03231024173 -0.02929153754) 663
(-0.031902969 0.01127814814 0.03452760985) 4683
(-0.04951526129 0.03332300637 -0.03600368404) 280
(0.04400401545 0.00652789301 0.02261829321) 4038
(0.01668032891 0.0174083703 -0.008543556873) 2153
(-0.001467909738 -0.006716258996 -0.0001548682077) 2369
(-0.01016338252 0.03595938089 -0.03045318372) 627
(0.009493703522 0.02601064554 -0.02937139638) 911
(0.01357958297 0.02683191395 -0.03132799892) 592
(0.02863698739 -0.0179308857 0.02008268557) 3935
(0.03422004572 0.0292725677 0.03992365616) 5076
(0.03434315465 -0.03750045387 0.03684441116) 4816
(0.01370563396 -0.03118466717 0.001087007343) 2592
(-0.03764363621 -0.03569903331 -0.007510299036) 1922
(-0.04317552257 0.02457954343 -0.03770846635) 241
(0.01561162003 -0.005798221833 0.03944133094) 4933
(0.01046040462 0.01870005393 0.003570838851) 2792
(-0.0366977374 0.02412588914 0.03545465186) 5042
(0.03756827337 0.02738994846 0.007309393373) 3157
(-0.02446880225 0.0301720765 -0.0294215175) 925
(-0.02128626424 -0.02164022606 -0.007944005393) 1985
(-0.02722918348 -0.008807197612 -0.02175931836) 1084
(0.01751336705 0.03197235595 -0.03197052464) 613
(0.01486231311 0.005178967185 0.02531612974) 4352
(-0.01987564965 -0.01390182517 -0.0208944271) 1066
(-0.0452078743 -0.03388444978 0.0155507089) 3540
(0.04000192529 0.006821844899 -0.006682019668) 2118
(0.04970630114 -0.01806553822 -0.01761478397) 1379
(0.03907661462 0.01120425013 0.02942524236) 4377
(-0.03685099842 0.0008764281362 0.015677003) 3682
(-0.002920090389 -0.03284275706 -0.0144186902) 1629
(-5.687491274e-05 0.008597730727 -0.02045009882) 1149
(0.04917523012 0.003086816082 -0.01607862759) 1459
(-0.00249500011 -0.02563609014 -0.007804850046) 1969
(0.02184263264 0.03782159707 0.01151391218) 3514
(0.01633513285 0.005293844672 -0.005126893805) 2113
(0.04094842192 -0.02896678753 0.009806915596) 2938
(-0.02057416209 0.02735874984 -0.01893164777) 1545
(0.03591206234 -0.001918352671 0.02126055682) 3997
(-0.01378424489 0.01478376266 0.02232805402) 4047
(0.0216045505 0.01347917898 -0.02968236771) 854
(-0.01983000915 -0.03795888109 0.008645862086) 2886
(-0.03137398818 0.00536276156 0.009182121675) 3063
(0.04107603119 0.01711281458 0.006320728437) 3118
(-0.01415657549 0.03298331648 0.03547290412) 5087
(0.004097724786 -0.007614777933 0.006281963208) 3010
(0.01301796837 0.03230315511 0.02740412384) 4452
(0.02144213067 0.02719668915 0.03628534083) 5074
(0.00292656901 0.03013372718 0.02584262892) 4450
(0.03555725533 -0.02288836052 0.03547685476) 4877
(0.03683741713 -0.004061044479 0.002510056319) 2717
(-0.01086412559 0.01468495683 0.01130854166) 3407
(-0.03377497605 0.03188200704 -0.0217455067) 1243
(0.03852053882 -0.02225960175 0.01276701783) 3277
(0.002056063198 0.005939409523 0.01948913114) 3710
(-0.005212435154 -0.03444307962 0.03074638354) 4508
(0.02244098838 0.02082280765 -0.0236160728) 1214
(-0.00861715521 -0.03495039515 -0.01753509698) 1308
(-0.004132676078 -0.03327611994 -0.01249266374) 1629
(-0.03770725835 0.01017622749 -0.001041870931) 2442
(-0.01447356445 0.03133064522 0.009669656351) 3167
(0.02810503038 -0.03605030872 -0.006001521225) 1935
(-0.03865119632 -0.02270770923 0.02535790415) 4222
(-0.008542138867 -0.003599249991 -0.007405003944) 2068
(0.04366797869 0.004869916333 0.01029470971) 3378
(0.002423516817 0.01984726791 -0.01261660637) 1830
(-0.03979979748 0.0250517968 0.02911643324) 4422
(-0.04522309929 -0.01606483493 0.01747257186) 3600
(-0.03418324505 -0.001559673163 0.003638046939) 2703
(0.01561861005 0.003703660617 0.0003012804476) 2733
(-0.04195693236 0.006498528183 0.006371264153) 3061
(0.0120106483 0.01135703032 -0.006713798828) 2132
(0.03914778285 0.006259600122 -0.02027100596) 1157
(-0.004192897116 0.03309558065 -0.007769718453) 2209
(-0.0004182137636 0.03809000321 0.01586550332) 3829
(0.0102480619 0.03298452674 0.01130402022) 3492
(-0.009405818348 0.005596668808 -0.01046925361) 1788
(0.01543704615 0.01167100052 -0.01633676477) 1493
(-0.02622267585 -0.01647082762 -0.01939459655) 1364
(0.03832575933 0.02451694633 0.03069467657) 4737
(0.01467284921 0.02018083876 0.0396915562) 5052
(-0.04930086732 0.004333428441 -0.005938026125) 2080
(-0.007816713852 -0.00934708343 0.03444611075) 4608
(0.01709756155 -0.03609033798 -0.03474846365) 333
(-0.004501346091 -0.01210497536 -0.009846828006) 2029
(0.00659688958 0.03891449306 -0.02581293334) 951
(-0.01311554129 -0.030513013 -0.008939210046) 1947
(0.04808980238 -0.03287592449 0.03435307375) 4519
(-0.007858542078 0.01433726823 0.01487077647) 3408
(0.03640636439 -0.00967446824 0.01014689489) 3337
(0.01860422337 0.02963542874 -0.0321620954) 593
(-0.03109587097 -0.01118698927 0.009816802552) 2983
(-0.02643222677 -0.024912451 -0.01134102895) 1664
(-0.02157868812 -0.02210438627 -0.03447701208) 385
(0.004630278737 0.002524518615 0.004396451068) 2730
(0.001060563807 0.02188676258 0.00949906116) 3130
(0.01031986384 -0.01995042374 0.03605866074) 4892
(-0.04742469476 0.02192406093 0.0185728644) 3760
(-0.02381907263 0.01249535323 0.02115834967) 4045
(0.03301081894 0.03013062531 0.0113965791) 3496
(-0.02190715291 0.03604485669 0.02374821703) 4145
(-0.04204584094 0.002550569753 -0.01325339587) 1761
(-0.003318980792 -0.03109162017 -0.003897510116) 2269
(0.03941839512 0.03429973691 0.01002134258) 3497
(0.009935566481 -0.004699706026 0.03021509272) 4631
(-0.02003505494 0.0299665358 0.01114615049) 3465
(0.02858131632 -0.02729382934 -0.01914263095) 1335
(-0.01327659756 0.01229671469 0.01615850896) 3727
(-0.03445225985 0.01849038986 0.018263576) 3743
(0.03836987762 0.002272978422 0.001595223245) 2737
(0.04790070043 -0.001364650311 -0.01173005895) 1759
(0.04912340786 0.02062457384 -0.002011119206) 2499
(-0.009084135692 0.005853208333 0.0298357864) 4348
(0.007913959056 -0.03795439571 -0.02882889577) 651
(0.004319366356 0.03558355306 -0.002861664482) 2550
(-0.01522438605 0.005305262142 0.007299835972) 3066
(0.001665849049 0.008263240601 0.005850144037) 3070
(-0.02053290919 -0.005873748817 -0.03012896353) 445
(0.04827003837 -0.03128398558 0.01511724102) 3559
(0.002963485553 -0.0147198949 0.01521195301) 3630
(-0.04043377618 -0.001619481228 -0.006795147312) 2061
(0.04646695167 -0.01559814521 -0.008656084734) 2019
(0.02421235332 -0.01777430086 -0.01721545266) 1374
(0.03570744285 -0.03501011717 -0.01115320274) 1617
(0.006187870399 0.02324036934 0.01638008392) 3771
(0.01483174002 0.0109282209 0.02846304369) 4372
(-0.04101510634 -0.007134128679 0.02137689683) 3961
(0.01373056599 -0.02723963583 0.03744745545) 4852
(0.03193241891 -0.002199971623 0.00460414177) 2716
(-0.0249688289 0.03887927093 0.02805390622) 4465
(0.04968369404 0.01827336271 -0.02724112562) 879
(0.03206785067 -0.03188832492 0.01890594386) 3556
(-0.03526889371 0.006234899554 -0.02008482008) 1142
(0.02231972762 -0.01284331044 -0.01143611847) 1714
(-0.02147199324 0.001448652124 0.006301070816) 3045
(-0.04079646326 0.03105769878 0.02430212987) 4121
(0.02542178778 -0.02072014462 -0.03405976417) 395
(-0.0308217083 -0.03425499528 -0.03839933655) 23
(-0.02482727083 0.003244989913 -0.0357371967) 165
(-0.03452480078 0.03303544827 0.03018970801) 4763
(-0.03486966479 0.01407453903 -0.02391305321) 1163
(-0.03077697209 -0.03376033256 -0.0156170123) 1303
(0.01383608878 0.001634779519 0.02071177967) 4012
(-0.02065415534 0.03949511283 -0.01423146915) 1905
(0.002657815762 0.02885244642 -0.02363010634) 1230
(-0.01836091777 -0.02012962532 0.01395455201) 3266
(0.01788434655 -0.01257637675 0.0125452199) 3313
(-0.01376989356 -0.005025095041 0.01014522993) 3327
(-0.006245136393 -0.0158254915 0.01292900519) 3288
(0.03725447745 0.02353519844 0.01228961617) 3457
(-0.01768332881 -0.03626837019 -0.003902524013) 2246
(-0.04084412658 0.03252526424 0.02774934148) 4441
(0.005890977959 0.02124325012 0.0384286796) 5051
(-0.00532467204 -0.02707774964 -0.02039726855) 1008
(-0.02989571561 -0.03462892315 0.03898126757) 4824
(0.01193072032 0.0005517732001 -0.0008242888308) 2412
(0.005331844478 -0.02476026163 -0.03980576859) 71
(0.04631077024 -0.03686682571 0.002282521404) 2579
(0.02515399483 -0.000304283378 0.01928390285) 3675
(0.02171739976 0.007975499214 0.02696006131) 4354
(0.03702166444 -0.02343984999 0.03365980805) 4557
(-0.04918125938 -0.01076883204 -0.0130179517) 1700
(0.04886535465 -0.01436447678 0.03673279555) 4919
(-0.02876900043 0.03580846992 0.008757559466) 3184
(-0.00967760413 0.004629890851 -0.035983921) 168
(-0.002072119836 -0.008438746802 0.03977249181) 4929
(0.0326676763 -0.03043096272 0.004507911954) 2596
(0.00858437289 -0.00714863806 -0.02053627232) 1091
(-0.04667195207 0.03638433478 0.02065398123) 4140
(-0.0468907234 0.003275888249 0.03468020559) 4640
(-0.004234743585 0.03974970321 -0.007187616024) 2229
(0.03522957102 0.02903675322 -0.01276071615) 1877
(-0.01138951418 0.03819646061 0.03455209917) 4787
(-0.03495973062 0.0005337005044 0.02413398632) 4003
(0.04263558175 0.03079283524 -0.02422456918) 1258
(0.03629441031 0.007926549611 0.01690346058) 3717
(-0.03810663737 -0.004766057481 -0.02842948376) 782
(-0.02495058571 -0.01279774373 -0.03619420835) 105
(0.01502574883 0.03544798561 -0.001988363618) 2553
(0.03512111318 -0.03920597938 -0.02551930363) 657
(0.01796880423 -0.02714151831 -0.0009052706441) 2293
(-0.01867054938 -0.003443579956 0.01788801882) 3666
(-0.01808224979 0.01836112545 0.02295933561) 4066
(-0.03362854515 0.02365004216 -0.03712065704) 243
(-0.04322912988 -0.007839383749 0.03054430619) 4601
(0.02019480364 0.03271299651 0.01755397331) 3814
(0.02514538776 -0.008375190206 -0.0310169278) 455
(-0.03985659532 -0.01022616587 0.02297415674) 3942
(0.04030658845 -0.02007494539 -0.02038920322) 1038
(-0.04870832124 0.00753540997 -0.0001750287987) 2420
(0.01052890851 0.02221851823 0.01713074018) 3772
(0.02831231059 -0.03809217527 0.008630072942) 2895
(-0.04554852887 -0.01537687823 -0.02546862521) 720
(-0.006650824492 0.02044039667 -0.02036523679) 1208
(0.01640893788 -0.0277056521 0.01324662119) 3253
(0.004230332907 -0.01813180221 0.03454175142) 4570
(-0.02108966717 -0.025278571 -0.01267642727) 1645
(0.04616970897 0.0170145755 -0.03117286249) 559
(0.001490412827 -0.01067176441 0.02050291438) 3950
(-0.02616790447 0.00108430374 -0.01493096877) 1764
(-0.007472715854 -0.006533320657 -0.02734697589) 768
(0.02216799512 -0.03049180754 -0.01923037594) 1314
(0.04168940154 0.007214879623 0.03470708911) 4678
(0.01550269707 0.03278794182 0.0336050641) 4773
(-0.02679410929 0.02032808558 0.03205421751) 4724
(0.01752355399 0.01949743917 0.02733220962) 4393
(0.008616763883 0.03805202966 -0.01028215536) 1911
(-0.0321922884 0.03029907126 0.01081673508) 3483
(-0.008830527703 -0.0242140235 -0.03940167531) 68
(-0.003050280451 -0.007468235649 -0.03911165145) 129
(-0.02981810648 0.001642344817 0.02870633164) 4324
(0.0138141115 0.007296947978 0.0342435811) 4672
(0.02066873472 -0.0171771999 -0.01636208829) 1374
(-0.0274171888 0.03541669768 0.02282563727) 4144
(-0.04572838323 0.03197150318 -0.01320192372) 1880
(0.04313826146 -0.03677914514 0.03732802745) 4818
(-0.0427452932 -0.02180747244 0.005824430423) 2941
(-0.04476712346 -0.01434369931 -0.03212038654) 421
(-0.008528355281 -0.01604469391 -0.002534489583) 2328
(-0.02894344304 0.03537130542 -0.003199675976) 2544
(-0.007375123877 0.03526591648 -0.01080554006) 1908
(0.01772202651 0.01815737356 -0.03523138168) 233
(0.03597501965 -0.01229706529 -0.007637182858) 2037
(0.03097877695 -0.01638013508 -0.03495008785) 416
(-0.03101211015 -0.02597182803 0.03150837525) 4523
(0.0108843518 -0.005900277985 -0.02813713541) 772
(0.006437762647 -0.03560499316 -0.006933116585) 1931
(0.04895844268 -0.03267581406 -0.003405942279) 2279
(0.04369540032 -0.008012257025 -0.02820776793) 778
(-0.01107844031 0.0279261127 0.005397925557) 3147
(-0.04670715624 -0.01875856923 -0.02476995255) 1040
(-0.01494999514 -0.03813313541 -0.01150365066) 1607
(0.007754076504 0.02294388695 0.03777512154) 5051
(0.007612730905 0.02570158439 0.03722872147) 5071
(0.008810096181 0.00672392318 0.03443531931) 4671
(-0.01565220424 0.01936371516 0.03435554096) 4706
(-0.04415841708 -0.00469770212 0.03336200638) 4621
(0.02131780007 0.02539227883 -0.03142047299) 594
(-0.003578897513 0.006782191543 0.02836170838) 4349
(-0.04492266288 -0.001302361265 0.01642113767) 3661
(-0.0415237959 0.006870685923 0.01747138327) 3701
(-0.03284015738 -0.008451676048 0.03382579066) 4603
(0.01306082302 0.01299994912 -0.0003815794869) 2452
(0.004692152493 -0.03742087884 -0.03568929321) 10
(0.02047499845 0.02456205309 0.02145046143) 4094
(0.006993821756 0.039039473 -0.03601163924) 311
(0.0382093965 -0.0177786867 -0.03898687703) 97
(0.01695360387 0.02070618555 0.01063096822) 3453
(0.01301550302 0.01439773772 0.03755096851) 5012
(0.04458653993 -0.03808897864 0.02889796823) 4178
(-0.04184123948 0.00708477513 0.002717619987) 2741
(0.01936227963 0.03750575398 0.008375177546) 3193
(0.004231255633 0.005799308941 -0.03122183938) 510
(0.0303700898 -0.006618894765 0.03201972818) 4616
(-0.007695831143 0.01641713336 0.02915091578) 4388
(0.04224151961 -0.01717213769 0.003839383575) 2658
(-0.001930562781 0.0209261704 -0.02534215637) 889
(0.009013407458 0.007627463364 0.01644539137) 3711
(0.01799456396 0.01673063785 0.03825520066) 5033
(0.01840666185 -0.01178457631 0.03780051687) 4913
(0.01011790003 -0.01065946739 -0.0025309765) 2352
(-0.006365584138 -0.01676618362 -0.01497879971) 1688
(0.04886633185 0.03028791833 0.03752714721) 5099
(0.01535043495 -0.02926867216 0.002892171106) 2613
(0.02585446233 -0.006300819404 -0.03182880496) 455
(0.03801381836 0.01708834635 0.0177157813) 3757
(-0.01324328999 -0.03519578101 0.01089830162) 3207
(-0.02224174715 -0.02510630012 0.007318153084) 2925
(-0.002674744218 0.02146088634 0.03246970201) 4729
(0.04245113377 0.03809344163 -0.024846612) 1278
(-0.02527499489 0.01652706304 -0.01906991877) 1504
(-0.03733902931 0.02397170842 -0.0096020787) 2162
(-0.04931728881 0.008605425421 0.03896800279) 4980
(0.04479617806 -0.009036301639 -0.00509067135) 2058
(0.01194221503 0.01224162245 0.01372244241) 3412
(0.002602108701 0.01256232657 -0.01754377108) 1490
(-0.0316593945 0.01071150142 0.0218312424) 4043
(-0.009123590683 -0.03916786395 0.01846316127) 3528
(0.03016432141 0.01510794896 0.01175142503) 3436
(-0.01191925684 0.005994900079 0.007474239034) 3067
(0.01118872301 -0.02539515639 -0.03976269956) 52
(-0.0161853782 -0.001203695541 -8.976230386e-05) 2386
(-0.04543920143 0.02988523674 -0.03464976945) 580
(-0.0190177851 -0.0199501773 -0.002627111888) 2326
(0.03801733243 -0.02745687626 -0.007096669416) 1977
(0.01778699242 -0.0273569071 0.0318802959) 4533
(0.04889781227 0.001086267777 -0.02942639165) 819
(0.006436200181 -0.01895338363 -0.03832286196) 91
(0.03537224808 0.02759273278 0.02370672738) 4117
(0.04970857375 0.02867394032 -0.03599264261) 279
(-0.04496832979 -0.03589809856 0.0003431078954) 2561
(0.01774831925 0.02122877198 0.02586423885) 4413
(0.008759750679 0.01488439272 -0.03822664306) 211
(-0.03523105023 -0.008927165833 0.03473979272) 4602
(-0.02624985421 0.01885623604 0.0333320556) 4704
(0.01434975022 -0.004724578534 -0.02356797846) 1112
(0.02802161183 -0.01414956313 -0.009560343122) 2035
(-0.01766539643 -0.006083257457 0.02462721948) 3966
(0.01744531786 0.00319605644 0.02507406895) 4333
(0.04642930825 0.02492459334 0.02072669076) 4099
(0.01464822312 0.02684265585 -0.01057745562) 1872
(-0.0147320928 0.001839432621 -0.0304043153) 487
(-0.02321285452 -0.0001110628913 -0.03177603557) 465
(0.03974599834 -0.01942296241 0.03130966996) 4577
(-0.02958937113 0.03605453362 -0.01937571993) 1584
(0.01551985217 -0.001697931751 0.02015260597) 3993
(0.02198631306 0.002060092708 -0.0146257945) 1774
(0.00395141913 0.01442631228 -0.0262475351) 850
(0.03775857692 -0.03364536027 -0.02200217757) 997
(-0.04557215398 0.0313763994 -0.02493393303) 1240
(0.04753083573 -0.0100534565 0.009617636464) 2999
(0.02297418783 -0.01321574701 0.03659842755) 4914
(0.02810905056 0.01226460693 0.004869090248) 2775
(0.03625765003 0.000314115023 -0.02365063702) 1137
(0.01853067936 0.03790754567 -0.003010865792) 2553
(-0.009580980349 -0.03646375668 -0.0103595646) 1608
(0.004252182694 0.006136007562 -0.02193038767) 1150
(-0.03710015761 -0.02964915974 -0.02080924611) 1002
(-0.00124298213 0.01584950482 0.01319351062) 3429
(-0.04579999533 -0.02361403709 -0.02653000954) 700
(-0.02293709919 0.01482401749 -0.01075176046) 1805
(0.008468170491 -0.02705557492 0.007365742748) 2931
(0.04128203964 -0.009966418922 0.000831490109) 2698
(-0.03651192757 -0.003210722541 -0.02632220333) 782
(-0.02285762173 -0.03265209678 -0.02046478398) 985
(0.03243846764 0.01824319186 0.004404112657) 2796
(0.03021278998 -0.01281471141 -0.02486419012) 1076
(0.03498703009 0.03495827031 0.03419094596) 4776
(-0.02328997715 -0.000475464207 0.008060324106) 3025
(-0.003433290192 -0.02177503448 0.0376222369) 4869
(0.03058900142 0.03535286306 -0.03293962317) 636
(-0.04753702506 0.02778784309 0.03156890422) 4740
(0.04748112906 -0.029519862 0.007516828356) 2939
(0.01485220917 -0.002957230426 0.01935445458) 3672
(0.004812918829 -0.01824471427 -0.02830036546) 730
(-0.02878394359 0.004295747497 -0.02552532989) 804
(0.01209832837 0.004279228847 -0.0095363402) 2092
(0.001146532913 0.02023710913 0.004717073324) 2810
(0.01614432087 -0.025319672 0.01881955707) 3573
(-0.01983179861 0.01329968379 0.01360981693) 3406
(-0.04821804148 -0.01143436413 0.003062981672) 2660
(-0.01965901843 -0.01257178064 -0.01276855438) 1706