/*--------------------------------*- C++ -*----------------------------------*\
| =========                 |                                                 |
| \\      /  F ield         | OpenFOAM: The Open Source CFD Toolbox           |
|  \\    /   O peration     | Version:  v1612+                                |
|   \\  /    A nd           | Web:      www.OpenFOAM.com                      |
|    \\/     M anipulation  |                                                 |
\*---------------------------------------------------------------------------*/
FoamFile
{
    version     2.0;
    format      ascii;
    class       vectorField;
    location    "0.2/lagrangian/dsmc";
    object      U;
}
// * * * * * * * * * * * * * * * * * * * * * * * * * * * * * * * * * * * * * //


97179
(
(-204.6574148 408.680771 33.03817427)
(68.24632145 223.5888164 161.4617413)
(-271.6133333 -156.8717827 49.11337741)
(42.9146501 -287.025842 -236.8240587)
(-8.846638965 -10.97960176 456.2995109)
(-60.07106539 12.48440838 354.7538674)
(-33.10949055 -242.2392329 194.5298546)
(258.8222814 97.26679253 150.9293055)
(281.2074779 -232.1045118 4.224142032)
(-549.6882232 -20.64702082 -152.2934428)
(423.4309089 -23.06354733 71.98434807)
(27.37082994 -146.0769906 242.4954241)
(9.879419647 -322.7088585 289.9222844)
(73.85289381 -113.7073997 97.23885026)
(-305.3423965 277.3195425 -441.5520571)
(-33.02684914 93.81923531 14.83406732)
(55.24312109 292.3784259 233.863928)
(-132.2563447 -138.1690583 -74.58864431)
(149.6836845 -246.184598 -2.490110962)
(-2.383996287 -36.47225739 134.6102648)
(-512.6184983 312.7618311 154.3879736)
(-218.3525582 67.31483885 -157.1912954)
(-132.0251906 -187.9627552 -125.9697391)
(141.3915499 -222.9717102 56.24622795)
(18.3077822 -105.8035234 103.3302118)
(300.4609091 42.28188711 -337.3528505)
(-174.6374494 -306.2629566 -186.5412714)
(141.8879939 277.2360825 47.96998631)
(223.0041518 117.4689161 -85.74876416)
(163.2951928 210.2650444 167.8200748)
(148.0720794 237.0522269 263.5158062)
(41.30795062 14.98889128 -105.725097)
(1.656345843 -78.74857356 -106.9159138)
(-24.37731967 189.6972342 97.36914442)
(125.5078004 50.4836183 -264.047925)
(73.32522527 215.0275883 81.82411428)
(21.2022279 88.13408602 247.8618983)
(15.22720715 -180.8101452 -310.5403284)
(-224.1064822 83.89488818 -82.58305486)
(-37.13163299 -96.5168468 65.14916255)
(356.3749857 -171.7755802 -148.6558649)
(-285.5680288 183.4406184 -703.8845697)
(226.3689278 -52.5614536 -106.9973562)
(86.84072149 -359.7182901 538.8708172)
(-90.9527252 -460.2576759 39.6380889)
(471.0721499 -158.0972933 -129.1717391)
(-71.2590373 -369.2877278 311.0029088)
(-463.8393959 3.568292577 474.7489348)
(-34.30070902 -217.869731 31.8478388)
(-177.4781012 -60.72480674 15.05755573)
(244.7097735 128.7174527 277.8686591)
(145.9243294 73.32063194 257.1525412)
(-276.8467851 358.6516432 -220.9105073)
(197.4373941 66.62649529 -101.0933823)
(1.978774374 160.2366265 366.4858239)
(111.9007333 -35.20930314 -42.41194063)
(-43.22631021 -161.1695131 -32.17628903)
(-162.3533538 -184.6516555 -46.86591259)
(239.8873112 57.19531776 -134.4268814)
(-7.097181731 -182.0517559 -278.2851196)
(-197.5013594 243.151131 10.4460532)
(79.65281809 131.4594324 161.0543888)
(-68.74364364 -198.4407198 -336.4110299)
(9.158170714 -381.9590867 -220.828574)
(12.22338014 -279.7117864 168.3689338)
(77.22914141 -229.6557307 167.6082811)
(279.853172 163.3129642 79.35371544)
(211.0293097 117.4534928 -265.3452506)
(-441.8344463 44.67551434 -7.567682287)
(96.57989048 238.3866095 73.78322718)
(185.7781355 2.474051017 30.32281066)
(-14.60221256 -541.0847549 183.3818825)
(-175.8588498 -345.0781528 285.4750607)
(-210.1601568 -88.22914225 56.6083)
(311.417629 164.9696224 -135.3992266)
(-187.833234 -109.0755398 -279.3327209)
(200.6450191 -550.6101331 495.0662893)
(-117.9655821 -42.3722704 -341.8337167)
(117.0306543 233.7044925 117.7706018)
(45.56156515 179.6224915 440.8624595)
(402.588965 272.0234695 -614.1215356)
(239.3146504 -33.01536103 135.975741)
(218.4697839 -208.8191287 86.01902016)
(-55.98251927 264.627792 -63.44456453)
(-193.6963387 102.4521498 36.89388103)
(639.7613874 -242.981248 24.57768838)
(-227.0296138 -232.6061752 558.0022881)
(-34.38586666 106.3777809 83.0481756)
(6.979399213 -77.15830967 222.876188)
(52.80024791 -96.86194607 73.58627126)
(-11.5107727 87.66839169 -302.6492512)
(-85.06570572 -225.7536474 119.6319422)
(-334.964268 214.0690308 -256.8664234)
(-57.57381798 206.9044147 -258.3994873)
(-218.2510516 -408.522934 -308.9322722)
(100.3531398 181.8381955 573.1460288)
(102.4167124 -408.7920569 71.88490208)
(-94.30173426 614.7627078 -252.1755958)
(-221.6072907 -7.42285052 -350.4078055)
(-119.0970293 -83.19988812 83.96036085)
(335.0766345 -449.1265978 -319.293025)
(-98.59452165 193.0970836 170.2217979)
(-41.83152262 328.9860427 106.9030225)
(-115.6851497 -107.7419613 186.1922395)
(131.1015991 326.9347679 -349.2113699)
(206.8256708 -16.44116177 71.17892343)
(197.8245488 -169.4231744 -79.91933974)
(-245.8452149 246.646967 -30.55007476)
(-147.0184536 -185.6534401 -250.7355007)
(170.0503822 43.49371729 32.21466934)
(160.6410203 121.9925953 22.15633419)
(3.605667689 -204.7735665 -89.96742684)
(-542.7383237 -160.2741751 195.3453631)
(328.7583194 -43.01551127 -118.8810674)
(222.5113367 73.39865056 311.7643078)
(-73.48591106 66.36688354 195.0892274)
(-15.27349967 -53.27245854 -286.4695441)
(-35.35798591 -367.4410011 -24.06271004)
(-28.71859339 -89.56728609 -146.4491547)
(128.4754525 66.25494322 -176.3401509)
(389.7725108 -292.6755385 26.81064655)
(-397.1098584 -11.91175916 70.48934116)
(-196.2379205 167.132085 -61.82243666)
(-95.6657987 98.24209365 -460.7819744)
(53.26933359 -639.5100591 229.0767767)
(223.4657288 -16.96166536 54.75110094)
(-62.23128549 -294.9831696 -29.78236282)
(-181.6131627 -36.89881032 117.2802747)
(-52.17232242 165.0702363 -224.3184919)
(194.6860763 -16.04791606 -358.3700312)
(-116.8548148 405.6568296 -48.59463878)
(-575.0733556 97.36459886 -1.411750388)
(269.3528047 60.57746294 -57.41339011)
(206.9061269 -210.6902612 2.617245811)
(-560.6090589 16.59731291 -109.9622425)
(59.68585884 259.2972545 119.3637098)
(100.3946706 -201.0723169 -115.6978686)
(28.16188151 175.6135713 -51.11321871)
(-377.6719088 137.9276783 141.580461)
(107.5630279 -106.5302802 -349.0129399)
(591.6634234 140.1083428 30.99719798)
(-253.6127142 184.7018611 132.7949846)
(-140.7989695 62.56346074 38.70577997)
(120.5576643 -1.971475483 117.6650223)
(25.63853176 211.8443663 -292.7066029)
(-140.3909194 229.1981995 588.0402343)
(-566.3316348 15.25553106 223.3966147)
(-319.3090362 130.6741797 212.3841449)
(-500.0900217 117.2989907 -184.5356084)
(452.5541079 -304.7225776 -188.2685666)
(-375.1738941 28.60166469 150.8356787)
(-86.4691354 -337.1735072 358.3409457)
(-183.6599464 -406.2711399 36.16457021)
(-38.44670909 -52.93812432 -33.59637359)
(246.5661759 -11.0600272 -152.1439803)
(-51.32791856 126.3613064 -68.0245765)
(-104.4200904 -26.70675708 29.44378014)
(-36.14219759 285.7621868 81.98792198)
(59.42046426 451.030339 100.8014573)
(52.89441086 -150.5712593 144.6152883)
(197.5814305 -57.68938633 14.87865723)
(-42.30140697 129.6932042 -239.1152998)
(-60.17261843 -118.3028577 -49.08266008)
(95.92110076 -337.299478 -340.3546656)
(385.2803948 -136.6363134 50.56032142)
(129.9573612 -87.13886988 -85.09442799)
(157.2343127 174.0522243 -182.2180864)
(423.3263646 -13.24454243 263.1622417)
(-57.74707184 21.10333008 -176.3817194)
(20.79892864 -229.5267004 128.1616488)
(-165.9891024 18.54691739 -716.6984087)
(165.6114642 530.8802109 66.27283033)
(-18.15612193 -107.8781464 478.3606018)
(-149.4005066 261.5618066 55.12480411)
(43.64407215 143.7093157 -105.5402164)
(-555.9623764 2.090767207 -263.6778865)
(-263.2274302 -627.6331124 -141.1107013)
(308.2581323 -68.22549604 -107.9698213)
(-99.8732863 -287.3265839 -34.86467285)
(11.99586642 211.3512202 17.55943575)
(-77.76965088 -151.9257648 257.8841113)
(-477.9255389 -56.29869597 -42.45351425)
(-94.61740562 2.979123922 -192.3259259)
(196.0988241 -2.380463982 69.43896638)
(42.52913177 -432.0009289 277.5644351)
(-7.79762074 201.856828 -293.0774342)
(-57.04324951 -167.567258 190.1438351)
(124.3994345 91.38346479 66.14814348)
(299.5447848 -18.04427379 -21.59127056)
(39.20652206 -643.955007 14.28090881)
(95.89776595 -285.2705173 -86.14282025)
(394.7227033 -246.4586448 343.6139187)
(-201.1470364 843.8370144 74.65778701)
(-199.3178835 -126.74505 -68.47034352)
(433.7091573 -334.496861 174.8582971)
(-512.4468098 259.1841032 141.3465644)
(-589.7340943 -376.4449489 -248.7673494)
(31.74502178 17.87687783 147.1615871)
(-26.61997909 -24.56986681 -72.87328673)
(41.88361099 -271.6195256 170.3009904)
(183.1860257 -331.383572 -44.12081182)
(-13.7501671 69.18855826 390.7268182)
(-97.12253877 -127.7203634 -69.85308877)
(282.9628975 292.28104 -380.5594841)
(591.257581 68.89584414 208.1268521)
(-10.41844374 -149.7537759 3.366313717)
(64.01779036 64.45358104 -59.38237146)
(-90.28094697 -121.9386027 -71.80187905)
(-36.17877303 18.21477659 113.0593808)
(105.4140644 48.08630702 72.18898933)
(94.84380245 119.672336 458.2854699)
(304.0915323 210.7352731 -178.3022963)
(-314.2708618 171.3877534 -235.6897256)
(209.3816557 -146.8072258 -11.53952475)
(100.4927574 38.68512098 103.3720269)
(-103.9674946 -169.7053174 117.6510609)
(-283.4042157 199.3285928 79.84546568)
(-141.7264241 -37.08482132 218.8449346)
(-65.65052764 -16.78184857 -176.8482572)
(-15.47335125 -128.6370455 -110.5707766)
(365.6905059 -116.6812252 -53.64670042)
(-77.72313828 -246.6599339 8.526755458)
(-201.8250215 176.1664442 -52.42436447)
(459.3871999 -31.26401243 273.0379019)
(131.7621841 -42.07313231 -21.50635285)
(27.74500965 -315.8130001 343.0448303)
(-65.72699009 -198.5527845 192.9482643)
(96.0911182 50.96055849 -347.7013248)
(67.55201741 45.63586143 -349.1573189)
(-72.38738669 -22.0504991 7.836498951)
(-68.79696544 15.27854367 -124.369641)
(-111.0919184 78.44237249 346.4393362)
(139.8407546 489.0288059 -487.5340678)
(-27.84520053 1.825255387 54.43440831)
(-134.3682525 303.1578605 159.1952085)
(147.6449385 -107.1789417 -518.6880635)
(-7.714761446 238.9616753 -268.6146272)
(-40.28513493 -368.3146552 3.751902235)
(56.6796207 199.3846411 -87.81434644)
(-114.909828 225.6766906 -258.7359374)
(275.0258075 272.1523805 323.8366958)
(67.71055724 528.9970944 474.8470605)
(227.0077089 321.6101908 -148.521979)
(106.8549962 -301.2786864 97.57262768)
(184.8307742 -53.29632002 10.10120457)
(-293.9758854 -468.3941974 259.1181247)
(-248.7571577 76.31677839 -125.6284431)
(-36.5564568 -397.0520687 246.5852018)
(-71.9762999 -158.850291 167.1040027)
(180.4745128 -612.4926226 140.9914423)
(378.4086415 -91.8007978 -449.1363632)
(86.69601888 -424.7225332 98.16771102)
(-459.3761229 100.6765262 -84.40980546)
(-320.4074671 84.0245114 -235.3624295)
(-102.9561557 371.8463856 258.2121259)
(-6.638149275 180.444695 29.94312911)
(245.4315792 -1.32417912 -127.8210935)
(22.25624105 -176.0459971 -106.845469)
(263.9330549 -66.02432251 336.5333416)
(-66.67840505 1.8529628 28.94689244)
(367.6203646 180.1052877 93.42496491)
(615.7148888 -109.3424971 -396.7995491)
(27.83158798 -543.5100816 -51.0940543)
(-167.8334802 -206.7427196 188.6504913)
(111.8975736 143.2092925 -202.0920536)
(274.0539086 -287.5021154 120.4623323)
(233.3644336 -383.2804717 -0.1766631883)
(-89.46129886 82.74208557 29.30559454)
(-252.5474353 -171.9805331 304.7854349)
(-497.446126 62.52130909 -10.7319344)
(-224.4296853 413.9005126 -55.53529207)
(-116.2186697 -80.05755233 219.5874151)
(-204.7422847 -224.1839886 305.9535975)
(164.9825227 177.0800661 93.57616991)
(225.1343563 423.3303197 -336.1303835)
(-0.5654754434 -94.2072925 353.0423045)
(536.5925729 0.0566119248 -32.85650869)
(-366.9710221 -87.74897161 -206.4167099)
(-63.47874583 82.69010941 453.6905465)
(147.4937241 89.56861279 -270.7895686)
(-201.3057166 -138.5518585 -343.1516028)
(60.18511431 7.985891445 154.8470659)
(-98.35922546 373.5397377 25.09816944)
(-127.6881446 -143.9893652 -60.22590927)
(-224.8148154 -145.0837411 -318.0426029)
(28.72391858 -39.45730876 -488.5836286)
(238.6552374 -305.7989153 174.9742179)
(-295.3118033 -390.0982408 552.2945879)
(-241.7522175 -33.54969139 -123.6166812)
(231.0958519 258.3904432 -182.850649)
(13.88256583 -171.1136697 -328.8332948)
(69.37177668 -272.4314614 105.7357748)
(-416.3687873 -35.13030791 177.3450108)
(25.0671641 177.022306 5.414831869)
(385.9325394 -500.4355723 49.621046)
(-78.19469962 260.4763568 437.4752358)
(207.9167748 12.66705323 -183.3106335)
(-65.45758259 -195.8848037 -81.88124909)
(-156.314733 64.10895649 267.0480174)
(813.5390602 82.42294026 327.6086262)
(-245.075192 -595.0475664 293.8748411)
(174.5878702 38.41991697 -46.1153085)
(138.3311935 -130.4480108 465.5935672)
(-535.348816 2.524376871 59.78146414)
(243.8934329 -172.7025156 -78.18521254)
(-56.06446227 66.75775571 275.0517863)
(303.2007444 -142.8382182 -287.4316579)
(-267.7710166 62.64495847 212.5467741)
(149.9563233 380.1688566 -181.2664697)
(108.6973293 -197.7204759 -459.0263122)
(15.07562792 341.1523963 139.5650748)
(101.8563766 396.9864052 610.7075792)
(-32.73452326 -26.93746884 193.7242722)
(-402.5587417 228.0704328 -31.87838637)
(-41.87008126 -67.33816689 13.83926479)
(44.62824498 239.1080005 -229.855592)
(6.562681924 -245.7849065 -3.127637197)
(342.8008302 192.642243 -512.7405364)
(415.4386298 58.79810638 -452.8885371)
(442.5034265 326.0057822 -141.7807242)
(340.1598097 -163.00778 225.1997939)
(37.82919698 -128.9599511 453.6250668)
(104.217064 167.7221486 12.29200049)
(210.9487762 -99.65663949 112.6217565)
(-396.5605673 77.230898 -154.9762964)
(-365.1202367 546.7851873 -128.808703)
(-323.0609639 -53.4661998 246.4240884)
(167.1565099 -300.5027413 -357.3547338)
(-14.19520939 -79.81384732 354.2788501)
(197.0581383 36.45285273 -19.30282433)
(148.3191491 19.26489245 -408.9560738)
(-233.9724169 -239.0549066 -327.7805465)
(302.9002251 240.2044181 -182.7066633)
(-137.9397818 -118.5750261 -217.202913)
(-135.6583302 28.26990633 568.6877269)
(-502.1623138 -254.5717422 484.650095)
(209.592279 40.06690979 379.3645646)
(208.9362799 -284.8906738 454.6112604)
(50.86565452 496.907723 -28.36789604)
(-36.96892143 73.34099155 -380.3238259)
(21.59156991 334.5785406 44.13511598)
(-73.265113 90.87382433 650.7638222)
(93.87541003 205.7905885 148.8341826)
(-451.4052626 -219.0269744 -63.18146647)
(94.56342679 181.4401631 370.1598323)
(277.5129586 234.6509982 71.33663624)
(-298.8624816 -5.958474638 -107.1053511)
(20.66241818 35.23145647 309.5457354)
(49.21568577 153.0767552 219.8238319)
(69.77974474 -409.3394645 439.7124715)
(-140.2501535 -24.529583 85.09663947)
(196.9037331 592.2232174 140.8342494)
(-178.6688672 -494.6459565 561.2415044)
(397.9184449 -136.5503227 330.8446055)
(-307.955859 108.2620512 121.559062)
(355.9280721 102.9391238 -119.4696078)
(-154.3801316 3.138860406 -312.2331021)
(-207.6128286 -155.6552159 87.8469586)
(-89.3723621 -296.6486305 236.198953)
(17.30114592 -29.23430697 286.3541603)
(-177.2026963 376.519514 -358.8396862)
(-11.6944117 284.4999822 -150.3844739)
(-227.1403344 433.5909111 304.7666758)
(162.6768966 250.5898786 -230.1913395)
(-77.79672314 350.7439169 -221.511856)
(332.2206178 197.4080506 319.1323307)
(-228.1666393 301.7262132 36.04921614)
(-97.9319829 230.7060189 6.321490023)
(-175.7313777 209.3234725 -169.9549482)
(-77.60155385 -30.51539964 -360.5880991)
(53.61207272 52.77140462 171.9919515)
(-114.4240504 -163.5906652 -104.3427461)
(-34.74421461 72.61112294 -200.9024886)
(2.588349608 116.0255437 36.04201807)
(151.0509014 -75.98153651 -240.355609)
(405.9028475 -139.2204617 97.03739303)
(80.74196781 97.574708 -207.4027316)
(100.7546611 255.3738415 -96.90333718)
(16.25580629 -271.2134421 27.73912897)
(-394.8568385 0.06103207749 -366.4623818)
(310.2469212 -248.6794457 -225.1909865)
(-15.33543032 -131.0926048 -213.1189401)
(-218.5614756 147.7691024 -63.17939663)
(363.9573273 -256.2511949 66.39673035)
(148.3683327 -37.38776833 -454.1724698)
(50.3624292 -357.1153931 327.9607828)
(-75.20349249 -430.710555 114.1676151)
(-82.37656315 230.8494841 31.36056039)
(405.1277352 170.5664355 -189.6695661)
(313.0358772 204.5643783 129.6853866)
(-562.775239 311.3979114 -404.6609888)
(-19.02815514 306.8287589 542.316271)
(-176.2352331 118.618731 -464.9117786)
(-3.350891819 245.6652122 110.6614724)
(-253.7349912 111.0879174 -121.8115328)
(298.473118 99.32604256 132.2719748)
(22.7976438 5.320150327 45.57293591)
(237.0444642 67.13988225 -96.8123961)
(95.27961007 78.61959152 -294.3209644)
(194.4947953 119.7666635 -98.97345703)
(-531.3458342 -203.2668605 -286.5658849)
(-445.3121504 -57.12567112 -162.7320478)
(280.1158335 111.1371235 -4.698896899)
(-198.0851336 112.6478709 136.9753372)
(289.0614785 191.5696215 46.13734863)
(27.51325235 117.127452 157.6326645)
(-150.8800168 -478.7723111 -71.44739165)
(248.4944237 -156.3068045 -148.9773578)
(-330.3420798 -124.1955406 206.3980577)
(242.8178582 -76.02385673 -185.501053)
(-429.9148138 -297.6656992 -224.1290079)
(-139.8872107 101.3954903 96.03744879)
(-422.3647679 -48.51324074 291.6220329)
(-179.5913454 303.7498548 -82.20217928)
(343.852862 195.6450797 204.7470853)
(94.8777729 -105.128292 40.95567078)
(-199.4002546 226.9021823 -462.3240188)
(-11.14447874 -168.5390283 -407.7920141)
(30.12958095 243.5926949 -85.21776694)
(-11.75704225 74.97158222 -578.5986664)
(-172.5210986 -84.92801328 315.1081992)
(-15.38087281 224.8593567 -175.1499056)
(-206.3098212 170.1086499 72.90118016)
(51.79188366 -142.2025052 -2.939339298)
(376.7323777 -172.5120373 343.1540218)
(187.0829881 -4.616498556 253.2916237)
(40.44579762 221.5541513 -64.51646389)
(-115.9748271 521.6653421 118.6585003)
(-585.0715708 158.0096019 212.6262881)
(237.699051 -229.9659379 -240.3964793)
(187.6522759 64.48932173 -249.2317039)
(213.6543638 -347.4354113 211.6715601)
(-197.3215297 586.5998658 166.6171829)
(85.19901953 -30.51717448 129.760438)
(178.6542389 53.53962478 -41.25700232)
(190.0791339 -400.4733351 -249.4348255)
(257.3785375 199.5457716 257.7388898)
(108.9073089 63.00664558 -82.25080516)
(-73.66680362 22.3561869 214.2425327)
(304.5904348 -310.1008913 214.3603168)
(-86.26064581 -273.4132959 412.3498829)
(285.5459838 -44.29199237 350.1369599)
(161.0794961 -133.3978348 -64.61943252)
(-118.195303 -165.0399033 127.4212825)
(-239.7918556 486.7379579 -343.4159159)
(375.5698883 202.8891658 496.5539657)
(-332.2001479 355.0496983 11.30366257)
(-302.3003272 380.4273265 -46.71065893)
(133.3157103 -98.43087363 -363.510337)
(-66.93823617 -145.6554498 220.9356011)
(297.0222419 -432.3118931 -10.32032666)
(-103.1814932 2.702951963 -148.0891905)
(-119.970875 264.4011816 -99.87211071)
(64.56546163 -492.495712 86.73678992)
(308.1687847 -238.2903507 -21.44151693)
(-157.4406281 13.21387971 -107.2991266)
(131.5005418 25.56989851 38.88258961)
(-83.55707909 226.4486281 -110.9360077)
(51.45081272 249.5417391 -74.63783413)
(139.4378605 620.3928936 -255.6181094)
(261.9269822 -222.9328685 311.1574345)
(-484.4582136 -32.92347634 -327.7405907)
(-16.88560405 271.0760823 141.2429965)
(243.1012489 393.4805155 -23.30053882)
(31.40991157 -342.3852831 178.0858827)
(484.2222557 298.1417053 -316.9903106)
(272.5295802 -177.444658 -301.2862935)
(-169.2218555 -38.25559921 -230.3634067)
(61.63236424 -1.024764837 -115.822865)
(162.1647962 -81.74163025 567.549982)
(-103.5941322 416.6930284 -271.0608494)
(195.1031479 294.9764271 301.7317548)
(499.5783982 293.8045824 116.563236)
(-99.60907753 -173.2502875 45.02598055)
(9.243011925 517.9080784 -123.4789841)
(-145.0155511 -333.7621353 -452.8478193)
(-388.2235442 432.6508742 -66.99386177)
(-399.6326202 84.40618553 -127.9848405)
(214.6427114 -56.20370482 44.09762747)
(-206.0199046 -11.75298265 123.9270375)
(-119.6911277 -265.7120218 100.5875916)
(-364.6520247 -169.7458725 -116.7564203)
(-332.3262356 -117.0297107 171.0173542)
(111.3150752 -19.21266376 78.17141697)
(187.8572565 -323.3823615 402.0161598)
(13.52164627 283.1314333 184.2110849)
(-79.7716344 -90.04444327 36.11656986)
(118.0701974 -65.97251444 418.5540431)
(-363.3098582 -308.1122155 9.951957809)
(277.5819329 41.4555617 76.77035665)
(-304.9536683 230.4369612 66.8459061)
(-170.714317 62.29588067 -47.48558349)
(7.307724959 -154.8097131 -160.0014449)
(-51.07755348 102.892787 2.960596744)
(148.423239 193.3614537 79.08834358)
(176.8540386 96.31103317 31.37798304)
(197.383589 -92.70365535 256.3977912)
(73.25298696 86.04552074 -410.0117743)
(213.6645398 -359.090187 381.9657422)
(-274.8776357 28.95633893 104.350726)
(-58.61752932 -510.1452704 523.4841888)
(123.8395014 109.6164573 354.3946699)
(-415.5122713 -435.892713 -212.935339)
(-192.4178811 91.16506754 -160.8203727)
(-675.6293177 236.4694366 -299.6373163)
(-239.4016403 -277.2153266 29.39098705)
(126.039054 -78.99451163 -321.3561524)
(23.05991716 -95.44862125 -206.254516)
(191.3070613 110.735913 -185.7127716)
(142.7646594 179.6419365 -425.9313155)
(-58.37152543 154.020006 -282.9409274)
(-33.5279844 169.4032373 15.31593971)
(426.7483099 -125.6223392 -326.4980721)
(251.6091101 -141.6758893 -49.63186807)
(6.209290116 -92.0566745 31.74261224)
(-248.9571943 -555.1281577 -136.4960249)
(676.5848063 439.5588034 34.66325815)
(-181.9605827 -15.14927393 -145.8596831)
(-117.5108722 137.8220455 -8.080323066)
(-315.3145527 -91.85911014 380.5604504)
(-58.28371202 56.21939726 -153.4945908)
(-149.898149 148.5498068 -89.61312683)
(-70.81556383 212.4889287 -269.9902178)
(-113.3670727 -2.556842918 189.9851113)
(-300.1483761 -73.8073614 -379.8392108)
(223.5657942 -340.3661668 193.3816388)
(-488.7150255 59.58017566 26.40168934)
(-41.60298775 -70.40850044 8.430318904)
(171.9346544 82.42261418 -327.0145438)
(-148.2978331 11.0969549 -330.1856976)
(52.45787437 146.7803857 -40.71943795)
(177.8523304 -245.8328717 -100.3832244)
(-66.84892695 350.8313178 52.67355011)
(-123.8261531 304.1741479 252.8802952)
(-301.6079663 -162.2445519 75.85807702)
(366.0864383 219.748994 88.48338456)
(209.9591307 -60.63582704 -159.9168797)
(-136.8416983 175.0786864 274.1665713)
(-123.4444628 153.7839182 -31.84428457)
(169.8884103 -13.92301511 -66.79375351)
(-225.6325356 -96.30514485 -232.6379647)
(50.19224903 392.4807177 458.9187301)
(19.75303137 -91.84936393 145.835915)
(303.9527268 374.6050718 297.0634815)
(51.2199116 60.81629775 -136.9510762)
(504.0733068 -590.5536 294.9597321)
(-451.7510832 -649.223038 144.1478174)
(-182.7829751 100.3526181 -106.8700038)
(148.3705434 2.947970802 13.29502392)
(292.3451638 132.6964506 21.30380627)
(149.1237365 -136.5905282 -204.0151406)
(-100.9072345 -93.63268128 404.8470646)
(-132.7373138 96.85093718 260.9554586)
(136.7515956 149.094248 -497.3788726)
(236.1472872 -247.2762928 -5.913214271)
(-54.89907823 251.7118414 153.3939629)
(402.7090077 261.9453371 -94.14036933)
(336.6555367 356.7248574 -262.5403894)
(446.9212533 -294.6284669 -14.64221521)
(-112.2783294 -192.2057551 73.60614081)
(-68.64604846 -169.3208975 -580.7551607)
(26.01133078 -9.153993169 94.0223637)
(-266.8609816 -576.0706283 109.2861223)
(-282.4432337 94.34787087 146.7247997)
(-78.02367931 -161.2213807 1.01552809)
(499.2391075 -195.2609539 156.8635584)
(-24.06387931 -170.9223257 -91.43783356)
(100.3013936 -163.0136096 136.7333483)
(-38.06838381 -141.6778226 314.071926)
(333.6935733 81.07610839 -205.6081046)
(-305.264264 -285.429203 -301.594519)
(-137.7152855 316.6773936 -288.0760471)
(-536.3723067 -21.31698017 -323.6660547)
(112.0961639 248.6146533 -258.7342433)
(235.9363857 61.15502011 447.2143584)
(-63.27153876 227.5325276 -20.47519011)
(-102.2882345 -344.5258907 -382.2078949)
(-457.0469101 -240.4273775 -106.6947488)
(-12.14601219 -16.02066972 388.2934871)
(253.1579099 -479.6453104 124.0979611)
(-313.873164 -42.56394257 172.8519592)
(527.9929461 107.9173181 -373.4571427)
(-138.7377118 -182.5091142 -498.6328834)
(85.36198804 34.48011199 100.6818872)
(416.572837 -138.7677754 -153.0189021)
(-93.49023683 -152.1549531 -169.6379591)
(240.7469258 -55.18437053 30.31844177)
(201.8265791 95.18594228 -367.4601763)
(-112.2918812 39.05063273 231.5325153)
(-143.0248948 -170.3691329 277.5527454)
(-28.48868491 -51.46345844 336.8847661)
(347.9589226 -149.891004 -248.4271277)
(-105.3934629 -72.94728514 8.982033222)
(-66.5430416 122.6539179 136.0208006)
(145.4524864 -182.0376947 -170.7325862)
(-85.39969069 93.52865512 -56.1724732)
(-235.3281338 93.1104459 91.40597929)
(201.0581126 -269.5869911 -68.53908746)
(-115.9742015 -186.9609779 -32.57118224)
(-313.8321179 -343.5948911 347.1109674)
(-279.8587276 -120.0988109 -86.60135857)
(-213.1501911 179.8803177 102.1108768)
(-42.38962418 89.78416485 -408.2173904)
(46.19585948 197.6335485 20.89208329)
(-66.08196614 148.8652412 -81.46456789)
(403.1273639 197.2512002 -105.3350443)
(90.44347189 -31.70431529 107.9607479)
(-93.76090686 -257.1528099 121.2737514)
(124.0416861 -209.6361486 -134.5556841)
(-345.9130266 135.7060366 67.63556869)
(-79.5972394 315.1956766 478.5511761)
(286.82489 -66.39422319 -289.5421655)
(210.7047826 -441.9890421 -106.3537376)
(289.2790765 36.71515848 -248.5647952)
(501.8561894 26.02364911 192.8957067)
(322.2269572 -292.6471457 180.8606755)
(239.9278399 -145.8983238 -101.5588561)
(-144.2742604 88.10468252 187.7357262)
(197.9249195 104.0767073 106.7421475)
(-276.0275046 -368.6506764 178.7460028)
(-12.98769079 -143.4823069 143.6326942)
(53.70083905 -346.4393464 469.4135003)
(162.9351377 -180.0390739 125.6563236)
(130.6284104 234.4835487 69.26430191)
(-92.09022832 80.0211315 232.7613392)
(-73.85900558 -283.2990668 126.8391434)
(180.2011904 223.1978949 4.310505178)
(-186.2514224 256.5443611 165.7212158)
(-352.3046892 -68.24495313 -78.6908506)
(184.3586389 367.5329866 -301.221606)
(-74.64408296 -121.0374037 -97.83586698)
(116.0266582 217.7411166 -97.28438826)
(232.2526686 -98.55646468 -170.7597998)
(36.16313379 -351.0066417 42.0613491)
(414.5441103 -90.73980734 178.2033474)
(37.82403656 250.5561151 -136.5202128)
(189.7465758 144.0490413 -73.20467776)
(-24.78952859 -244.1253869 227.2799385)
(267.4218473 243.6224257 -259.6193129)
(-105.2418021 -207.5765917 -342.7578202)
(-166.3902956 452.0504522 -72.85505513)
(69.47703545 -142.3948932 -13.69388455)
(-150.1952751 -167.2363964 -127.0522829)
(295.0663273 21.32346901 -244.4968365)
(264.3022492 -235.2939919 -208.3171972)
(514.0435424 -35.90546539 45.28503025)
(339.3503165 -0.1249138528 -157.9116883)
(-187.6126418 -4.215583167 -283.9066752)
(351.0756941 326.712086 -7.229681203)
(149.3783284 241.8554832 142.7225299)
(80.63146149 22.65089075 -154.0698289)
(443.8445986 223.346946 11.46745755)
(206.3279135 -171.4587899 -121.8003269)
(261.7523702 332.3367961 -51.53959319)
(-370.6543739 -366.8422566 -14.49639465)
(-164.4118088 133.0285976 17.31093456)
(705.5063542 215.5966073 -64.33972692)
(435.8489084 -88.75637376 503.2276654)
(103.0908203 61.4376332 -202.2184293)
(-77.80050487 -35.94394489 -293.6504959)
(193.3268874 233.9108844 -31.58252863)
(-133.6394027 358.3088417 106.848511)
(-32.29710465 167.6782662 -214.6075036)
(-4.387273579 -15.54659531 -112.3783773)
(-325.6189292 426.3182528 -24.52011662)
(80.00793384 156.8058986 160.0542168)
(127.6454362 119.8934128 348.7822166)
(70.03232361 -228.0904085 -56.56857423)
(192.4057482 -226.2659 -341.8768603)
(14.35013706 77.95944268 109.5366753)
(209.3444675 -84.32151556 7.704626978)
(64.1976168 -49.6725542 299.509212)
(-295.8305623 -189.4539847 221.8075876)
(-419.2846468 8.064780899 -161.6084388)
(-75.92430668 -76.58319894 170.8789192)
(-127.4023298 33.61773824 -26.86612484)
(332.658961 425.6871962 -7.245728367)
(362.8317273 250.7176648 -424.7952127)
(-370.2857253 214.2140041 308.6847067)
(59.36219799 174.780039 81.08020367)
(189.2268778 384.8975159 69.57197687)
(-79.76973972 175.7962067 190.9851031)
(-148.0909778 -143.1191465 76.64035673)
(-266.8221658 22.88421252 283.050592)
(-81.01371957 44.78708181 61.24810721)
(-40.49881801 -33.35576818 194.669769)
(-188.4363489 -55.13436648 268.623296)
(129.5034892 -76.03260033 8.530430031)
(-147.9646123 -154.1828531 34.67238136)
(469.9405486 -45.05648308 -315.7648103)
(78.39557769 90.02504344 -5.120747601)
(-125.8408629 99.16824796 163.6490672)
(103.2318232 242.4606529 -417.0610126)
(-35.90145273 330.8910101 -135.3854451)
(34.05139472 -57.19787548 -358.2542385)
(205.5848485 -139.8885704 -0.3617433858)
(73.30923884 239.4974296 -414.6975551)
(-71.26039189 -147.2792407 -143.2749428)
(105.6384637 -73.40946613 71.64696838)
(-338.2964279 175.1254444 237.3808137)
(-28.13316393 15.67070141 36.86441314)
(-3.527849214 278.4475706 -112.8676007)
(-163.0743616 -126.9143121 271.6670513)
(-539.1715576 -161.4758577 -159.4438785)
(-43.49424845 -186.8293996 -189.2220349)
(-275.4587855 265.2235696 -199.0395945)
(231.4618735 -22.92567712 -243.3061008)
(327.0028657 218.5597416 -19.9314838)
(-607.0908851 -19.93573075 30.19100033)
(-337.7331492 264.2201374 -18.36231036)
(-191.4772119 -103.2775939 102.3268135)
(363.7986879 279.2526934 -124.6952787)
(41.14266136 -27.5440378 -336.3075348)
(-9.909544923 -113.867612 -297.5427494)
(455.5129824 89.46921735 257.8692024)
(137.4350319 146.5066942 548.7359487)
(262.0082585 -321.4203419 296.8349224)
(-341.3289771 -242.1549096 149.2511878)
(-148.050246 -143.2449547 270.2138466)
(184.8686223 276.977852 208.012323)
(121.1046271 -334.2929608 -66.19591842)
(-17.58863823 18.01274353 228.6075968)
(9.188466281 -16.30504418 61.14694527)
(178.6324921 -387.6731736 -161.9318569)
(-125.6794288 124.2613643 551.5692254)
(-372.3537566 -132.5925771 -224.3792083)
(293.2601541 -193.3162842 43.51308072)
(-12.91014448 -394.0890634 -408.1822369)
(28.12515483 89.20263904 549.8414181)
(-105.2655682 -124.7804935 331.4709676)
(-22.72260198 119.6810927 -262.5147514)
(238.052225 -66.32941178 -133.2707201)
(-244.8591781 190.194721 -144.8630048)
(154.3299653 -138.3571081 16.3658185)
(-69.70496729 187.0606679 302.4071045)
(34.99283647 434.1864019 168.6074519)
(82.9764845 -72.96102732 -458.271004)
(54.29087649 -293.6867427 -133.5796163)
(-347.111707 353.8114923 205.2871166)
(-150.4596449 253.4313663 198.2865513)
(-270.159842 58.93554884 -67.53020008)
(-433.1933386 380.900629 -71.9122165)
(48.55188795 21.78629111 240.9189768)
(303.5958332 236.3011115 522.8819061)
(572.9057855 -310.4250999 197.5460292)