# Probe 0 (5e-06 5e-06 5e-06)
#           Probe                 0
#            Time
            1e-07   2.445261374e-07
            2e-07   2.465146126e-07
            3e-07   2.484132844e-07
            4e-07   2.502840033e-07
            5e-07   2.520031284e-07
            6e-07   2.535766221e-07
            7e-07   2.551231108e-07
            8e-07   2.565770533e-07
            9e-07   2.579053476e-07
            1e-06   2.592133078e-07
          1.1e-06   2.604498415e-07
          1.2e-06    2.61620179e-07
          1.3e-06   2.626501426e-07
          1.4e-06   2.636083456e-07
          1.5e-06   2.645464505e-07
          1.6e-06    2.65456113e-07
          1.7e-06   2.662545288e-07
          1.8e-06   2.670400448e-07
          1.9e-06   2.677562638e-07
            2e-06   2.683989863e-07
          2.1e-06   2.690401771e-07
          2.2e-06   2.696128801e-07
          2.3e-06   2.702094782e-07
          2.4e-06   2.707568397e-07
          2.5e-06   2.711996169e-07
          2.6e-06   2.716275361e-07
          2.7e-06   2.720741301e-07
          2.8e-06   2.724600007e-07
          2.9e-06   2.728071005e-07
            3e-06   2.731431344e-07
          3.1e-06   2.734298771e-07
          3.2e-06   2.737627529e-07
          3.3e-06   2.740640877e-07
          3.4e-06   2.743333352e-07
          3.5e-06   2.745621211e-07
          3.6e-06   2.748302743e-07
          3.7e-06    2.75090808e-07
          3.8e-06   2.753310653e-07
          3.9e-06   2.755635798e-07
            4e-06   2.757561009e-07
          4.1e-06   2.758085384e-07
          4.2e-06   2.759396121e-07
          4.3e-06   2.760909867e-07
          4.4e-06   2.762230977e-07
          4.5e-06   2.762973675e-07
          4.6e-06   2.763850284e-07
          4.7e-06   2.763591925e-07
          4.8e-06   2.763901828e-07
          4.9e-06   2.764378651e-07
            5e-06   2.765659607e-07
          5.1e-06   2.765723065e-07
          5.2e-06   2.767119629e-07
          5.3e-06   2.767569194e-07
          5.4e-06   2.768163269e-07
          5.5e-06   2.769016761e-07
          5.6e-06   2.769594142e-07
          5.7e-06   2.770225735e-07
          5.8e-06   2.771121928e-07
          5.9e-06   2.771665546e-07
            6e-06   2.771654605e-07
          6.1e-06   2.772142935e-07
          6.2e-06   2.772086202e-07
          6.3e-06    2.77232163e-07
          6.4e-06   2.772221715e-07
          6.5e-06   2.773298808e-07
          6.6e-06   2.773668579e-07
          6.7e-06   2.774375071e-07
          6.8e-06   2.774908111e-07
          6.9e-06   2.775023628e-07
            7e-06   2.775678653e-07
          7.1e-06   2.775557285e-07
          7.2e-06   2.775916013e-07
          7.3e-06    2.77658043e-07
          7.4e-06   2.777216746e-07
          7.5e-06   2.776376274e-07
          7.6e-06   2.776621091e-07
          7.7e-06   2.776726002e-07
          7.8e-06   2.776881332e-07
          7.9e-06   2.776731756e-07
            8e-06   2.776469336e-07
          8.1e-06   2.776562903e-07
          8.2e-06   2.775656197e-07
          8.3e-06    2.77528961e-07
          8.4e-06   2.775312491e-07
          8.5e-06   2.776154908e-07
          8.6e-06    2.77603282e-07
          8.7e-06   2.775855497e-07
          8.8e-06   2.775975821e-07
          8.9e-06    2.77545333e-07
            9e-06   2.775984721e-07
          9.1e-06    2.77635635e-07
          9.2e-06   2.777043993e-07
          9.3e-06   2.776986013e-07
          9.4e-06   2.776981383e-07
          9.5e-06    2.77643447e-07
          9.6e-06   2.775724753e-07
          9.7e-06    2.77596813e-07
          9.8e-06   2.776165319e-07
          9.9e-06   2.776755299e-07
            1e-05    2.77645438e-07
