# Probe 0 (5e-06 5e-06 5e-06)
#           Probe                 0
#            Time
            1e-07       301.1726303
            2e-07       301.1676923
            3e-07       301.1730071
            4e-07       301.1729175
            5e-07       301.1699342
            6e-07         301.17157
            7e-07       301.1704735
            8e-07       301.1731106
            9e-07       301.1676289
            1e-06       301.1737106
          1.1e-06       301.1735565
          1.2e-06       301.1718385
          1.3e-06       301.1737354
          1.4e-06        301.173517
          1.5e-06       301.1725447
          1.6e-06       301.1717873
          1.7e-06       301.1737146
          1.8e-06       301.1682304
          1.9e-06       301.1736964
            2e-06       301.1729953
          2.1e-06        301.173148
          2.2e-06       301.1736901
          2.3e-06       301.1711428
          2.4e-06       301.1730021
          2.5e-06       301.1733712
          2.6e-06       301.1714139
          2.7e-06       301.1724017
          2.8e-06       301.1689286
          2.9e-06       301.1727864
            3e-06       301.1710585
          3.1e-06        301.172855
          3.2e-06       301.1739449
          3.3e-06       301.1726046
          3.4e-06       301.1721676
          3.5e-06       301.1736785
          3.6e-06       301.1730616
          3.7e-06          301.1738
          3.8e-06       301.1729868
          3.9e-06       301.1690268
            4e-06        301.173981
          4.1e-06       301.1735945
          4.2e-06       301.1728769
          4.3e-06       301.1738225
          4.4e-06       301.1709988
          4.5e-06       301.1693945
          4.6e-06       301.1735933
          4.7e-06       301.1730729
          4.8e-06       301.1731666
          4.9e-06       301.1727413
            5e-06       301.1728873
          5.1e-06       301.1730052
          5.2e-06       301.1722234
          5.3e-06       301.1730497
          5.4e-06       301.1733808
          5.5e-06       301.1728721
          5.6e-06        301.172124
          5.7e-06       301.1739465
          5.8e-06       301.1716389
          5.9e-06       301.1731597
            6e-06       301.1737869
          6.1e-06       301.1727369
          6.2e-06       301.1705022
          6.3e-06       301.1714609
          6.4e-06        301.174006
          6.5e-06       301.1735998
          6.6e-06       301.1724513
          6.7e-06       301.1715488
          6.8e-06       301.1729561
          6.9e-06       301.1721996
            7e-06       301.1720796
          7.1e-06       301.1731866
          7.2e-06       301.1706229
          7.3e-06       301.1736529
          7.4e-06        301.172854
          7.5e-06       301.1733465
          7.6e-06       301.1736627
          7.7e-06       301.1736121
          7.8e-06       301.1728539
          7.9e-06       301.1725086
            8e-06       301.1705676
          8.1e-06       301.1717048
          8.2e-06       301.1704963
          8.3e-06       301.1728835
          8.4e-06       301.1735232
          8.5e-06       301.1734771
          8.6e-06       301.1730434
          8.7e-06       301.1736082
          8.8e-06       301.1730028
          8.9e-06       301.1737456
            9e-06       301.1731565
          9.1e-06       301.1715049
          9.2e-06       301.1711299
          9.3e-06       301.1730496
          9.4e-06       301.1730678
          9.5e-06        301.173958
          9.6e-06       301.1734235
          9.7e-06       301.1735703
          9.8e-06       301.1730047
          9.9e-06       301.1737883
            1e-05       301.1731955
