# Probe 0 (5e-06 5e-06 5e-06)
#           Probe                 0
#            Time
            1e-07       491.4385751
            2e-07       476.3661102
            3e-07       462.5140178
            4e-07       449.3586116
            5e-07       437.6823889
            6e-07       427.3284829
            7e-07        417.451213
            8e-07       408.4259955
            9e-07       400.3946309
            1e-06       392.6796989
          1.1e-06       385.5575441
          1.2e-06       378.9659596
          1.3e-06       373.2820577
          1.4e-06       368.0902948
          1.5e-06       363.0952644
          1.6e-06         358.33297
          1.7e-06       354.2177628
          1.8e-06       350.2269892
          1.9e-06       346.6375309
            2e-06       343.4557923
          2.1e-06       340.3182153
          2.2e-06       337.5462514
          2.3e-06        334.688816
          2.4e-06       332.0939616
          2.5e-06       330.0134286
          2.6e-06       328.0182928
          2.7e-06        325.952267
          2.8e-06       324.1803471
          2.9e-06       322.5968197
            3e-06       321.0730507
          3.1e-06       319.7799606
          3.2e-06       318.2870488
          3.3e-06       316.9431604
          3.4e-06       315.7484175
          3.5e-06        314.737673
          3.6e-06       313.5581926
          3.7e-06        312.417556
          3.8e-06       311.3703212
          3.9e-06       310.3610436
            4e-06       309.5284836
          4.1e-06       309.3022048
          4.2e-06       308.7375049
          4.3e-06       308.0869591
          4.4e-06       307.5206111
          4.5e-06        307.202799
          4.6e-06       306.8282169
          4.7e-06       306.9385561
          4.8e-06       306.8062094
          4.9e-06       306.6027193
            5e-06       306.0568961
          5.1e-06       306.0298884
          5.2e-06       305.4362644
          5.3e-06       305.2454807
          5.4e-06       304.9936011
          5.5e-06       304.6321906
          5.6e-06       304.3880049
          5.7e-06       304.1211747
          5.8e-06       303.7430637
          5.9e-06       303.5139952
            6e-06       303.5186037
          6.1e-06       303.3130142
          6.2e-06       303.3368902
          6.3e-06       303.2378263
          6.4e-06       303.2798639
          6.5e-06       302.8270845
          6.6e-06       302.6718395
          6.7e-06       302.3755043
          6.8e-06       302.1521645
          6.9e-06       302.1037911
            7e-06       301.8296808
          7.1e-06       301.8804461
          7.2e-06       301.7304292
          7.3e-06       301.4528234
          7.4e-06       301.1872607
          7.5e-06       301.5380894
          7.6e-06        301.435845
          7.7e-06       301.3920438
          7.8e-06        301.327207
          7.9e-06       301.3896417
            8e-06       301.4992182
          8.1e-06       301.4601423
          8.2e-06       301.8390728
          8.3e-06        301.992447
          8.4e-06        301.982871
          8.5e-06       301.6305774
          8.6e-06       301.6816016
          8.7e-06       301.7557298
          8.8e-06       301.7054273
          8.9e-06        301.923937
            9e-06        301.701707
          9.1e-06       301.5464123
          9.2e-06       301.2593289
          9.3e-06       301.2835218
          9.4e-06       301.2854539
          9.5e-06       301.5137808
          9.6e-06       301.8104011
          9.7e-06       301.7086422
          9.8e-06       301.6262268
          9.9e-06       301.3798136
            1e-05       301.5054649
