/*--------------------------------*- C++ -*----------------------------------*\
| =========                 |                                                 |
| \\      /  F ield         | OpenFOAM: The Open Source CFD Toolbox           |
|  \\    /   O peration     | Version:  v1706                                 |
|   \\  /    A nd           | Web:      www.OpenFOAM.com                      |
|    \\/     M anipulation  |                                                 |
\*---------------------------------------------------------------------------*/
FoamFile
{
    version     2.0;
    format      ascii;
    class       vectorField;
    location    "1e-06/lagrangian/dsmc";
    object      U;
}
// * * * * * * * * * * * * * * * * * * * * * * * * * * * * * * * * * * * * * //


138
(
(4.796309008 -155.0127865 436.88863)
(-19.42577092 -481.6223381 -225.079505)
(-13.64749216 -440.7790601 373.3918054)
(-10.67024899 -77.55859271 -1197.401744)
(-18.50613056 406.7692851 331.0593087)
(-12.47728274 -395.9941 -59.93004836)
(0.5252939843 848.302762 -550.3303312)
(-13.11666437 -249.1868772 76.36577701)
(3.562229902 861.8561456 1140.490882)
(-15.65040054 269.257022 993.0650942)
(-13.36395199 1663.400549 -360.6114463)
(5.766466699 -520.0172133 -446.6608249)
(-13.66156615 106.0627239 197.3369343)
(-17.91105243 -1267.808671 259.9910701)
(5.244637913 -8.260146208 346.6016627)
(-12.96480855 796.4880218 1154.381488)
(-14.28716678 32.62100045 -406.3697495)
(4.483627295 1001.921141 189.4994755)
(-15.83719822 -966.2067296 266.1480902)
(-15.4192564 347.9747067 -578.4762692)
(6.588289808 -428.7222768 -505.2491903)
(-11.07576994 17.24704602 146.7484534)
(-0.1010826804 967.9375865 -11.99205639)
(-13.06814782 472.3082652 -408.6592065)
(-16.22114285 14.19830445 1248.981533)
(3.941903756 492.8808261 132.4729274)
(-15.36573543 -1020.25863 -4.730560599)
(-6.894855424 559.0831057 -634.4637021)
(-4.083977353 1095.942087 516.2996594)
(-5.925514365 911.1829767 98.1647767)
(-8.39512432 -503.0041976 239.2266363)
(-7.56283263 -372.5631727 -661.7551546)
(-2.104258702 1113.689965 528.7409823)
(-1.208063761 196.6227118 950.2434725)
(-11.19841264 1105.264045 89.86949729)
(-7.955816453 -586.1811121 -97.37719321)
(-10.42003063 -767.9271601 145.6058115)
(-4.488718739 -483.5155044 1767.984004)
(-8.570423823 409.5002499 232.6975681)
(-0.6157835379 -192.1316874 34.5747887)
(-3.268411866 -793.7925982 303.5009387)
(0.2025452005 918.7015111 380.9171608)
(-7.92333169 -381.6180398 232.8089388)
(-7.135850646 -809.1339119 449.4634732)
(-9.533274163 759.9954319 -153.7787011)
(-10.77260076 -789.605688 105.6001471)
(-7.94536195 1530.618542 1650.608975)
(-7.54171353 -8.328631299 -472.3374159)
(-8.718061154 203.0448855 -668.4461437)
(-0.1613282397 500.0434292 -1842.902812)
(-5.35295045 -264.0180611 -88.56316242)
(-3.194084011 -86.2456735 597.1953208)
(-4.430516027 -1897.277839 1035.151912)
(-7.9888457 881.3365967 -519.711576)
(1.234553229 504.5700306 669.6799814)
(-5.664900534 868.7136658 863.7336332)
(-4.328458403 -619.3091401 954.6506702)
(-14.23901156 929.2136606 -174.6303723)
(5.912146843 142.8191478 368.6265072)
(-10.86056987 580.4986712 -649.4603766)
(-8.07140247 21.53990513 885.1013931)
(2.681415763 -96.52051195 710.8092132)
(-16.74795751 223.6227585 -157.8588429)
(-12.88813848 -854.1816287 1090.925781)
(0.2749139598 439.8834336 -309.6118015)
(-15.01849884 729.3297318 450.004679)
(4.481756878 -91.79018519 203.7123777)
(-14.85733536 -835.2210389 -58.55875898)
(3.042945232 560.3652848 369.7884017)
(-9.01999905 -77.00519878 -1053.707015)
(-9.27181835 -490.4921757 928.450082)
(5.854422624 -644.6467322 332.0806606)
(-8.463424746 893.2814883 -805.6451722)
(-16.35440114 -80.37141133 679.2545993)
(-2.744292501 378.1897192 1058.698272)
(-7.651939402 630.3142095 235.6534201)
(-8.931003991 757.1607324 91.17644274)
(10.56525358 277.3623505 165.5066055)
(6.811327862 155.1298585 -761.2455607)
(3.216372373 -478.4693131 1475.62384)
(-4.220674567 -1349.979051 -490.132543)
(-1.93318375 -84.14481506 -102.1574429)
(-0.673769341 -429.6810928 208.1752424)
(3.729852466 1078.373065 383.0475227)
(-5.776214477 -142.8776971 -167.3456368)
(-11.95452428 339.5261978 709.7634039)
(-17.10617943 589.5777255 1029.524856)
(-8.619187075 1132.866079 519.6955427)
(-142.9867467 1045.476938 -540.7577766)
(-6.414509643 -124.9913567 747.1309114)
(-8.234719689 -845.3282873 416.9727073)
(-1.729367695 330.1638785 1663.082893)
(3.120519059 -325.0033764 685.9212951)
(-1.579529347 -783.3610396 -892.0356618)
(-7.919486688 -564.4944305 290.6470096)
(2.493362202 177.4691624 -1016.383909)
(-7.834354335 -3070.664315 343.2584522)
(-7.305713551 -1123.403016 727.9138074)
(-17.60466716 -642.3444765 -416.5638314)
(2.203058318 1532.880956 -992.7071176)
(-10.39192554 678.863668 -208.8477866)
(-1.353229672 -992.7027353 501.9870552)
(3.214438736 66.07934962 -450.4273811)
(2.310597355 -395.6860681 101.16439)
(-9.004080331 231.2567832 385.7735548)
(-17.96769175 -126.8579996 1052.662185)
(-9.554040485 -959.1817526 585.3471154)
(-7.565231261 922.5206258 805.3938198)
(-13.26916687 -555.6659158 -61.11318097)
(-14.63934174 566.540833 -735.692875)
(-13.03956207 -578.2629277 362.2157761)
(8.791274366 -296.4484756 -540.766387)
(-4.456258705 456.9852877 80.20541406)
(-3.646968332 -716.126498 482.7851265)
(-1.212990417 -96.25791005 -1001.928486)
(-5.480906034 201.7878143 -705.9392732)
(324.8704605 -263.1513015 -0.1360033843)
(-8.068294707 -525.9991054 1911.018018)
(3.180940058 -374.5083038 -526.5049873)
(5.204302365 266.2682427 130.5785863)
(-6.655338699 -1224.403727 -287.9121041)
(-9.23941474 -757.0420633 -462.5130488)
(0.2855513204 140.833682 234.67258)
(-9.714312823 304.163393 -1565.41325)
(125.4806522 -1654.549493 -316.1340155)
(-2.386293339 521.1065956 -62.31256859)
(-12.87582404 -229.6376946 51.40748158)
(-2.721636908 -1306.535921 -204.7477504)
(-7.936187968 178.7029939 1816.971203)
(-13.07931985 792.8945145 -442.2032124)
(5.141126363 1296.627364 -565.5374098)
(-10.10443244 601.3442771 113.9714847)
(840.4094865 -158.8270588 -897.2063745)
(-8.734623563 653.4073295 -246.1755967)
(564.0302913 -230.8607199 -218.7743458)
(-12.63817754 -670.6192081 -750.6955844)
(0.681247017 57.98409166 -43.27976656)
(-8.103171132 -383.8002364 233.0751664)
)


// ************************************************************************* //
