/*--------------------------------*- C++ -*----------------------------------*\
| =========                 |                                                 |
| \\      /  F ield         | OpenFOAM: The Open Source CFD Toolbox           |
|  \\    /   O peration     | Version:  v1706                                 |
|   \\  /    A nd           | Web:      www.OpenFOAM.com                      |
|    \\/     M anipulation  |                                                 |
\*---------------------------------------------------------------------------*/
FoamFile
{
    version     2.0;
    format      ascii;
    class       volScalarField;
    location    "0.008";
    object      dsmcSigmaTcRMax;
}
// * * * * * * * * * * * * * * * * * * * * * * * * * * * * * * * * * * * * * //

dimensions      [0 3 -1 0 0 0 0];


internalField   nonuniform List<scalar> 
4000
(
5.181809008e-16
5.475686269e-16
5.671130451e-16
5.396925539e-16
5.466022337e-16
5.371633969e-16
5.527857093e-16
5.611537613e-16
5.456842657e-16
5.586688174e-16
5.721149302e-16
5.782242841e-16
5.5769469e-16
5.964758641e-16
5.713975147e-16
5.96548866e-16
5.781873441e-16
5.964165723e-16
5.896230515e-16
6.091191752e-16
5.902250863e-16
5.930147623e-16
6.044701666e-16
6.260318192e-16
6.348104887e-16
6.010643463e-16
6.125496555e-16
6.099499907e-16
6.094590948e-16
6.185688604e-16
6.311459299e-16
6.078823836e-16
6.480730154e-16
6.017916376e-16
6.048008489e-16
6.273953547e-16
6.071919067e-16
6.389481613e-16
5.862848632e-16
5.941096863e-16
5.457568758e-16
5.736444276e-16
5.476307857e-16
5.633179213e-16
5.78889036e-16
5.519530346e-16
5.633376068e-16
5.802918712e-16
5.506131724e-16
5.652810588e-16
5.63789392e-16
5.553116263e-16
5.539993242e-16
5.892241951e-16
5.749537197e-16
5.622023594e-16
5.709368896e-16
5.825288364e-16
5.657437023e-16
5.881450592e-16
5.835906447e-16
5.823188687e-16
6.427141087e-16
6.04723103e-16
5.92549886e-16
6.01115673e-16
6.14915896e-16
6.012070434e-16
6.107984631e-16
6.099912774e-16
6.119961026e-16
6.229893926e-16
6.275107893e-16
6.013152391e-16
5.980639535e-16
5.890498008e-16
5.944558532e-16
5.914528774e-16
5.761862081e-16
5.791881881e-16
5.486550868e-16
5.452941932e-16
5.321840305e-16
5.540063141e-16
5.543909206e-16
5.524436182e-16
5.540973359e-16
5.475674534e-16
5.555341512e-16
5.500143546e-16
5.712290436e-16
5.63332004e-16
5.715829194e-16
5.652072204e-16
5.581410285e-16
5.627172199e-16
5.578751172e-16
5.83147011e-16
5.885908504e-16
5.749310851e-16
5.872981208e-16
5.70226404e-16
5.80535319e-16
5.90366133e-16
6.000091446e-16
5.849380828e-16
5.895156687e-16
5.896172665e-16
6.065476829e-16
5.988600848e-16
5.993909085e-16
6.142315552e-16
6.162143522e-16
6.010043134e-16
6.143236675e-16
5.9913066e-16
5.938041086e-16
5.919666453e-16
5.847572031e-16
5.947527236e-16
5.266881969e-16
5.676548094e-16
5.484957112e-16
5.648830233e-16
5.355194481e-16
5.582147671e-16
5.448995661e-16
5.403512156e-16
5.436156604e-16
5.477277207e-16
5.574122279e-16
5.569571384e-16
5.698475078e-16
5.717706999e-16
5.717699719e-16
5.792749111e-16
5.872487171e-16
5.895470907e-16
6.112751918e-16
5.64290655e-16
5.647160301e-16
5.775416133e-16
5.686189683e-16
5.868500082e-16
5.884365531e-16
5.821551999e-16
6.223642283e-16
6.088755466e-16
6.032694615e-16
6.071508838e-16
5.986813808e-16
6.183658737e-16
6.014905491e-16
6.065305835e-16
5.9289423e-16
5.911364502e-16
6.08981294e-16
5.891831804e-16
5.761233619e-16
5.746909277e-16
5.756637209e-16
5.464864706e-16
5.351668169e-16
5.57852433e-16
5.543272658e-16
5.424886498e-16
5.558390883e-16
5.567070744e-16
5.486961899e-16
5.906322824e-16
5.554586591e-16
5.678019866e-16
5.765832597e-16
5.708420547e-16
5.672985797e-16
5.719878377e-16
5.868558412e-16
5.66976245e-16
5.673442264e-16
5.695472637e-16
5.977980122e-16
5.836469365e-16
5.7834187e-16
5.746464484e-16
6.000847717e-16
6.047090128e-16
5.959471096e-16
5.878564058e-16
6.096452418e-16
6.059719463e-16
6.141462071e-16
6.137618911e-16
5.936100246e-16
6.116765827e-16
5.937350772e-16
6.182167203e-16
5.92878009e-16
5.801479978e-16
5.763383039e-16
5.743423997e-16
5.484234807e-16
5.594466416e-16
5.961049564e-16
5.331356036e-16
5.691865016e-16
5.488473742e-16
5.65731871e-16
6.03806241e-16
5.729820155e-16
5.665213027e-16
5.740164388e-16
5.704262831e-16
5.666602356e-16
5.582282644e-16
5.704702777e-16
5.642257963e-16
5.839465951e-16
5.793508562e-16
5.864959679e-16
5.728635758e-16
5.893648778e-16
5.987528249e-16
5.91635989e-16
5.801304136e-16
5.986226743e-16
5.963582828e-16
5.951529058e-16
5.954643886e-16
5.930939243e-16
5.82417721e-16
6.118427307e-16
6.117433624e-16
6.041555249e-16
6.05303408e-16
5.982209047e-16
5.960694521e-16
5.862106432e-16
5.842467836e-16
5.650089728e-16
5.635902098e-16
5.278840982e-16
5.329313375e-16
5.219846118e-16
5.505842589e-16
5.362450302e-16
5.574051436e-16
5.730134001e-16
5.690879398e-16
5.660932774e-16
5.609517473e-16
5.513432949e-16
5.618773074e-16
5.697062689e-16
5.786429123e-16
5.494530662e-16
5.558730844e-16
5.831128617e-16
5.664490705e-16
5.659878983e-16
5.797795197e-16
5.74675209e-16
5.809851538e-16
5.656692579e-16
5.77868953e-16
5.768692414e-16
5.963910907e-16
5.865972466e-16
5.864002595e-16
5.891352395e-16
5.965774524e-16
6.00606862e-16
5.962687126e-16
6.003456673e-16
6.122404715e-16
5.901947959e-16
6.158335744e-16
5.963742836e-16
5.998168127e-16
6.107091136e-16
5.692237623e-16
5.349893481e-16
5.61143502e-16
5.577555373e-16
5.414940555e-16
5.563456943e-16
5.473714868e-16
5.614514995e-16
5.650438802e-16
5.688694077e-16
5.598173053e-16
5.649712225e-16
5.797138794e-16
5.53003558e-16
5.638504244e-16
5.623023938e-16
5.507746317e-16
5.796155963e-16
5.647257881e-16
5.787622652e-16
5.71953969e-16
5.687462653e-16
5.849259716e-16
5.767417608e-16
5.742977246e-16
5.877270623e-16
5.80431402e-16
5.872377175e-16
5.918591235e-16
5.913289337e-16
5.903155475e-16
6.196330689e-16
6.14910094e-16
6.096402368e-16
6.151579083e-16
5.908370957e-16
5.903585497e-16
5.947551249e-16
5.721720319e-16
5.718155252e-16
5.66209843e-16
5.677904834e-16
5.071825805e-16
5.438892958e-16
5.76495468e-16
5.508341137e-16
5.617778834e-16
5.504754931e-16
5.436904614e-16
5.586044398e-16
5.525708361e-16
5.637121691e-16
5.81822535e-16
5.405275841e-16
5.686148216e-16
5.647133687e-16
5.553166629e-16
5.649275405e-16
5.629319796e-16
5.729459023e-16
5.769884119e-16
5.771944926e-16
5.743251834e-16
5.801734678e-16
5.858106513e-16
5.894729342e-16
5.957982255e-16
5.886719342e-16
5.800767249e-16
5.892713549e-16
6.008201568e-16
5.975704048e-16
5.987398847e-16
5.924990282e-16
5.963923538e-16
6.039551476e-16
6.030683237e-16
6.012048939e-16
5.821263112e-16
5.688831581e-16
5.812116542e-16
5.115936919e-16
5.535249031e-16
5.558848077e-16
5.552666761e-16
5.414021261e-16
5.781445455e-16
5.714213604e-16
5.728718229e-16
5.477890774e-16
5.605408365e-16
5.574307408e-16
5.83645905e-16
5.741108024e-16
5.584957647e-16
5.650620404e-16
5.686633089e-16
5.699661802e-16
5.695882265e-16
5.784945693e-16
5.606836404e-16
5.734321837e-16
5.866334987e-16
5.969952805e-16
5.834327757e-16
5.830962049e-16
5.793713504e-16
6.035612255e-16
5.870704198e-16
5.915689085e-16
5.937103582e-16
5.968824397e-16
6.18159432e-16
5.93646635e-16
6.00593828e-16
6.010893534e-16
5.924714358e-16
5.865565331e-16
5.911376985e-16
6.03777535e-16
5.694491714e-16
5.272115348e-16
5.275127835e-16
5.397154131e-16
5.403114458e-16
5.393133504e-16
5.809120509e-16
5.535582888e-16
5.67630847e-16
5.536029513e-16
5.501930423e-16
5.305534107e-16
5.559625316e-16
5.600328896e-16
5.632635676e-16
5.716427242e-16
5.603288996e-16
5.677073574e-16
5.72133697e-16
5.826074322e-16
5.708659742e-16
5.866797995e-16
5.63309664e-16
5.676202871e-16
5.674492684e-16
5.803108615e-16
5.781038297e-16
5.917467436e-16
5.90888061e-16
5.760122546e-16
5.954360099e-16
5.97613647e-16
5.909350264e-16
6.270278795e-16
6.027770215e-16
5.93825499e-16
6.029387924e-16
5.901739227e-16
5.866304732e-16
5.962004846e-16
5.637607624e-16
5.418350033e-16
5.289304861e-16
5.262375353e-16
5.398358648e-16
5.50454298e-16
5.532984788e-16
5.56858599e-16
5.733350681e-16
5.405058414e-16
5.45839908e-16
5.44694913e-16
5.732312767e-16
5.626223454e-16
5.797155055e-16
5.970138524e-16
5.529912934e-16
5.518952127e-16
5.678311818e-16
5.695696387e-16
5.590623172e-16
5.83216057e-16
5.731966416e-16
5.619476617e-16
5.889141872e-16
5.765993614e-16
5.8658703e-16
5.744147423e-16
5.905337616e-16
5.913629672e-16
5.931990043e-16
6.010978689e-16
5.974289648e-16
5.975346816e-16
5.914988426e-16
5.845906689e-16
6.093689796e-16
6.009989646e-16
5.889171471e-16
6.081305111e-16
5.586252597e-16
5.313462286e-16
5.359695853e-16
5.292922642e-16
5.618939741e-16
5.597107317e-16
5.361255083e-16
5.529938354e-16
5.614102004e-16
5.419056033e-16
5.709719486e-16
5.433505622e-16
5.675934456e-16
5.519434224e-16
5.730250494e-16
5.877926255e-16
5.663729398e-16
5.84571261e-16
5.609495532e-16
5.756149878e-16
5.624035399e-16
5.751039033e-16
5.710732317e-16
5.941436838e-16
5.849800508e-16
5.806541357e-16
5.78524134e-16
5.914375891e-16
5.763785869e-16
6.070670764e-16
5.980762081e-16
5.874396676e-16
5.879453785e-16
6.031014088e-16
5.984106974e-16
5.855182803e-16
5.880365826e-16
5.971865916e-16
5.978113856e-16
5.751870227e-16
5.604633841e-16
5.228054012e-16
5.329525571e-16
5.355529364e-16
5.311260992e-16
5.537836654e-16
5.430316779e-16
5.619266148e-16
5.585740262e-16
5.698057137e-16
5.579509843e-16
5.510457341e-16
5.695202543e-16
5.488533965e-16
5.486545399e-16
5.637191914e-16
5.713433266e-16
5.664402389e-16
5.625110833e-16
5.900225688e-16
5.75506576e-16
5.836302673e-16
5.681868639e-16
5.709555396e-16
5.662350248e-16
5.722151785e-16
5.780899581e-16
5.770134611e-16
5.938505985e-16
5.956082223e-16
6.169074245e-16
6.207557096e-16
5.976980811e-16
6.030251317e-16
5.974723364e-16
5.925090804e-16
5.969655938e-16
5.964637377e-16
5.776635102e-16
5.83962738e-16
5.575163599e-16
5.33550048e-16
5.101268408e-16
5.313945511e-16
5.228950422e-16
5.400298566e-16
5.43438728e-16
5.597854358e-16
5.547711161e-16
5.479438204e-16
5.410060931e-16
5.702348117e-16
5.627368238e-16
5.666171172e-16
5.519773895e-16
5.652538993e-16
5.620580828e-16
5.582568143e-16
5.638004278e-16
5.695226675e-16
5.727270282e-16
5.7090395e-16
5.778351367e-16
5.746113204e-16
5.855192382e-16
5.789524387e-16
5.832786624e-16
5.756872127e-16
5.833978562e-16
5.777450292e-16
6.039617706e-16
6.385156956e-16
5.89346203e-16
6.010295196e-16
5.969516978e-16
5.931662746e-16
5.834789595e-16
6.040657839e-16
5.823226312e-16
5.768947077e-16
5.703549883e-16
5.247829755e-16
5.312545717e-16
5.139726137e-16
5.489438441e-16
5.152236503e-16
5.44411088e-16
5.53928607e-16
5.579131098e-16
5.498606019e-16
5.387771296e-16
5.614424038e-16
5.427451021e-16
5.390764531e-16
5.568811098e-16
5.574315068e-16
5.571540255e-16
5.774611416e-16
5.566574745e-16
5.821352153e-16
5.675237295e-16
5.809101646e-16
5.620972026e-16
5.837301368e-16
5.726587009e-16
5.708292751e-16
5.775499183e-16
5.77671537e-16
5.926793255e-16
5.889251988e-16
5.885151908e-16
5.991531628e-16
5.983264028e-16
6.053638978e-16
5.999955402e-16
5.855670166e-16
5.937947945e-16
5.852632539e-16
5.941812624e-16
5.884349323e-16
5.627480941e-16
5.207750141e-16
5.472878288e-16
5.262575401e-16
5.128100683e-16
5.214177238e-16
5.340417539e-16
5.374569119e-16
5.419938884e-16
5.411296007e-16
5.535331876e-16
5.431901742e-16
5.444910692e-16
5.579732123e-16
5.421789854e-16
5.551892113e-16
5.598306385e-16
5.67136392e-16
5.620180145e-16
5.647978779e-16
5.715841534e-16
5.59507982e-16
5.593984588e-16
5.773289479e-16
5.572363359e-16
5.718789962e-16
5.711137355e-16
5.674454566e-16
5.829680008e-16
5.966954544e-16
5.9356364e-16
5.872857366e-16
5.884779971e-16
5.848583102e-16
6.004914488e-16
5.995358009e-16
5.990515819e-16
5.906631918e-16
5.812022437e-16
5.749663943e-16
5.711996789e-16
5.214161693e-16
5.534487233e-16
5.23310922e-16
5.252834557e-16
5.521381274e-16
5.569366539e-16
5.686445746e-16
5.343748447e-16
5.605271896e-16
5.875916853e-16
5.429168799e-16
5.45925061e-16
5.552475603e-16
5.533649366e-16
5.648026025e-16
5.7929092e-16
5.67036195e-16
5.631506547e-16
5.647190916e-16
5.685160668e-16
5.715109155e-16
5.607842703e-16
5.805713974e-16
5.757996241e-16
6.00100553e-16
5.918910251e-16
5.832641324e-16
5.935377477e-16
6.000387009e-16
5.861336411e-16
6.024318093e-16
5.97930745e-16
5.957264032e-16
6.001594368e-16
5.852636806e-16
5.853400185e-16
5.950616069e-16
5.822420376e-16
5.781733925e-16
5.565619555e-16
5.657108396e-16
5.006985616e-16
5.444696453e-16
5.36039356e-16
5.478831336e-16
5.358402923e-16
5.468924829e-16
5.530579657e-16
5.44178147e-16
5.512817363e-16
5.461163967e-16
5.519400912e-16
5.358591915e-16
5.423771638e-16
5.520677786e-16
5.633549105e-16
5.468058252e-16
5.565965849e-16
5.557539438e-16
5.545370572e-16
5.55472702e-16
5.683332993e-16
5.74942274e-16
5.674743211e-16
5.721691785e-16
5.773593783e-16
5.937267199e-16
5.879370463e-16
5.899356921e-16
5.910782153e-16
5.871279549e-16
5.777051592e-16
6.008277154e-16
6.010191157e-16
5.956807436e-16
5.906652296e-16
5.932861574e-16
5.721633769e-16
5.750983432e-16
5.704559991e-16
5.110303075e-16
5.202380778e-16
5.547416348e-16
5.132345954e-16
5.287394258e-16
5.302491354e-16
5.521361433e-16
5.327062489e-16
5.497831717e-16
5.796200163e-16
5.407182423e-16
5.491535321e-16
5.521107345e-16
5.548908855e-16
5.481510581e-16
5.703617115e-16
5.618281916e-16
5.766003274e-16
5.54688028e-16
5.486223395e-16
5.720238657e-16
5.66341444e-16
5.672857415e-16
6.025366578e-16
5.618770186e-16
5.711523494e-16
5.767971605e-16
6.040776696e-16
5.730619346e-16
5.897467432e-16
5.766661761e-16
5.877157688e-16
5.76474914e-16
5.908704937e-16
5.910613857e-16
5.826964999e-16
5.777648261e-16
5.803557571e-16
5.736324237e-16
5.62656171e-16
5.396660913e-16
5.405705444e-16
5.441171915e-16
5.226823647e-16
5.526351594e-16
5.616053652e-16
5.371553709e-16
5.448713678e-16
5.527522346e-16
5.546008846e-16
5.418274612e-16
5.475162425e-16
5.413926222e-16
5.451256107e-16
5.429675506e-16
5.523234757e-16
5.617996919e-16
5.648428243e-16
5.664367693e-16
5.565047162e-16
5.576377071e-16
5.704882568e-16
5.675782923e-16
5.787403399e-16
5.701346529e-16
5.704239498e-16
5.683767612e-16
5.651192163e-16
5.756680143e-16
5.791348304e-16
5.86188105e-16
5.938485394e-16
5.810473543e-16
5.791790866e-16
5.828948833e-16
5.797341186e-16
5.70786775e-16
5.742372003e-16
5.823360922e-16
5.63140157e-16
5.124105212e-16
5.318317374e-16
5.304054194e-16
5.4990731e-16
5.542249438e-16
5.660583665e-16
5.446717741e-16
5.465416384e-16
5.474547887e-16
5.300192337e-16
5.648135962e-16
5.247408805e-16
5.809998293e-16
5.466850399e-16
5.454557155e-16
5.55396327e-16
5.526562878e-16
5.526546289e-16
5.756916258e-16
5.646568336e-16
5.479264719e-16
5.577483386e-16
5.547581945e-16
5.59584257e-16
5.763058061e-16
5.760261229e-16
5.677634054e-16
5.729668153e-16
5.782921655e-16
5.850638484e-16
5.979948508e-16
5.890042962e-16
5.776672171e-16
5.838126792e-16
5.968668169e-16
5.83945565e-16
5.749207886e-16
5.928407987e-16
5.603082021e-16
5.463372681e-16
5.171696305e-16
5.370688996e-16
5.548769832e-16
5.616622547e-16
5.388049477e-16
5.402007933e-16
5.316361932e-16
5.230674553e-16
5.423418037e-16
5.485961454e-16
5.293530113e-16
5.486945877e-16
5.604631947e-16
5.36873303e-16
5.511292392e-16
5.546376898e-16
5.547306668e-16
5.697954488e-16
5.516700112e-16
5.474568352e-16
5.542192301e-16
5.666694682e-16
5.567721483e-16
5.627122457e-16
5.74726697e-16
5.581608544e-16
5.684524154e-16
5.640924491e-16
5.85974984e-16
5.879851847e-16
5.790735607e-16
5.669167597e-16
5.76579592e-16
5.788017852e-16
5.829707978e-16
5.685950471e-16
5.628146764e-16
5.775813721e-16
5.739114048e-16
5.710812476e-16
5.294941766e-16
5.291294474e-16
5.152714149e-16
5.426708806e-16
5.037548123e-16
5.446502954e-16
5.399376335e-16
5.291074819e-16
5.655773507e-16
5.348405558e-16
5.453571223e-16
5.505263741e-16
5.493773278e-16
5.507490061e-16
5.50695937e-16
5.598578537e-16
5.560057772e-16
5.578344183e-16
5.702569924e-16
5.617537562e-16
5.488829561e-16
5.722824654e-16
5.703296841e-16
5.725842822e-16
5.755976169e-16
5.76597442e-16
5.748248985e-16
5.678271405e-16
5.595129672e-16
5.828846905e-16
6.126058976e-16
5.852894192e-16
5.733472825e-16
5.748759551e-16
5.741445585e-16
5.795237233e-16
5.788539912e-16
5.562708387e-16
5.815023234e-16
5.814874178e-16
5.032144944e-16
5.27551021e-16
5.460642075e-16
5.560240636e-16
5.18337227e-16
5.514370039e-16
5.385261047e-16
5.401663206e-16
5.337574298e-16
5.531920933e-16
5.407103935e-16
5.678359031e-16
5.425314154e-16
5.420853078e-16
5.375755308e-16
5.472187245e-16
5.509217678e-16
5.569560347e-16
5.655024248e-16
5.625830638e-16
5.550246768e-16
5.625558756e-16
5.572336538e-16
5.57101062e-16
5.519278773e-16
5.671597498e-16
5.699554698e-16
5.647689602e-16
5.537226575e-16
5.91314812e-16
5.789492967e-16
5.770283096e-16
5.8520312e-16
5.816569753e-16
5.776317804e-16
5.747633841e-16
5.627983641e-16
5.676035646e-16
5.771164388e-16
5.472687834e-16
5.279266068e-16
5.29474218e-16
4.989140262e-16
5.272488998e-16
5.121785057e-16
5.212387996e-16
5.362754531e-16
5.549243585e-16
5.663978424e-16
5.619162789e-16
5.481087137e-16
5.534131682e-16
5.262664261e-16
5.56309811e-16
5.491607734e-16
5.512069634e-16
5.586396244e-16
5.437639556e-16
5.560194313e-16
5.739453684e-16
5.845152282e-16
5.442245978e-16
5.708495784e-16
5.568550742e-16
5.762185224e-16
5.56338835e-16
5.586678562e-16
5.643697851e-16
5.74586498e-16
5.646677926e-16
5.842521676e-16
5.705090555e-16
5.897383324e-16
5.621030461e-16
5.69738209e-16
5.673249931e-16
5.514672782e-16
5.554163498e-16
5.588806401e-16
5.568475748e-16
5.281432352e-16
5.125193642e-16
5.066370218e-16
5.536884032e-16
5.378676796e-16
5.280329094e-16
5.239376719e-16
5.545137241e-16
5.562036545e-16
5.521328154e-16
5.269617432e-16
5.674032271e-16
5.453856826e-16
5.444626332e-16
5.48802829e-16
5.467288782e-16
5.69992373e-16
5.406707268e-16
5.513476092e-16
5.563116084e-16
5.388497293e-16
5.414642084e-16
5.71599166e-16
5.65765025e-16
5.516848825e-16
5.571196875e-16
5.695462734e-16
5.651657786e-16
5.658714463e-16
5.684634451e-16
5.564494592e-16
5.550848861e-16
5.629301823e-16
5.808795542e-16
5.740496384e-16
5.610289672e-16
5.693224834e-16
5.605480374e-16
5.509314144e-16
5.531690313e-16
5.211625856e-16
5.089270136e-16
5.563668139e-16
5.169206468e-16
5.164670015e-16
5.472043602e-16
5.300960546e-16
5.277231908e-16
5.365590885e-16
5.449664749e-16
5.564769102e-16
5.525377916e-16
5.378473469e-16
5.389201835e-16
5.329942472e-16
5.669465363e-16
5.416487476e-16
5.671153132e-16
5.386051817e-16
5.661660205e-16
5.438689603e-16
5.477086455e-16
5.727037905e-16
5.448710774e-16
5.611668333e-16
5.883679309e-16
5.629852962e-16
5.558406415e-16
5.551432985e-16
5.688104475e-16
5.621567313e-16
5.594892781e-16
5.592145994e-16
5.51782734e-16
5.613036038e-16
5.851285615e-16
5.5116977e-16
5.570027823e-16
5.493146699e-16
5.47357101e-16
5.085124935e-16
5.192585228e-16
5.544194513e-16
5.254177403e-16
5.389152143e-16
5.295181342e-16
5.23009319e-16
5.437660765e-16
5.328298554e-16
5.584080046e-16
5.33211521e-16
5.481740307e-16
5.61812712e-16
5.474991449e-16
5.523372909e-16
5.580876826e-16
5.428640287e-16
5.332099821e-16
5.565008503e-16
5.421405319e-16
5.686247436e-16
5.382237967e-16
5.426373344e-16
5.459690409e-16
5.535352183e-16
5.519830395e-16
5.675735969e-16
5.508194113e-16
5.59090425e-16
5.616990872e-16
5.525050601e-16
5.61162604e-16
5.506636583e-16
5.682378091e-16
5.81365592e-16
5.540803937e-16
5.570171352e-16
5.639109696e-16
5.538913115e-16
5.442503726e-16
5.007262604e-16
5.291331465e-16
5.562327804e-16
5.085691247e-16
5.23802301e-16
5.445969437e-16
5.263995184e-16
5.591330806e-16
5.495716422e-16
5.384786346e-16
5.261477004e-16
5.384843386e-16
5.589934817e-16
5.270252269e-16
5.446866844e-16
5.588575103e-16
5.50676897e-16
5.508880194e-16
5.617762408e-16
5.370101006e-16
5.509443906e-16
5.493241918e-16
5.566169127e-16
5.478091209e-16
5.555887547e-16
5.531197843e-16
5.52837358e-16
5.543332922e-16
5.639988536e-16
5.517211072e-16
5.662231475e-16
5.548148056e-16
5.569740861e-16
5.497017818e-16
5.572318246e-16
5.532557023e-16
5.581669485e-16
5.550920865e-16
5.54107607e-16
5.49285162e-16
5.23043276e-16
5.028641933e-16
5.173651757e-16
5.322079136e-16
5.13264259e-16
5.257401845e-16
5.217560323e-16
5.462715855e-16
5.291453787e-16
5.390329038e-16
5.898371605e-16
5.41753086e-16
5.251796994e-16
5.37640594e-16
5.440993683e-16
5.364708208e-16
5.397948601e-16
5.572805031e-16
5.532238568e-16
5.374628047e-16
5.428036105e-16
5.293078836e-16
5.461493229e-16
5.668760845e-16
5.514031269e-16
5.530893657e-16
5.46567233e-16
5.500128836e-16
5.758276494e-16
5.726514506e-16
5.544105326e-16
5.542527382e-16
5.495275401e-16
5.531653881e-16
5.478122232e-16
5.643982657e-16
5.453896966e-16
5.483723307e-16
5.49751607e-16
5.35959713e-16
5.629761045e-16
4.929530305e-16
5.330499008e-16
5.211645034e-16
5.0775817e-16
5.298155701e-16
5.2972003e-16
5.242803634e-16
5.301643482e-16
5.385976935e-16
5.310774304e-16
5.342847663e-16
5.283904619e-16
5.459872156e-16
5.425910935e-16
5.309318727e-16
5.504918392e-16
5.516676414e-16
5.416157691e-16
5.529215896e-16
5.58202163e-16
5.460891933e-16
5.448783288e-16
5.465813294e-16
5.455218578e-16
5.483994131e-16
5.532928959e-16
5.386209848e-16
5.538139101e-16
5.485090115e-16
5.570975136e-16
5.367318949e-16
5.495533087e-16
5.639032966e-16
5.485750619e-16
5.358683916e-16
5.494334229e-16
5.632045195e-16
5.469161228e-16
5.394505494e-16
5.367670207e-16
4.901512539e-16
5.259830367e-16
5.314545864e-16
5.27532285e-16
5.347881121e-16
5.120718052e-16
5.285687422e-16
5.251592808e-16
5.280044136e-16
5.137300336e-16
5.529526377e-16
5.416395125e-16
5.351644571e-16
5.433748567e-16
5.363149838e-16
5.418995577e-16
5.318142269e-16
5.337763032e-16
5.368642252e-16
5.389935346e-16
5.493278531e-16
5.53436341e-16
5.412016017e-16
5.449040332e-16
5.425230208e-16
5.466558007e-16
5.469251621e-16
5.574235442e-16
5.644147069e-16
5.447946202e-16
5.489539427e-16
5.452445619e-16
5.524623913e-16
5.423844889e-16
5.471400488e-16
5.482326251e-16
5.572359616e-16
5.407708243e-16
5.347221277e-16
5.369322224e-16
5.044154669e-16
5.104253438e-16
5.149732699e-16
5.047613345e-16
5.301480399e-16
5.503948971e-16
5.25048653e-16
5.2424029e-16
5.342836708e-16
5.586965348e-16
5.39620785e-16
5.423791216e-16
5.523842427e-16
5.342119071e-16
5.270963526e-16
5.536368694e-16
5.551500442e-16
5.404090967e-16
5.393824417e-16
5.366133258e-16
5.45993336e-16
5.333654852e-16
5.378616129e-16
5.455103478e-16
5.400377028e-16
5.681131237e-16
5.415370322e-16
5.488685297e-16
5.551044598e-16
5.356637943e-16
5.417389063e-16
5.599646195e-16
5.606046236e-16
5.471572427e-16
5.48211979e-16
5.405899113e-16
5.422954831e-16
5.568417528e-16
5.440113142e-16
5.134113282e-16
5.289336991e-16
5.315050636e-16
5.292709861e-16
5.537341403e-16
5.215751651e-16
5.267297623e-16
5.284020668e-16
5.284171304e-16
5.511566429e-16
5.320392125e-16
5.39333447e-16
5.250551318e-16
5.152374862e-16
5.302896048e-16
5.28182697e-16
5.392077711e-16
5.512440174e-16
5.404366418e-16
5.360676376e-16
5.450601986e-16
5.384102021e-16
5.407086042e-16
5.538240402e-16
5.493052508e-16
5.431111392e-16
5.395209516e-16
5.349460812e-16
5.413910173e-16
5.484431667e-16
5.426898048e-16
5.430748185e-16
5.380929705e-16
5.450247336e-16
5.554726646e-16
5.414924969e-16
5.377967174e-16
5.4104512e-16
5.383317186e-16
5.368234715e-16
4.960149955e-16
5.086426423e-16
4.95748865e-16
5.164506781e-16
5.265354099e-16
5.155960155e-16
4.998451572e-16
5.144229286e-16
5.150050288e-16
5.243555633e-16
5.149589545e-16
5.368179808e-16
5.265292395e-16
5.316163551e-16
5.313734569e-16
5.361890029e-16
5.322994842e-16
5.648851026e-16
5.333714336e-16
5.445384619e-16
5.379455596e-16
5.305944432e-16
5.365483837e-16
5.533214781e-16
5.617279114e-16
5.402068358e-16
5.442249126e-16
5.39736186e-16
5.498654845e-16
5.332304488e-16
5.370123041e-16
5.347344145e-16
5.380612646e-16
5.531924534e-16
5.522108836e-16
5.273081883e-16
5.315656027e-16
5.431985338e-16
5.330755434e-16
5.431835413e-16
5.217789905e-16
4.873522161e-16
5.015489796e-16
5.005550265e-16
5.246521786e-16
5.355446847e-16
5.249435475e-16
5.172876749e-16
5.443170482e-16
5.355096283e-16
5.555863598e-16
5.590149971e-16
5.206078596e-16
5.315895406e-16
5.233468864e-16
5.773953252e-16
5.29435954e-16
5.329951494e-16
5.219887166e-16
5.301695036e-16
5.355701738e-16
5.377004584e-16
5.558348151e-16
5.340218065e-16
5.199574764e-16
5.345316856e-16
5.501932026e-16
5.400202543e-16
5.660501786e-16
5.393961099e-16
5.255360346e-16
5.307821843e-16
5.544314965e-16
5.673555605e-16
5.357785784e-16
5.470508006e-16
5.375238775e-16
5.33873492e-16
5.289735075e-16
5.320266321e-16
4.98127596e-16
5.249180047e-16
5.015429537e-16
5.148351899e-16
5.149857313e-16
5.099354638e-16
5.110790841e-16
5.356826883e-16
5.33281057e-16
5.186144262e-16
5.049418666e-16
5.663084011e-16
5.275417737e-16
5.422968888e-16
5.46233067e-16
5.339720877e-16
5.253367925e-16
5.398112641e-16
5.365564308e-16
5.354422455e-16
5.550338072e-16
5.347359922e-16
5.448859965e-16
5.44877391e-16
5.420354798e-16
5.386735913e-16
5.368843632e-16
5.375048886e-16
5.349626547e-16
5.39548878e-16
5.329450708e-16
5.275640068e-16
5.29577199e-16
5.282962589e-16
5.363140184e-16
5.324225326e-16
5.214192817e-16
5.409196998e-16
5.284486355e-16
5.24052293e-16
5.031777774e-16
5.216175363e-16
5.208927852e-16
5.202660444e-16
5.340897465e-16
5.098845004e-16
5.153477955e-16
5.539781516e-16
5.469387232e-16
5.462533675e-16
5.306042094e-16
5.284979637e-16
5.202039235e-16
5.147417601e-16
5.108265916e-16
5.175406782e-16
5.363285685e-16
5.178246128e-16
5.336537098e-16
5.329304894e-16
5.558281709e-16
5.295767861e-16
5.297180402e-16
5.353435156e-16
5.244060295e-16
5.270992639e-16
5.384157317e-16
5.300651888e-16
5.359797186e-16
5.32025133e-16
5.290891443e-16
5.360437999e-16
5.419245444e-16
5.355532064e-16
5.500406025e-16
5.281420137e-16
5.296410491e-16
5.280519381e-16
5.185713648e-16
5.234919734e-16
4.870403936e-16
4.934424492e-16
5.014736381e-16
4.91140395e-16
4.954480173e-16
5.176543244e-16
5.035156589e-16
4.734943188e-16
5.019938515e-16
5.084913664e-16
5.243750943e-16
5.426219839e-16
5.163896807e-16
5.316491156e-16
5.206551829e-16
5.379500182e-16
5.440572463e-16
5.355188468e-16
5.229472086e-16
5.168080333e-16
5.35567638e-16
5.411324078e-16
5.149106633e-16
5.455117397e-16
5.629963803e-16
5.529688788e-16
5.278436505e-16
5.308051395e-16
5.338883655e-16
5.228545469e-16
5.283054282e-16
5.246281367e-16
5.629371723e-16
5.3398609e-16
5.327779121e-16
5.253824466e-16
5.237081186e-16
5.221402816e-16
5.325875012e-16
5.404042051e-16
4.93169241e-16
4.973822469e-16
5.216138551e-16
5.132197336e-16
5.095431364e-16
5.216869441e-16
5.193095344e-16
5.270237857e-16
5.09891447e-16
5.153560449e-16
5.29692963e-16
5.211820837e-16
5.56514629e-16
5.212018711e-16
5.230121289e-16
5.314734601e-16
5.183803602e-16
5.437031737e-16
5.355826427e-16
5.384998886e-16
5.341884713e-16
5.259894261e-16
5.43731789e-16
5.365109975e-16
5.228122619e-16
5.333210051e-16
5.338514125e-16
5.329482375e-16
5.167488e-16
5.327427548e-16
5.255555242e-16
5.219632644e-16
5.276777063e-16
5.242002025e-16
5.176004049e-16
5.267124835e-16
5.313255471e-16
5.204786218e-16
5.157521334e-16
5.212389465e-16
5.292134463e-16
4.813306524e-16
5.906668652e-16
4.883161066e-16
4.975099681e-16
4.738915074e-16
4.870222583e-16
5.295165431e-16
5.161940338e-16
5.039169695e-16
5.467895468e-16
5.199817812e-16
5.157252911e-16
5.303218345e-16
5.207060258e-16
5.162031454e-16
5.250366732e-16
5.090367663e-16
5.345342386e-16
5.244189268e-16
5.342964678e-16
5.259191458e-16
5.398833756e-16
5.322783814e-16
5.236459988e-16
5.50687144e-16
5.118871384e-16
5.406457333e-16
5.181687364e-16
5.301445304e-16
5.234884607e-16
5.299108114e-16
5.350376737e-16
5.170183021e-16
5.259894412e-16
5.277483696e-16
5.227159778e-16
5.121132888e-16
5.191258614e-16
5.194201288e-16
4.82704234e-16
5.01420277e-16
5.10389317e-16
4.941315773e-16
5.180805125e-16
5.431844234e-16
4.976723256e-16
5.183416877e-16
5.232733517e-16
5.09140314e-16
5.272869074e-16
5.337292484e-16
5.273857817e-16
5.284599076e-16
5.38117036e-16
5.363038484e-16
5.414097682e-16
5.274842161e-16
5.248834547e-16
5.330494732e-16
5.353005684e-16
5.200458606e-16
5.221808298e-16
5.315301002e-16
5.359569197e-16
5.352613093e-16
5.179411735e-16
5.25166352e-16
5.379094905e-16
5.503443241e-16
5.338386034e-16
5.324444295e-16
5.269983255e-16
5.122743502e-16
5.176873327e-16
5.112403735e-16
5.292010194e-16
5.205186625e-16
5.256954255e-16
5.083091775e-16
4.853783548e-16
5.012120053e-16
5.757740502e-16
5.007192922e-16
5.189302059e-16
4.876178699e-16
4.766530643e-16
4.924553786e-16
5.157440425e-16
5.155854093e-16
5.010394959e-16
5.040848556e-16
5.271428248e-16
5.093266783e-16
5.337308981e-16
5.31156737e-16
5.410499326e-16
5.370348944e-16
5.31434606e-16
5.2820966e-16
5.294341131e-16
5.192620455e-16
5.222013206e-16
5.2346984e-16
5.262814376e-16
5.235735299e-16
5.152986886e-16
5.151633022e-16
5.215541041e-16
5.20816171e-16
5.322811027e-16
5.317281661e-16
5.146318748e-16
5.180862601e-16
5.255686349e-16
5.426985729e-16
5.269601023e-16
5.272744937e-16
5.141496069e-16
5.223711449e-16
4.384651599e-16
4.388494794e-16
4.894263085e-16
4.712322076e-16
4.73348123e-16
4.711255435e-16
5.291779976e-16
4.857426075e-16
5.019072365e-16
4.996409872e-16
5.158584914e-16
5.072679078e-16
5.005016707e-16
5.225870888e-16
5.477202294e-16
5.134473176e-16
5.376877519e-16
5.202612723e-16
5.303434292e-16
5.494433302e-16
5.275851366e-16
5.233976602e-16
5.303714986e-16
5.22559837e-16
5.354513824e-16
5.101924433e-16
5.245355312e-16
5.23329348e-16
5.275298781e-16
5.239000626e-16
5.187719936e-16
5.469125078e-16
5.150353111e-16
5.345098487e-16
5.177946847e-16
5.077274371e-16
5.121155139e-16
5.249337098e-16
5.013748469e-16
5.278541849e-16
4.8487508e-16
4.616552875e-16
4.828564213e-16
5.507428257e-16
4.726554655e-16
4.992517538e-16
5.125130246e-16
5.117635058e-16
5.042320323e-16
5.195988572e-16
4.810170547e-16
5.166003475e-16
5.038406953e-16
5.333090863e-16
4.984714103e-16
5.04585619e-16
5.242549054e-16
5.277125447e-16
5.11413167e-16
5.168293834e-16
5.293152805e-16
5.325886653e-16
5.110348602e-16
5.236380773e-16
5.414581388e-16
5.362791885e-16
5.242929306e-16
5.361850361e-16
5.377159463e-16
5.183155983e-16
5.407202272e-16
5.179669386e-16
5.306427956e-16