/*--------------------------------*- C++ -*----------------------------------*\
| =========                 |                                                 |
| \\      /  F ield         | OpenFOAM: The Open Source CFD Toolbox           |
|  \\    /   O peration     | Version:  v1706                                 |
|   \\  /    A nd           | Web:      www.OpenFOAM.com                      |
|    \\/     M anipulation  |                                                 |
\*---------------------------------------------------------------------------*/
FoamFile
{
    version     2.0;
    format      ascii;
    class       volScalarField;
    location    "0.008";
    object      mfpCellRatio_Ar;
}
// * * * * * * * * * * * * * * * * * * * * * * * * * * * * * * * * * * * * * //

dimensions      [0 0 0 0 0 0 0];


internalField   nonuniform List<scalar> 
4000
(
1.906202462
1.914572439
1.923077968
1.929861609
1.945086762
1.958499531
1.975896343
1.987003137
2.013972598
2.03976511
2.065981027
2.115012996
2.153339426
2.20006839
2.242559609
2.300837081
2.354534866
2.410320231
2.45918774
2.490788627
2.506772809
2.484744261
2.431041525
2.331693437
2.185608925
2.003117966
1.79769324
1.592861013
1.416619329
1.262531127
1.13829372
1.036451881
0.9515388985
0.8756837585
0.7961264361
0.7161716771
0.626366974
0.5292088051
0.4215601183
0.3036046913
1.916103638
1.921355929
1.923644486
1.931986995
1.941887239
1.954620438
1.975579149
1.990714642
2.016291336
2.04698042
2.077207431
2.123811942
2.171771297
2.225001116
2.280327078
2.347084904
2.414628964
2.471915873
2.530070017
2.573868394
2.586501735
2.573101352
2.518022413
2.413172748
2.26010211
2.068219732
1.856421848
1.6415581
1.45397363
1.289257554
1.157624267
1.050899274
0.9645166648
0.8826089665
0.8023222886
0.7199495734
0.6302986732
0.5308276708
0.4231258497
0.3041059361
1.911251818
1.920371494
1.926538573
1.931455976
1.940350305
1.951897652
1.974331057
1.992606453
2.012059119
2.036694809
2.06809589
2.106503336
2.152204668
2.20888123
2.262418625
2.326849949
2.395696091
2.465310385
2.523851812
2.578201777
2.606376732
2.598866169
2.54613826
2.443840308
2.290166823
2.097610356
1.878306481
1.66431916
1.472691867
1.305732898
1.166422428
1.05935385
0.9710215444
0.8870551839
0.8060905303
0.7217337436
0.6315052473
0.531709289
0.4238602336
0.3049363169
1.909448969
1.914960059
1.925478505
1.930714287
1.937322794
1.949353133
1.963276021
1.98432982
2.005139541
2.027395713
2.054055569
2.090359629
2.145896462
2.194561466
2.251215238
2.316049285
2.389710753
2.464147219
2.527690097
2.575919783
2.600183032
2.59990973
2.556365165
2.462783426
2.308092843
2.111661099
1.895451738
1.682831072
1.481346529
1.311774533
1.174036696
1.062068337
0.9724810352
0.8891714387
0.8081238612
0.7242901626
0.6338423136
0.5328462766
0.4248742679
0.3055316727
1.908986404
1.916797991
1.924244363
1.932358169
1.942391551
1.950438979
1.967140478
1.982617549
2.007693009
2.03070706
2.059986809
2.095443384
2.141043527
2.188894656
2.242629583
2.305255104
2.367727127
2.438865328
2.503878392
2.560639431
2.595630675
2.594512221
2.555366769
2.464725814
2.318106033
2.130158254
1.916503401
1.695907903
1.493715962
1.321076987
1.182767369
1.069786064
0.9794308
0.8932507852
0.8104216457
0.7259725209
0.6352797855
0.5346676666
0.4258891552
0.3070120961
1.91018534
1.914720755
1.92171745
1.928224409
1.937034791
1.948821966
1.961800813
1.977832115
1.994112129
2.018993089
2.04873787
2.085396701
2.132906697
2.177718412
2.232869632
2.296888815
2.366170806
2.436576278
2.505738836
2.558808675
2.590788895
2.597830181
2.558417993
2.468803776
2.328768794
2.145315644
1.929562076
1.711874113
1.508887094
1.334373398
1.192205611
1.079441115
0.9813764501
0.8980267199
0.8152281164
0.7315929989
0.6374247371
0.5379883862
0.4281608302
0.3084387585
1.911311616
1.912511364
1.915411195
1.92394156
1.937279126
1.948668105
1.96204714
1.977798049
1.998942287
2.020455877
2.051757385
2.081399957
2.128581099
2.174432506
2.231509243
2.29547776
2.363115688
2.434471961
2.504735042
2.55705558
2.595723369
2.602450915
2.563769065
2.481506163
2.347837104
2.162868033
1.945193689
1.730661291
1.527001927
1.349534157
1.201432387
1.086191466
0.99117022
0.9041761412
0.8205240396
0.7351510514
0.6428658638
0.5402489216
0.4303411862
0.3093933942
1.911771903
1.916129037
1.921913034
1.928620104
1.933969392
1.943777531
1.957449939
1.974688475
1.995324945
2.017475635
2.044867357
2.077572742
2.115728454
2.167006944
2.217645834
2.274704902
2.348158312
2.417712075
2.488683501
2.546873549
2.587474369
2.598280961
2.571012041
2.489336918
2.35623238
2.177096799
1.966973332
1.74984204
1.545005259
1.363743076
1.214035229
1.098057394
0.9980509413
0.9107940325
0.8261597436
0.7395110659
0.6470939475
0.5431275348
0.4330102321
0.3106208698
1.9092255
1.91390077
1.922551013
1.928140037
1.933182041
1.943769855
1.957666418
1.969640931
1.990726674
2.013004752
2.041074473
2.069360394
2.108643575
2.158031434
2.210066064
2.275483415
2.340508019
2.41016238
2.476981175
2.534930023
2.578527572
2.591806304
2.567209311
2.494715781
2.366692377
2.200487677
1.989375078
1.776826377
1.567696551
1.381789127
1.229613213
1.110588696
1.007120055
0.9180797467
0.8333113769
0.7446116973
0.6496356748
0.5480605649
0.435964519
0.3128512474
1.908747287
1.91328526
1.919866244
1.926150387
1.935684879
1.945979676
1.958609755
1.9745013
1.98880187
2.011271669
2.035832826
2.067774414
2.102535517
2.153470004
2.203464042
2.261997989
2.328116208
2.394815426
2.460456765
2.522101764
2.570370069
2.591608059
2.573197666
2.504613953
2.387124235
2.219455167
2.016747276
1.798192409
1.589453764
1.404662753
1.248812444
1.122109159
1.019301128
0.9273854635
0.8391140169
0.7491973835
0.6565656751
0.5520238192
0.438982009
0.3145115697
1.908413846
1.911444247
1.914410203
1.922520741
1.93242512
1.942135524
1.953061213
1.969116927
1.98754413
2.014144408
2.043339579
2.069801907
2.109010089
2.148473061
2.200279301
2.259822284
2.319441338
2.389506052
2.453052958
2.516925124
2.564912431
2.583286623
2.573484548
2.513827283
2.404833883
2.247088932
2.049980916
1.829122455
1.621490167
1.430960197
1.268438354
1.13965665
1.032129843
0.9373854723
0.8500077284
0.759189202
0.6641457446
0.5580230557
0.4451375984
0.3180455412
1.907834784
1.910743471
1.916340634
1.922407568
1.931677262
1.943049027
1.951733311
1.96089118
1.982012799
2.009043308
2.029864822
2.059342432
2.09567381
2.145122872
2.194814499
2.257418386
2.318232803
2.385332615
2.452174365
2.511384061
2.561320953
2.59562624
2.585358332
2.526202086
2.423814793
2.274309002
2.080976558
1.864711173
1.65011534
1.454613702
1.291202021
1.157625546
1.04727184
0.9516228414
0.8600660934
0.7696886738
0.6727007915
0.5663733893
0.4498854257
0.3212985026
1.905737284
1.910749728
1.914403727
1.921046579
1.930129655
1.942056029
1.953159074
1.96619245
1.978930878
1.998927275
2.023516737
2.052924956
2.087166748
2.123434802
2.17483581
2.230710644
2.292179678
2.358871705
2.420512558
2.485045971
2.539209269
2.572495291
2.576716744
2.537311023
2.441952147
2.299877628
2.11584168
1.89990142
1.687317624
1.48795563
1.317675658
1.179429288
1.065834923
0.9660998662
0.875879406
0.7817876805
0.6825591234
0.5750101525
0.4572779602
0.3254992927
1.904296459
1.909298261
1.915800181
1.923126668
1.928645804
1.937508632
1.943883893
1.953049715
1.970411045
1.987200255
2.013845746
2.040458297
2.078141541
2.115673183
2.1652325
2.225471515
2.281372817
2.345720762
2.412242526
2.476745792
2.532194864
2.566218803
2.57418073
2.541336957
2.458672365
2.328178585
2.145317578
1.939481943
1.725343572
1.521381972
1.347940055
1.20142731
1.085478042
0.9818584477
0.8904576311
0.7954101616
0.696284137
0.5856476144
0.4651486113
0.3306244942
1.90524343
1.91144546
1.915960298
1.920000905
1.928276876
1.935946152
1.945066031
1.957149059
1.973196003
1.990149519
2.018106744
2.043500294
2.078478092
2.117113374
2.156482048
2.213791238
2.275353478
2.33963338
2.406474555
2.472042487
2.52604437
2.567014593
2.582538696
2.555272863
2.477722349
2.356504928
2.185646502
1.984126309
1.769538133
1.563451404
1.382243208
1.234604314
1.109370548
1.003114699
0.9099069867
0.8103845594
0.710339804
0.5991522608
0.4751042594
0.3364970259
1.905505504
1.911680357
1.914435008
1.918636767
1.928375246
1.935389625
1.940991252
1.953127949
1.966680753
1.989519194
2.009324559
2.030500252
2.064890991
2.10906019
2.149448789
2.206924779
2.260967162
2.322801498
2.391749965
2.456567972
2.516583345
2.561144394
2.578745254
2.564156774
2.505312383
2.393978584
2.228040877
2.033899907
1.821288689
1.612141835
1.427203951
1.271481074
1.140589425
1.030209446
0.9307001751
0.8327551397
0.7290942956
0.6164930697
0.4881982844
0.3449319975
1.906519562
1.907189268
1.911023562
1.916305407
1.922758362
1.930217452
1.938935546
1.949553538
1.964860907
1.98222224
2.001385999
2.0256423
2.057584392
2.094996848
2.136592114
2.180915805
2.233636254
2.293943119
2.365630632
2.428736851
2.49138684
2.542447636
2.570259868
2.564043647
2.515683879
2.415963364
2.269489614
2.079422278
1.86963278
1.661289174
1.472052347
1.309473643
1.17366832
1.055834844
0.9561887781
0.8582204492
0.7538004335
0.6394331691
0.5076025341
0.3570294064
1.905920676
1.908616434
1.912069861
1.916722263
1.92102512
1.931079095
1.940812637
1.946288514
1.955107006
1.975342632
1.993184463
2.018741389
2.044966311
2.083763457
2.120103123
2.171469341
2.229199592
2.288114985
2.350245109
2.421530729
2.48036423
2.52797021
2.560916321
2.563186884
2.522967094
2.440986523
2.303967955
2.131766171
1.926050833
1.714948156
1.518942694
1.351845908
1.210033368
1.092442792
0.9898767708
0.8901169702
0.7855075794
0.6684840398
0.5332309643
0.3747167252
1.905213323
1.906571384
1.91067846
1.915812069
1.918386731
1.927728864
1.935167204
1.946560135
1.958238338
1.96982739
1.991328128
2.012204558
2.041217757
2.073352663
2.111420858
2.158821875
2.205220045
2.260740072
2.334146758
2.395561666
2.453791457
2.511446067
2.546563228
2.555234677
2.534234811
2.463593989
2.346316364
2.183667853
1.992644594
1.778538734
1.581139051
1.406112022
1.255080122
1.134075816
1.028146322
0.9280728237
0.8261141676
0.7091488672
0.5741412625
0.4032986732
1.904741534
1.908131051
1.91120679
1.915569327
1.921621528
1.93118983
1.939523163
1.952288398
1.963259241
1.975803271
1.994643438
2.018883482
2.044723097
2.07828974
2.108410387
2.145955769
2.192353992
2.253127275
2.312818487
2.376354734
2.436888702
2.490976126
2.535029908
2.557474241
2.544052055
2.487760975
2.386530609
2.238257546
2.052102705
1.848531374
1.644579562
1.467256621
1.308578531
1.180450772
1.072186484
0.9766749178
0.8791985921
0.7751765824
0.6498864296
0.4755598832
1.903556822
1.908664859
1.911676034
1.914421061
1.919549878
1.927105864
1.934467417
1.94527071
1.955304135
1.966560851
1.983644069
2.000164232
2.019802576
2.052973804
2.083964148
2.128002968
2.182892082
2.235376257
2.294691988
2.352568537
2.421988065
2.478958988
2.525033987
2.548216363
2.543101554
2.505856086
2.420838077
2.284400613
2.110887025
1.917017316
1.717140592
1.530144513
1.368168728
1.234549092
1.124396729
1.030225122
0.9441088055
0.8599834275
0.7809066319
0.7852246442
1.903534094
1.9051489
1.906757542
1.912223102
1.916032929
1.921330743
1.927212666
1.938276051
1.945759618
1.958784839
1.976679239
1.995789573
2.015943045
2.044288859
2.079048572
2.120906996
2.172901584
2.221783575
2.276666311
2.333458488
2.393439549
2.449585213
2.501604464
2.537573524
2.545192908
2.512620531
2.441540601
2.329420581
2.176824213
1.991698211
1.795448255
1.601013203
1.435703882
1.294883823
1.182965837
1.092444649
1.017337554
0.9557217797
0.9236816963
0.995365035
1.900060213
1.901742375
1.906428747
1.910507533
1.91435824
1.920406004
1.923686081
1.930484367
1.938508168
1.949803071
1.965661118
1.983188992
2.005208762
2.03167689
2.065805571
2.108197179
2.150490203
2.198130699
2.24960582
2.308684877
2.376299593
2.433491225
2.488487338
2.523311631
2.541415375
2.528623974
2.473183014
2.37635192
2.233233988
2.060685319
1.87444839
1.684901054
1.514190916
1.365407401
1.248726868
1.158432825
1.09017694
1.046756188
1.038396973
1.10720615
1.901327059
1.9050628
1.907807047
1.909481498
1.911963742
1.91701984
1.923684097
1.934123625
1.943187362
1.95490368
1.965593735
1.984120525
2.002847359
2.025783307
2.060257636
2.09548137
2.131753724
2.177176237
2.230060022
2.285140413
2.341046929
2.402217472
2.45240599
2.49621511
2.524349352
2.525496427
2.491960001
2.413303458
2.291858216
2.131243233
1.955327379
1.772361301
1.593249678
1.444643015
1.320000481
1.231087308
1.167300437
1.131384844
1.129384413
1.183411464
1.90297676
1.904711922
1.907571183
1.912749078
1.916404519
1.922080444
1.927814963
1.932276997
1.939685911
1.947162275
1.95859059
1.972977357
1.992032023
2.015177171
2.04798836
2.078169121
2.113719785
2.157347332
2.209245546
2.260958491
2.314552519
2.374546161
2.434646982
2.483580058
2.513977505
2.521288948
2.498444427
2.438545631
2.337251672
2.197342351
2.03057238
1.851243388
1.680446014
1.525940992
1.40039313
1.30354387
1.237047071
1.201339256
1.200992587
1.236903454
1.900392566
1.901787291
1.90313077
1.906924921
1.908580497
1.913018511
1.919410691
1.927762815
1.933285233
1.941764255
1.95159564
1.964429047
1.979747194
2.007625984
2.031335216
2.060575532
2.094935958
2.128853387
2.179694313
2.235266882
2.288815297
2.345757755
2.400956259
2.452766262
2.491659262
2.510629417
2.504714044
2.461088625
2.380686436
2.258034897
2.110229782
1.940111156
1.767685836
1.611588666
1.480219205
1.379519436
1.302942942
1.264601114
1.258307087
1.284838178
1.901049193
1.907160294
1.909092489
1.909957033
1.912789413
1.914368946
1.919232354
1.92433309
1.932166487
1.93799716
1.949053178
1.964928721
1.981568563
1.998275704
2.027718965
2.052788265
2.081241551
2.120923861
2.169098685
2.214042083
2.262255238
2.317192675
2.372224889
2.424718161
2.464753651
2.493365541
2.496371224
2.468751978
2.40828689
2.311451172
2.180557018
2.020348246
1.856955616
1.697399341
1.559805876
1.455745488
1.375204678
1.326421452
1.312040492
1.327281127
1.901667716
1.901982568
1.905432982
1.908710827
1.912965922
1.915160801
1.919255642
1.927138785
1.933791005
1.941373709
1.94771183
1.961021198
1.976543227
1.993691296
2.01446348
2.045190476
2.071505112
2.111495171
2.149478601
2.190429713
2.239638705
2.291004855
2.351181446
2.401091412
2.445998172
2.47731039
2.49034165
2.478259839
2.43083689
2.349377907
2.238267433
2.101570173
1.942617505
1.793420525
1.651213335
1.534874069
1.447700964
1.390679467
1.361296978
1.361252739
1.901505091
1.904157652
1.905559065
1.905887119
1.907285914
1.91276094
1.91697867
1.922117617
1.927601622
1.935222086
1.943339731
1.952735782
1.971318309
1.97920389
1.998569004
2.024866843
2.053477821
2.083495037
2.124685347
2.167373217
2.213454812
2.267121465
2.316992505
2.370086205
2.419647619
2.459881399
2.480467053
2.48191557
2.453601421
2.392015969
2.299127542
2.18063982
2.037414555
1.887538996
1.744159182
1.620203521
1.52147266
1.451266183
1.414527781
1.399055208
1.899488358
1.902088126
1.904787479
1.907542704
1.909160283
1.911992268
1.915600451
1.923615384
1.926242862
1.933300771
1.940613043
1.950631039
1.961798077
1.976042978
1.99773178
2.018888679
2.046880954
2.070374974
2.101360152
2.137938144
2.178694556
2.229877789
2.280587918
2.332543166
2.381599595
2.422744155
2.456932087
2.468777314
2.460595773
2.422276658
2.349146754
2.247765097
2.11828804
1.981086109
1.839645534
1.713868031
1.603645339
1.519621482
1.466733395
1.44117854
1.900291057
1.901574433
1.905524332
1.906255274
1.908655947
1.911040137
1.912718416
1.914774582
1.924389227
1.931866175
1.936913574
1.94601784
1.960598007
1.974567967
1.990349384
2.007129271
2.038510657
2.064043183
2.093248687
2.127417346
2.165470707
2.206763688
2.256648141
2.307781406
2.353512228
2.397920037
2.42948256
2.452215725
2.453244968
2.430098128
2.378981633
2.295509337
2.188399065
2.063562137
1.930706574
1.8026916
1.690523101
1.595202369
1.525913408
1.485661083
1.899936028
1.899540969
1.900694432
1.9024809
1.905741414
1.91220037
1.914801629
1.919393119
1.92360556
1.925697392
1.932159296
1.938085195
1.947528571
1.961187051
1.978977052
1.997337562
2.017032378
2.038557042
2.069264931
2.101015457
2.139915956
2.180388613
2.23082841
2.280190321
2.325840268
2.371847387
2.406132902
2.43551928
2.447986388
2.435655242
2.399365718
2.337442267
2.246733227
2.142061033
2.017304497
1.893294604
1.776791481
1.674920143
1.598765289
1.538794117
1.898942448
1.898957756
1.900104716
1.903314108
1.904646285
1.906111876
1.911330215
1.912705508
1.91604483
1.921454737
1.928198814
1.933105048
1.946510297
1.957177577
1.970311968
1.987148087
2.005284243
2.028414645
2.04970336
2.080156717
2.111423309
2.148132664
2.200400393
2.239860696
2.286872904
2.324765145
2.369880414
2.407697379
2.423524497
2.427056555
2.408985868
2.367746125
2.295676064
2.204952699
2.097595536
1.980330583
1.865289739
1.761519078
1.672964506
1.600753175
1.897328072
1.898275991
1.903365156
1.90423936
1.906572014
1.907353908
1.907043391
1.911767062
1.916337741
1.920610747
1.923180102
1.927540617
1.939858448
1.948857588
1.958413197
1.972054362
1.992072903
2.007445313
2.033891114
2.062061909
2.094530611
2.133119191
2.170155559
2.210785169
2.258995229
2.298501069
2.342956844
2.379183785
2.405136378
2.419071981
2.415786272
2.387405243
2.342239966
2.267030617
2.171654009
2.068497842
1.95794824
1.846601443
1.75019895
1.670797912
1.89734005
1.898806247
1.899429878
1.89920332
1.902005657
1.905565333
1.909449079
1.91275317
1.914953569
1.919058709
1.924154246
1.933182785
1.938763837
1.949497494
1.953456624
1.967370922
1.98589007
1.999573063
2.020624373
2.044668459
2.076271948
2.109212163
2.14123332
2.181285839
2.22025135
2.260994253
2.305612684
2.342770368
2.375237274
2.398420913
2.405800447
2.391155995
2.355309669
2.302454684
2.227086582
2.13676366
2.035973233
1.931111554
1.833026836
1.744828355
1.899043983
1.901186022
1.90168546
1.902418048
1.902151207
1.903308009
1.904596407
1.908158089
1.910071542
1.913345026
1.91903794
1.926611953
1.935735419
1.94623577
1.955528714
1.967816175
1.983268513
1.996721678
2.016186422
2.035926893
2.062443838
2.092252247
2.121983117
2.158164157
2.19488808
2.233236192
2.274797019
2.309249874
2.344519736
2.367073713
2.382203725
2.385977572
2.369642905
2.33135143
2.270237905
2.194797155
2.106042888
2.009610951
1.915802548
1.823482967
1.899534427
1.900683828
1.900461638
1.902524036
1.905525649
1.908102094
1.907580399
1.910046033
1.914703061
1.91499924
1.919722114
1.925047407
1.929760716
1.937203851
1.943683755
1.955245225
1.965094562
1.981943549
1.998433364
2.012412442
2.036680603
2.06872229
2.100604675
2.132352122
2.166467062
2.206537961
2.243452764
2.278091274
2.314436556
2.342362339
2.360096533
2.370126629
2.362048402
2.341507206
2.302666371
2.2447288
2.170119197
2.081105656
1.988858576
1.898495403
1.897579067
1.898312567
1.898856624
1.898612946
1.898372844
1.89997987
1.903296446
1.90798612
1.909605905
1.913398267
1.916462818
1.918972686
1.923415697
1.925967633
1.934567309
1.944699864
1.954128472
1.966054989
1.980394406
1.998560113
2.018947381
2.042854144
2.069392451
2.100904622
2.131104706
2.162873936
2.198736796
2.233822347
2.267646378
2.307084471
2.32910474
2.34978801
2.357055524
2.346289436
2.323228987
2.278400139
2.220047447
2.149074437
2.065429449
1.974858862
1.8976433
1.899086114
1.902090348
1.902922846
1.904009746
1.907344746
1.90801287
1.908161465
1.910210356
1.911441317
1.912161318
1.918535226
1.922183911
1.926878236
1.935968279
1.944605503
1.951017333
1.960385968
1.974959663
1.988982036
2.008540977
2.029356277
2.054304054
2.083242028
2.1086526
2.140424722
2.175017886
2.19956957
2.240042161
2.269608534
2.300068217
2.321639554
2.332723516
2.334396159
2.32094583
2.295249518
2.250937503
2.193855274
2.126092558
2.046397288
1.897538428
1.898935609
1.900391501
1.901196704
1.901819253
1.901575846
1.903782177
1.903300527
1.9062264
1.909680237
1.912809541
1.918018441
1.920817998
1.92988511
1.935596713
1.938928317
1.949817102
1.95938903
1.970861598
1.987069793
2.001815285
2.017916017
2.033793868
2.059043367
2.086898215
2.111084105
2.14891514
2.172997857
2.205721089
2.237282086
2.269648873
2.293076351
2.313239487
2.323126655
2.321150433
2.305006391
2.275740195
2.232725958
2.176489332
2.112553288
1.895937337
1.897530727
1.897278451
1.898390472
1.901032221
1.9025843
1.903634223
1.904787445
1.907020272
1.907701216
1.911613149
1.915770059
1.918498585
1.922434404
1.927577187
1.931365276
1.940043533
1.949418522
1.960712756
1.970585649
1.98410484
2.003949226
2.023795017
2.043004167
2.069218123
2.091668549
2.116241158
2.148059605
2.176336163
2.211680024
2.240315959
2.265377207
2.288450781
2.302884783
2.305839619
2.300887468
2.284983526
2.253608717
2.210327218
2.156941787
1.897741676
1.897421889
1.897489543
1.897622399
1.897290063
1.896214863
1.899210633
1.901911932
1.906108712
1.907546469
1.910044572
1.912336552
1.915115069
1.921223519
1.926448053
1.93227071
1.938634202
1.946341049
1.956719931
1.967501233
1.976131287
1.989454637
2.005196707
2.024455213
2.044303652
2.064751739
2.084814788
2.112138003
2.139705131
2.171089263
2.195100181
2.219778651
2.246027157
2.268555973
2.281174217
2.284820319
2.278871394
2.260463491
2.233302491
2.193084069
1.897185731
1.897073509
1.897833381
1.898278233
1.900609843
1.901283135
1.901657601
1.899969776
1.898395521
1.901639362
1.904251503
1.906916643
1.910367171
1.91467814
1.918582216
1.922995107
1.926885768
1.929532399
1.936046285
1.946690441
1.960907932
1.975121186
1.9858718
2.002989054
2.020738888
2.039564166
2.066060026
2.089615029
2.113864785
2.140428753
2.170379577
2.193730072
2.221928312
2.243325821
2.258795415
2.269141691
2.275572451
2.263753587
2.24575381
2.217565617
1.8957439
1.897162795
1.897522908
1.897561036
1.898013201
1.899129455
1.900221064
1.902906351
1.904629165
1.906179878
1.905971313
1.905771618
1.906533334
1.908460011
1.911103914
1.916590699
1.921732812
1.929103893
1.936624616
1.943052037
1.950327521
1.96411261
1.977801141
1.993679093
2.00581687
2.024109804
2.043486853
2.064206887
2.087165281
2.11410811
2.140496088
2.160570215
2.188600306
2.210862438
2.227119425
2.241641542
2.25111958
2.254748205
2.246002787
2.229340723
1.896228717
1.894329885
1.893975497
1.894198111
1.893026588
1.8950673
1.895678872
1.897280756
1.898439478
1.900771436
1.903279004
1.907840628
1.912996738
1.912044101
1.917370872
1.920920385
1.925009702
1.931215944
1.9359855
1.944253982
1.952438564
1.961148711
1.969629054
1.98095386
1.995252299
2.010912859
2.029602993
2.051261523
2.066821993
2.085937048
2.115071781
2.138101083
2.160684196
2.186395181
2.206608791
2.217717936
2.231121053
2.237854581
2.236701207
2.231772731
1.896687815
1.897919541
1.898709821
1.899389571
1.901653935
1.90031737
1.899930054
1.897665182
1.899061958
1.901865785
1.901800549
1.905203491
1.907331823
1.909634214
1.910594022
1.916782782
1.922472351
1.925005966
1.932173045
1.936953216
1.945972956
1.954726207
1.966312786
1.975986394
1.985652507
2.000275318
2.014666035
2.031035191
2.048373816
2.064311177
2.087391939
2.113123209
2.134748956
2.154124651
2.175209452
2.19208648
2.208105058
2.224363784
2.228573088
2.227093651
1.898287879
1.899090268
1.898763668
1.899571019
1.901828124
1.90380762
1.90694296
1.907042709
1.907914983
1.907335395
1.907238721
1.90697795
1.911416532
1.912368291
1.915530349
1.914484714
1.916550468
1.922431209
1.929128988
1.935753524
1.941127468
1.947726023
1.954482492
1.963889663
1.974217965
1.98460761
2.001995795
2.015009499
2.026279274
2.040406383
2.063908128
2.080944392
2.104729507
2.12520835
2.146501807
2.166518042
2.182083114
2.199542055
2.20742879
2.21481402
1.8957597
1.897564522
1.899120697
1.899803328
1.896544331
1.895267128
1.895919543
1.897075532
1.897410547
1.900557031
1.9022572
1.901737068
1.904115625
1.905687208
1.904195085
1.908248492
1.909083883
1.914057662
1.918482964
1.92303118
1.929289657
1.935544638
1.940599205
1.949460681
1.958628569
1.969852926
1.982594468
1.995955539
2.009256825
2.02770404
2.043707867
2.060936481
2.080638507
2.09715762
2.114975556
2.134843704
2.149469347
2.163332419
2.174290409
2.187151075
1.894987997
1.895286494
1.895753494
1.894996821
1.89748279
1.898875315
1.899106145
1.898516947
1.898539887
1.898236633
1.900208756
1.901225442
1.903359899
1.903960516
1.905381789
1.907894706
1.910715754
1.915214468
1.916760686
1.920828474
1.927946508
1.934044803
1.942094161
1.948620567
1.955992855
1.96675396
1.978855769
1.98742483
1.999885126
2.011915911
2.026649431
2.043036443
2.063423253
2.076231757
2.093780938
2.110355026
2.128458004
2.145829577
2.159200414
2.168278187
1.896915516
1.898393282
1.898046693
1.89832114
1.897857372
1.896604478
1.897393231
1.898764477
1.899727912
1.900560776
1.902265833
1.904508512
1.906676656
1.906922839
1.906328114
1.908899975
1.910325871
1.913742913
1.919033987
1.924093243
1.926190726
1.930378714
1.934101972
1.939475222
1.947319392
1.953307042
1.963536253
1.972962364
1.980352343
1.989286609
2.001074499
2.014251731
2.033492593
2.048608519
2.068575556
2.08824783
2.105215181
2.121445991
2.13577218
2.14969393
1.896083561
1.893589365
1.894186083
1.895266607
1.895517353
1.897366004
1.897592306
1.899583596
1.89969632
1.900867507
1.900651681
1.900226524
1.899992034
1.898861957
1.901496216
1.903608344
1.90445727
1.906781773
1.909568765
1.913677382
1.916949287
1.919912814
1.925666124
1.933927881
1.939879432
1.944048815
1.952451053
1.958407618
1.970095838
1.977265628
1.988677003
2.003366365
2.01900199
2.032351507
2.049763644
2.067094106
2.0779257
2.095169362
2.112118795
2.123340562
1.89743048
1.898149796
1.896439204
1.896998106
1.898067895
1.899145091
1.897820922
1.897026398
1.896095087
1.897022338
1.897964411
1.89805287
1.900355805
1.902283726
1.903877459
1.904845884
1.906483935
1.90664855
1.90848541
1.911358035
1.917217348
1.918283713
1.923135646
1.92579683
1.930077215
1.937549407
1.943676806
1.954367444
1.964208243
1.97510404
1.987891842
1.997073561
2.009695369
2.019199802
2.032481093
2.044262531
2.060976543
2.072788175
2.090892332
2.103651433
1.896992312
1.897938121
1.89857417
1.899657032
1.898864495
1.896268888
1.897187038
1.898567999
1.899543224
1.900167557
1.901874483
1.902723386
1.902755446
1.901310901
1.901073182
1.902643007
1.904623336
1.905096158
1.906424856
1.907426738
1.909978746
1.913138112
1.916046307
1.920975482
1.924425172
1.931266464
1.935870771
1.944189861
1.951048164
1.958266665
1.961285641
1.972755655
1.98394471
1.996498165
2.010107409
2.022092824
2.035288025
2.048345786
2.060941327
2.075676792
1.897032116
1.897534901
1.895922286
1.897201199
1.898446957
1.901386583
1.901242709
1.900663379
1.902456731
1.901798291
1.900445355
1.900790321
1.902738899
1.903177371
1.904771301
1.905339117
1.906418454
1.908605555
1.910887541
1.911754775
1.916637572
1.91842099
1.921667439
1.924290733
1.92808273
1.934268788
1.934276532
1.938177502
1.944470132
1.952258648
1.95941782
1.965035583
1.975381573
1.982776514
1.994162995
2.006983307
2.019856017
2.031812396
2.041539628
2.055737783
1.896636094
1.898345226
1.898054822
1.897277191
1.896199717
1.895531147
1.897037091
1.895916041
1.897933346
1.89849196
1.899467278
1.900228065
1.901292982
1.902870206
1.90577312
1.908220835
1.910808119
1.909671299
1.911544587
1.913772216
1.914293886
1.917149324
1.920696379
1.92353376
1.926974757
1.930197774
1.93744191
1.940614193
1.945150416
1.951336207
1.956374567
1.960285741
1.967557546
1.978136994
1.988613482
1.994541112
2.006979102
2.015833008
2.02665151
2.038310362
1.894731792
1.892945645
1.893792087
1.894610286
1.896962066
1.897348586
1.89702973
1.895774315
1.89494367
1.895261722
1.895810631
1.895911357
1.898704752
1.899674491
1.902562381
1.902820648
1.903969556
1.905342516
1.908530211
1.91156501
1.913506091
1.917310777
1.923065625
1.923916365
1.92384367
1.92705876
1.934501145
1.937562985
1.941635444
1.945085168
1.949578229
1.955938075
1.963550669
1.968902673
1.97692676
1.987623004
1.993702347
2.002530466
2.013156413
2.023958559
1.898890493
1.899353595
1.899385792
1.901210391
1.9003806
1.899572257
1.899483513
1.90050045
1.901263915
1.90197454
1.902799892
1.90223679
1.901339488
1.902503142
1.89955332
1.899124603
1.901253914
1.902364186
1.903640908
1.90799229
1.91081547
1.913058137
1.916140258
1.916705502
1.920703551
1.921500919
1.9258529
1.93052251
1.934032552
1.937400925
1.94274163
1.945980301
1.952390003
1.958454906
1.965651624
1.970352822
1.979131714
1.990218468
2.000234739
2.007170588
1.89535295
1.895610599
1.896251032
1.89697802
1.897086199
1.90000464
1.901423686
1.902285128
1.903363857
1.902850483
1.903047359
1.904545729
1.90570462
1.903681632
1.904868714
1.906307348
1.905346621
1.903947213
1.906358753
1.905636949
1.905475302
1.905674774
1.906799473
1.907454134
1.910073262
1.91268296
1.916461257
1.920715683
1.924485423
1.929749073
1.933002022
1.935670262
1.939940351
1.944602672
1.948991865
1.957083783
1.965273697
1.972916947
1.978930208
1.987478616
1.899031444
1.899661051
1.900869766
1.900022025
1.900054688
1.899617771
1.898585167
1.896421173
1.896225237
1.895480945
1.895467573
1.894415578
1.897181208
1.900191661
1.900918815
1.902949424
1.90296262
1.905654851
1.905163245
1.905927499
1.907840659
1.909664183
1.908997672
1.910275291
1.912591533
1.914568031
1.91831616
1.924435181
1.924708221
1.927278102
1.933451138
1.936101463
1.942297299
1.94836131
1.952030082
1.956603423
1.958621599
1.962880945
1.967788386
1.974753791
1.896707107
1.897366244
1.896991086
1.896371253
1.897726848
1.898969264
1.90075302
1.902618451
1.902680243
1.903033729
1.903574595
1.90514347
1.904268737
1.902973963
1.903651616
1.90367983
1.905366667
1.905426618
1.906890777
1.909884808
1.910107757
1.909203981
1.911710449
1.913635726
1.914953941
1.914944759
1.914502859
1.916318196
1.916464334
1.918898151
1.921853421
1.923335318
1.927285057
1.92953628
1.933907941
1.937851798
1.946701435
1.952550192
1.957680535
1.964530368
1.599722449
2.363633445
2.672979869
2.860794803
3.000345469
3.086512544
3.177199278
3.25466721
3.331026763
3.414127889
3.458310263
3.537275108
3.596809907
3.648152256
3.706984958
3.772093017
3.827790404
3.878550361
3.922912887
3.992083219
4.061482186
4.117318973
4.165561264
4.214250479
4.269722659
4.306330556
4.368151886
4.424748885
4.484481627
4.546073826
4.62563143
4.700068919
4.778469722
4.871197139
4.962587446
5.078374533
5.22366288