/*--------------------------------*- C++ -*----------------------------------*\
| =========                 |                                                 |
| \\      /  F ield         | OpenFOAM: The Open Source CFD Toolbox           |
|  \\    /   O peration     | Version:  v1706                                 |
|   \\  /    A nd           | Web:      www.OpenFOAM.com                      |
|    \\/     M anipulation  |                                                 |
\*---------------------------------------------------------------------------*/
FoamFile
{
    version     2.0;
    format      ascii;
    class       volScalarField;
    location    "0.008";
    object      surfaceShearStress_Ar;
}
// * * * * * * * * * * * * * * * * * * * * * * * * * * * * * * * * * * * * * //

dimensions      [1 -1 -2 0 0 0 0];


internalField   uniform 0;

boundaryField
{
    flow
    {
        type            calculated;
        value           uniform 0;
    }
    cylinder
    {
        type            calculated;
        value           nonuniform List<scalar> 
60
(
2.829680463
2.746286553
2.781820058
2.716441728
2.678780282
2.631699423
2.6463544
2.5960805
2.567459033
2.557855602
2.499412186
2.468204202
2.429680703
2.399925995
2.400780048
2.35140472
2.334847756
2.312676201
2.298482311
2.285795864
2.228333838
2.214685542
2.219958316
2.158088283
2.172265982
2.140374718
2.135450354
2.158076408
2.130506313
2.111248239
2.099229812
2.071324524
2.05358719
2.046339947
2.025939192
2.012769787
2.007921995
2.004320752
2.001261657
2.002268195
0.4887537855
0.792615369
0.7812037448
1.019301692
1.054407317
1.231696629
1.435339165
1.691294766
1.795583685
2.105165292
2.392338132
2.69172911
3.125271776
3.438683727
4.044872016
4.705931126
5.412731694
6.513454886
8.087405203
10.73600097
)
;
    }
    wedgeFront
    {
        type            symmetry;
    }
    wedgeBack
    {
        type            symmetry;
    }
    defaultFaces
    {
        type            empty;
    }
}


// ************************************************************************* //
