# Cp ()          
# Time           	patch            	min              	max              	average          
0.0014           	object	7.1662708254e-02	1.8757342802e+00	1.4311309979e+00
