# Probe 0 (5e-06 5e-06 5e-06)
#           Probe                 0
#            Time
            1e-08   1.005626991e-08
            2e-08   1.005843881e-08
            3e-08   1.006367809e-08
            4e-08   1.006636915e-08
            5e-08   1.006197292e-08
            6e-08   1.005793576e-08
            7e-08   1.006480701e-08
            8e-08   1.006159607e-08
            9e-08   1.006357912e-08
            1e-07    1.00644973e-08
          1.1e-07   1.006479852e-08
          1.2e-07   1.006557964e-08
          1.3e-07   1.006189091e-08
          1.4e-07    1.00615754e-08
          1.5e-07   1.005645817e-08
          1.6e-07   1.005854318e-08
          1.7e-07   1.006136366e-08
          1.8e-07   1.005924159e-08
          1.9e-07   1.005601188e-08
            2e-07   1.005376761e-08
          2.1e-07   1.005515833e-08
          2.2e-07   1.005594502e-08
          2.3e-07   1.005692643e-08
          2.4e-07   1.005504235e-08
          2.5e-07   1.005470225e-08
          2.6e-07   1.005593892e-08
          2.7e-07   1.005607498e-08
          2.8e-07   1.006015741e-08
          2.9e-07   1.005788258e-08
            3e-07   1.006177339e-08
          3.1e-07   1.005970321e-08
          3.2e-07   1.005536664e-08
          3.3e-07   1.005529213e-08
          3.4e-07   1.005533831e-08
          3.5e-07   1.005275617e-08
          3.6e-07   1.005041915e-08
          3.7e-07   1.005533076e-08
          3.8e-07   1.005313448e-08
          3.9e-07   1.005317039e-08
            4e-07   1.005693218e-08
          4.1e-07   1.005730171e-08
          4.2e-07   1.006036968e-08
          4.3e-07   1.006219122e-08
          4.4e-07   1.006161976e-08
          4.5e-07    1.00651002e-08
          4.6e-07   1.006133027e-08
          4.7e-07   1.005687447e-08
          4.8e-07   1.005784535e-08
          4.9e-07    1.00542222e-08
            5e-07   1.005535776e-08
          5.1e-07   1.005235595e-08
          5.2e-07   1.005058702e-08
          5.3e-07   1.005474163e-08
          5.4e-07   1.005593643e-08
          5.5e-07   1.005636013e-08
          5.6e-07   1.005224253e-08
          5.7e-07   1.005371389e-08
          5.8e-07   1.005475365e-08
          5.9e-07   1.005418003e-08
            6e-07   1.005337757e-08
          6.1e-07   1.005606642e-08
          6.2e-07   1.005810558e-08
          6.3e-07    1.00533868e-08
          6.4e-07   1.005400379e-08
          6.5e-07   1.005137549e-08
          6.6e-07   1.004587269e-08
          6.7e-07   1.004961476e-08
          6.8e-07   1.005376902e-08
          6.9e-07   1.005031437e-08
            7e-07    1.00515514e-08
          7.1e-07   1.005066197e-08
          7.2e-07   1.005197144e-08
          7.3e-07   1.004937812e-08
          7.4e-07   1.004817499e-08
          7.5e-07   1.005057624e-08
          7.6e-07    1.00476259e-08
          7.7e-07   1.005387032e-08
          7.8e-07   1.005423115e-08
          7.9e-07   1.005335503e-08
            8e-07   1.005440842e-08
          8.1e-07   1.005440315e-08
          8.2e-07   1.005350835e-08
          8.3e-07   1.005000281e-08
          8.4e-07   1.005239507e-08
          8.5e-07    1.00511207e-08
          8.6e-07   1.004933896e-08
          8.7e-07    1.00574641e-08
          8.8e-07   1.005572976e-08
          8.9e-07   1.005680982e-08
            9e-07   1.005563789e-08
          9.1e-07   1.005677782e-08
          9.2e-07   1.005283535e-08
          9.3e-07   1.005554174e-08
          9.4e-07   1.005365802e-08
          9.5e-07   1.005614192e-08
          9.6e-07   1.005266958e-08
          9.7e-07   1.005560425e-08
          9.8e-07   1.005676599e-08
          9.9e-07   1.005986918e-08
            1e-06   1.006188831e-08
         1.01e-06   1.005873077e-08
         1.02e-06   1.005897545e-08
         1.03e-06   1.006210315e-08
         1.04e-06   1.006148671e-08
         1.05e-06   1.005905075e-08
         1.06e-06   1.005913212e-08
         1.07e-06   1.005918728e-08
         1.08e-06   1.006045744e-08
         1.09e-06   1.005905818e-08
          1.1e-06   1.005901378e-08
         1.11e-06   1.005748825e-08
         1.12e-06   1.005907748e-08
         1.13e-06   1.006062965e-08
         1.14e-06   1.006315007e-08
         1.15e-06   1.006144865e-08
         1.16e-06   1.006548691e-08
         1.17e-06   1.006734727e-08
         1.18e-06   1.006027243e-08
         1.19e-06   1.005902289e-08
          1.2e-06   1.006149804e-08
         1.21e-06      1.006131e-08
         1.22e-06    1.00668334e-08
         1.23e-06   1.006528799e-08
         1.24e-06   1.006015422e-08
         1.25e-06   1.006313338e-08
         1.26e-06   1.005693049e-08
         1.27e-06   1.005683394e-08
         1.28e-06   1.005832817e-08
         1.29e-06   1.005753987e-08
          1.3e-06   1.005445935e-08
         1.31e-06   1.005083529e-08
         1.32e-06   1.004765713e-08
         1.33e-06    1.00489319e-08
         1.34e-06   1.005423075e-08
         1.35e-06   1.006078663e-08
         1.36e-06   1.006181787e-08
         1.37e-06   1.006281649e-08
         1.38e-06    1.00627978e-08
         1.39e-06    1.00647215e-08
          1.4e-06   1.006534886e-08
         1.41e-06   1.006764532e-08
         1.42e-06   1.006611117e-08
         1.43e-06   1.006143782e-08
         1.44e-06   1.006087601e-08
         1.45e-06   1.005959493e-08
         1.46e-06    1.00552285e-08
         1.47e-06   1.005356701e-08
         1.48e-06   1.005831033e-08
         1.49e-06   1.005909107e-08
          1.5e-06   1.006151933e-08
         1.51e-06   1.005721169e-08
         1.52e-06   1.005830707e-08
         1.53e-06   1.005964987e-08
         1.54e-06   1.005616861e-08
         1.55e-06   1.005509112e-08
         1.56e-06    1.00552284e-08
         1.57e-06   1.005586385e-08
         1.58e-06   1.005599055e-08
         1.59e-06   1.005782837e-08
          1.6e-06   1.005890648e-08
         1.61e-06   1.005498381e-08
         1.62e-06   1.005453569e-08
         1.63e-06    1.00530502e-08
         1.64e-06   1.005287278e-08
         1.65e-06   1.005803958e-08
         1.66e-06   1.005693396e-08
         1.67e-06   1.005754212e-08
         1.68e-06   1.005656686e-08
         1.69e-06   1.005908145e-08
          1.7e-06   1.005644834e-08
         1.71e-06   1.005174342e-08
         1.72e-06   1.004814899e-08
         1.73e-06   1.004987239e-08
         1.74e-06   1.004885332e-08
         1.75e-06   1.004977174e-08
         1.76e-06   1.004903813e-08
         1.77e-06   1.005012568e-08
         1.78e-06   1.004963031e-08
         1.79e-06   1.005186376e-08
          1.8e-06   1.005123875e-08
         1.81e-06   1.004998385e-08
         1.82e-06   1.005485079e-08
         1.83e-06   1.005153975e-08
         1.84e-06    1.00564488e-08
         1.85e-06    1.00553799e-08
         1.86e-06   1.005269822e-08
         1.87e-06   1.004887494e-08
         1.88e-06   1.004737283e-08
         1.89e-06   1.005019858e-08
          1.9e-06   1.004631818e-08
         1.91e-06   1.004705602e-08
         1.92e-06   1.004602204e-08
         1.93e-06    1.00452767e-08
         1.94e-06    1.00449936e-08
         1.95e-06   1.004429106e-08
         1.96e-06   1.004595323e-08
         1.97e-06   1.004465088e-08
         1.98e-06   1.005126254e-08
         1.99e-06   1.005445554e-08
            2e-06    1.00551757e-08
         2.01e-06   1.005299831e-08
         2.02e-06     1.0053664e-08
         2.03e-06   1.005072246e-08
         2.04e-06   1.004082181e-08
         2.05e-06   1.004805507e-08
         2.06e-06   1.004384429e-08
         2.07e-06   1.004504883e-08
         2.08e-06   1.004985913e-08
         2.09e-06   1.005028983e-08
          2.1e-06   1.004424824e-08
         2.11e-06   1.004474187e-08
         2.12e-06   1.004511599e-08
         2.13e-06   1.004898861e-08
         2.14e-06    1.00475422e-08
         2.15e-06   1.005162725e-08
         2.16e-06   1.005320475e-08
         2.17e-06   1.004977693e-08
         2.18e-06    1.00518198e-08
         2.19e-06    1.00516493e-08
          2.2e-06   1.005213903e-08
         2.21e-06   1.004839558e-08
         2.22e-06   1.004950437e-08
         2.23e-06   1.004949013e-08
         2.24e-06   1.004991677e-08
         2.25e-06   1.004712483e-08
         2.26e-06   1.004863475e-08
         2.27e-06   1.004830049e-08
         2.28e-06   1.004820536e-08
         2.29e-06   1.004602615e-08
          2.3e-06   1.004724187e-08
         2.31e-06   1.005178552e-08
         2.32e-06   1.005355144e-08
         2.33e-06   1.005574284e-08
         2.34e-06   1.005250395e-08
         2.35e-06    1.00502223e-08
         2.36e-06   1.004859372e-08
         2.37e-06   1.004773008e-08
         2.38e-06    1.00494242e-08
         2.39e-06   1.004541891e-08
          2.4e-06   1.004164274e-08
         2.41e-06    1.00400499e-08
         2.42e-06   1.004595453e-08
         2.43e-06   1.004790604e-08
         2.44e-06   1.004864312e-08
         2.45e-06   1.004898336e-08
         2.46e-06   1.004970344e-08
         2.47e-06   1.004276381e-08
         2.48e-06   1.004826382e-08
         2.49e-06   1.004451716e-08
          2.5e-06   1.004792165e-08
         2.51e-06   1.004443416e-08
         2.52e-06   1.004720436e-08
         2.53e-06   1.004503906e-08
         2.54e-06    1.00455281e-08
         2.55e-06   1.004523115e-08
         2.56e-06   1.004533812e-08
         2.57e-06   1.004255924e-08
         2.58e-06   1.004638606e-08
         2.59e-06   1.004236144e-08
          2.6e-06   1.004006162e-08
         2.61e-06   1.003846455e-08
         2.62e-06   1.003638206e-08
         2.63e-06   1.003636472e-08
         2.64e-06   1.004307054e-08
         2.65e-06   1.004133117e-08
         2.66e-06   1.004591782e-08
         2.67e-06   1.004177275e-08
         2.68e-06   1.004455371e-08
         2.69e-06   1.004290781e-08
          2.7e-06   1.004127578e-08
         2.71e-06   1.003931279e-08
         2.72e-06   1.003645151e-08
         2.73e-06   1.003478268e-08
         2.74e-06   1.003730177e-08
         2.75e-06   1.003888858e-08
         2.76e-06   1.004192678e-08
         2.77e-06   1.004363711e-08
         2.78e-06   1.004141141e-08
         2.79e-06   1.004207136e-08
          2.8e-06    1.00459922e-08
         2.81e-06   1.004501085e-08
         2.82e-06   1.004543137e-08
         2.83e-06   1.004685578e-08
         2.84e-06   1.005073477e-08
         2.85e-06   1.005094883e-08
         2.86e-06   1.005330651e-08
         2.87e-06   1.005277422e-08
         2.88e-06    1.00509693e-08
         2.89e-06   1.005053713e-08
          2.9e-06   1.005106068e-08
         2.91e-06   1.005503166e-08
         2.92e-06   1.005647706e-08
         2.93e-06   1.005552517e-08
         2.94e-06   1.005685939e-08
         2.95e-06    1.00527445e-08
         2.96e-06   1.005130584e-08
         2.97e-06   1.005103362e-08
         2.98e-06   1.004444899e-08
         2.99e-06   1.004474579e-08
            3e-06   1.004610371e-08
         3.01e-06   1.004897191e-08
         3.02e-06   1.004850085e-08
         3.03e-06    1.00511378e-08
         3.04e-06   1.004836697e-08
         3.05e-06   1.004826455e-08
         3.06e-06   1.004714887e-08
         3.07e-06    1.00484902e-08
         3.08e-06   1.004547986e-08
         3.09e-06   1.004618377e-08
          3.1e-06   1.004776487e-08
         3.11e-06    1.00524707e-08
         3.12e-06   1.005195996e-08
         3.13e-06   1.005410499e-08
         3.14e-06   1.004996089e-08
         3.15e-06   1.004441413e-08
         3.16e-06    1.00501951e-08
         3.17e-06   1.005443631e-08
         3.18e-06    1.00545138e-08
         3.19e-06   1.005727981e-08
          3.2e-06   1.005494194e-08
         3.21e-06   1.005644896e-08
         3.22e-06    1.00561115e-08
         3.23e-06   1.005620646e-08
         3.24e-06   1.005517218e-08
         3.25e-06   1.005344704e-08
         3.26e-06   1.004866307e-08
         3.27e-06   1.004808902e-08
         3.28e-06   1.004552005e-08
         3.29e-06   1.005009459e-08
          3.3e-06    1.00474003e-08
         3.31e-06   1.004520342e-08
         3.32e-06   1.004546201e-08
         3.33e-06   1.004886582e-08
         3.34e-06   1.004576616e-08
         3.35e-06   1.004244059e-08
         3.36e-06   1.004603912e-08
         3.37e-06   1.004634074e-08
         3.38e-06   1.004727278e-08
         3.39e-06   1.004664111e-08
          3.4e-06   1.004630037e-08
         3.41e-06   1.004738539e-08
         3.42e-06   1.004674229e-08
         3.43e-06   1.004663826e-08
         3.44e-06   1.004641047e-08
         3.45e-06   1.004564947e-08
         3.46e-06   1.003856757e-08
         3.47e-06   1.003852899e-08
         3.48e-06   1.003550729e-08
         3.49e-06   1.004170337e-08
          3.5e-06   1.004076973e-08
         3.51e-06   1.004442878e-08
         3.52e-06   1.004605545e-08
         3.53e-06   1.004408435e-08
         3.54e-06   1.004353244e-08
         3.55e-06   1.004649619e-08
         3.56e-06    1.00498117e-08
         3.57e-06   1.004688234e-08
         3.58e-06   1.004791272e-08
         3.59e-06   1.004527232e-08
          3.6e-06   1.004793907e-08
         3.61e-06   1.004887676e-08
         3.62e-06   1.005163223e-08
         3.63e-06   1.004909196e-08
         3.64e-06   1.004560693e-08
         3.65e-06   1.004678897e-08
         3.66e-06   1.004892031e-08
         3.67e-06    1.00527717e-08
         3.68e-06   1.005772284e-08
         3.69e-06   1.005713402e-08
          3.7e-06   1.005172855e-08
         3.71e-06   1.005255472e-08
         3.72e-06   1.005315288e-08
         3.73e-06   1.005609118e-08
         3.74e-06   1.005260702e-08
         3.75e-06   1.004980917e-08
         3.76e-06   1.004885774e-08
         3.77e-06   1.004473931e-08
         3.78e-06   1.004364206e-08
         3.79e-06   1.004161305e-08
          3.8e-06   1.004323384e-08
         3.81e-06   1.004359768e-08
         3.82e-06   1.004229191e-08
         3.83e-06   1.004577631e-08
         3.84e-06   1.004707599e-08
         3.85e-06   1.004686169e-08
         3.86e-06   1.004485338e-08
         3.87e-06     1.0045987e-08
         3.88e-06   1.003851799e-08
         3.89e-06   1.004167652e-08
          3.9e-06   1.004509824e-08
         3.91e-06   1.004425575e-08
         3.92e-06   1.004563624e-08
         3.93e-06   1.004416001e-08
         3.94e-06   1.004630072e-08
         3.95e-06   1.004800244e-08
         3.96e-06   1.005229086e-08
         3.97e-06   1.005132489e-08
         3.98e-06   1.005261582e-08
         3.99e-06   1.005110698e-08
            4e-06   1.005386479e-08
         4.01e-06   1.005211152e-08
         4.02e-06   1.004790767e-08
         4.03e-06   1.004546599e-08
         4.04e-06   1.004586254e-08
         4.05e-06   1.005169743e-08
         4.06e-06   1.005213132e-08
         4.07e-06   1.005623745e-08
         4.08e-06   1.005578086e-08
         4.09e-06   1.005408806e-08
          4.1e-06   1.005480867e-08
         4.11e-06   1.005689115e-08
         4.12e-06   1.005462304e-08
         4.13e-06   1.004638581e-08
         4.14e-06   1.004624442e-08
         4.15e-06   1.005138145e-08
         4.16e-06    1.00505305e-08
         4.17e-06   1.004811154e-08
         4.18e-06    1.00476651e-08
         4.19e-06   1.004638577e-08
          4.2e-06   1.004370084e-08
         4.21e-06   1.004353594e-08
         4.22e-06   1.004691744e-08
         4.23e-06   1.004867699e-08
         4.24e-06   1.005017292e-08
         4.25e-06   1.005393252e-08
         4.26e-06   1.005343794e-08
         4.27e-06   1.005158631e-08
         4.28e-06   1.004711978e-08
         4.29e-06   1.004491292e-08
          4.3e-06   1.005006693e-08
         4.31e-06   1.005326508e-08
         4.32e-06   1.005504161e-08
         4.33e-06   1.005349881e-08
         4.34e-06   1.005589509e-08
         4.35e-06   1.005731673e-08
         4.36e-06   1.005402579e-08
         4.37e-06   1.005403052e-08
         4.38e-06   1.005330146e-08
         4.39e-06   1.005331946e-08
          4.4e-06   1.005482595e-08
         4.41e-06   1.005336104e-08
         4.42e-06   1.005182797e-08
         4.43e-06   1.005011633e-08
         4.44e-06   1.005162502e-08
         4.45e-06   1.005405609e-08
         4.46e-06   1.005247832e-08
         4.47e-06   1.005093081e-08
         4.48e-06   1.004743523e-08
         4.49e-06   1.004830374e-08
          4.5e-06   1.004908922e-08
         4.51e-06   1.004826444e-08
         4.52e-06   1.004977217e-08
         4.53e-06   1.005256729e-08
         4.54e-06   1.005380372e-08
         4.55e-06   1.004944836e-08
         4.56e-06   1.005058512e-08
         4.57e-06   1.004658845e-08
         4.58e-06    1.00420935e-08
         4.59e-06    1.00478686e-08
          4.6e-06    1.00458231e-08
         4.61e-06   1.004249063e-08
         4.62e-06    1.00383811e-08
         4.63e-06   1.003867269e-08
         4.64e-06   1.004347549e-08
         4.65e-06   1.004502039e-08
         4.66e-06   1.004563127e-08
         4.67e-06   1.005198175e-08
         4.68e-06   1.004847548e-08
         4.69e-06   1.004877468e-08
          4.7e-06   1.004684276e-08
         4.71e-06   1.004460086e-08
         4.72e-06   1.004491394e-08
         4.73e-06   1.004833913e-08
         4.74e-06   1.004764888e-08
         4.75e-06   1.004812922e-08
         4.76e-06   1.004899431e-08
         4.77e-06   1.004961496e-08
         4.78e-06   1.004691482e-08
         4.79e-06   1.004950578e-08
          4.8e-06   1.005350415e-08
         4.81e-06   1.005263236e-08
         4.82e-06   1.005287061e-08
         4.83e-06   1.005242137e-08
         4.84e-06   1.005464391e-08
         4.85e-06   1.004979004e-08
         4.86e-06    1.00499834e-08
         4.87e-06   1.004893412e-08
         4.88e-06   1.004084528e-08
         4.89e-06   1.004211818e-08
          4.9e-06   1.004404912e-08
         4.91e-06   1.004792749e-08
         4.92e-06    1.00539571e-08
         4.93e-06   1.005122856e-08
         4.94e-06   1.005208692e-08
         4.95e-06   1.005573469e-08
         4.96e-06   1.005214457e-08
         4.97e-06   1.005553101e-08
         4.98e-06   1.005347844e-08
         4.99e-06    1.00501318e-08
            5e-06   1.004933575e-08
         5.01e-06   1.004463836e-08
         5.02e-06   1.004655539e-08
         5.03e-06   1.004864436e-08
         5.04e-06      1.004931e-08
         5.05e-06   1.005143131e-08
         5.06e-06   1.005056206e-08
         5.07e-06   1.005253321e-08
         5.08e-06   1.004805708e-08
         5.09e-06    1.00456081e-08
          5.1e-06   1.004515995e-08
         5.11e-06    1.00450458e-08
         5.12e-06   1.004696564e-08
         5.13e-06   1.004883824e-08
         5.14e-06   1.005079178e-08
         5.15e-06   1.004771029e-08
         5.16e-06   1.004823719e-08
         5.17e-06   1.004969382e-08
         5.18e-06   1.005141171e-08
         5.19e-06   1.005536317e-08
          5.2e-06   1.005997777e-08
         5.21e-06   1.005835163e-08
         5.22e-06   1.005475072e-08
         5.23e-06    1.00591447e-08
         5.24e-06   1.005736024e-08
         5.25e-06   1.005777063e-08
         5.26e-06   1.005486926e-08
         5.27e-06   1.005596853e-08
         5.28e-06   1.005654109e-08
         5.29e-06   1.005739088e-08
          5.3e-06   1.005452573e-08
         5.31e-06   1.005211354e-08
         5.32e-06    1.00553847e-08
         5.33e-06   1.005660824e-08
         5.34e-06   1.005841229e-08
         5.35e-06   1.005778738e-08
         5.36e-06     1.0063388e-08
         5.37e-06   1.006010607e-08
         5.38e-06    1.00601095e-08
         5.39e-06    1.00577883e-08
          5.4e-06    1.00581093e-08
         5.41e-06   1.005369143e-08
         5.42e-06   1.005114441e-08
         5.43e-06   1.005254851e-08
         5.44e-06   1.004881803e-08
         5.45e-06   1.004870693e-08
         5.46e-06   1.005235204e-08
         5.47e-06   1.005644511e-08
         5.48e-06   1.005595105e-08
         5.49e-06   1.005699668e-08
          5.5e-06   1.005494548e-08
         5.51e-06   1.005177174e-08
         5.52e-06   1.005004494e-08
         5.53e-06   1.004570397e-08
         5.54e-06   1.004574212e-08
         5.55e-06   1.004710545e-08
         5.56e-06   1.004659967e-08
         5.57e-06   1.005184116e-08
         5.58e-06   1.005241142e-08
         5.59e-06   1.005264303e-08
          5.6e-06   1.005269154e-08
         5.61e-06   1.005205366e-08
         5.62e-06   1.005520852e-08
         5.63e-06   1.005340283e-08
         5.64e-06   1.005349835e-08
         5.65e-06   1.005708721e-08
         5.66e-06   1.005747756e-08
         5.67e-06   1.005972277e-08
         5.68e-06   1.006148089e-08
         5.69e-06   1.006415801e-08
          5.7e-06   1.006629522e-08
         5.71e-06   1.006452579e-08
         5.72e-06   1.006612166e-08
         5.73e-06   1.005857975e-08
         5.74e-06   1.005809885e-08
         5.75e-06   1.005837334e-08
         5.76e-06   1.006042269e-08
         5.77e-06   1.006258754e-08
         5.78e-06   1.005897541e-08
         5.79e-06   1.005787076e-08
          5.8e-06    1.00561676e-08
         5.81e-06   1.005365829e-08
         5.82e-06   1.005478458e-08
         5.83e-06   1.005667735e-08
         5.84e-06   1.005777916e-08
         5.85e-06   1.005386972e-08
         5.86e-06   1.005778026e-08
         5.87e-06   1.005858398e-08
         5.88e-06   1.005828694e-08
         5.89e-06   1.005903827e-08
          5.9e-06   1.006196599e-08
         5.91e-06   1.005964796e-08
         5.92e-06   1.006207284e-08
         5.93e-06   1.006500234e-08
         5.94e-06   1.006402925e-08
         5.95e-06   1.005769973e-08
         5.96e-06   1.005920124e-08
         5.97e-06    1.00589967e-08
         5.98e-06    1.00569481e-08
         5.99e-06   1.005465907e-08
            6e-06   1.005706472e-08
         6.01e-06    1.00539398e-08
         6.02e-06   1.005299962e-08
         6.03e-06   1.005809698e-08
         6.04e-06   1.006012143e-08
         6.05e-06   1.006182126e-08
         6.06e-06   1.006302771e-08
         6.07e-06   1.006370175e-08
         6.08e-06   1.006042183e-08
         6.09e-06   1.005884041e-08
          6.1e-06   1.006394376e-08
         6.11e-06    1.00633325e-08
         6.12e-06   1.006110489e-08
         6.13e-06   1.005741703e-08
         6.14e-06   1.005212694e-08
         6.15e-06   1.005242529e-08
         6.16e-06   1.005258868e-08
         6.17e-06   1.005487335e-08
         6.18e-06   1.005380045e-08
         6.19e-06   1.005251516e-08
          6.2e-06   1.005550318e-08
         6.21e-06   1.005704424e-08
         6.22e-06   1.005490084e-08
         6.23e-06   1.005274836e-08
         6.24e-06   1.005664401e-08
         6.25e-06   1.005533773e-08
         6.26e-06   1.005758971e-08
         6.27e-06   1.005899905e-08
         6.28e-06   1.005459141e-08
         6.29e-06   1.005620471e-08
          6.3e-06   1.005776904e-08
         6.31e-06   1.006427562e-08
         6.32e-06   1.006291242e-08
         6.33e-06   1.006351117e-08
         6.34e-06   1.006199152e-08
         6.35e-06     1.0065662e-08
         6.36e-06   1.006355782e-08
         6.37e-06   1.006491585e-08
         6.38e-06   1.006630571e-08
         6.39e-06   1.006478647e-08
          6.4e-06   1.005902863e-08
         6.41e-06   1.005660373e-08
         6.42e-06   1.005185974e-08
         6.43e-06   1.005223871e-08
         6.44e-06   1.005151444e-08
         6.45e-06    1.00510007e-08
         6.46e-06   1.005309399e-08
         6.47e-06   1.005678024e-08
         6.48e-06   1.005758225e-08
         6.49e-06   1.005598921e-08
          6.5e-06   1.005336861e-08
         6.51e-06   1.005672124e-08
         6.52e-06   1.005874446e-08
         6.53e-06    1.00577885e-08
         6.54e-06   1.005598785e-08
         6.55e-06   1.005482642e-08
         6.56e-06   1.005772754e-08
         6.57e-06   1.005722443e-08
         6.58e-06   1.005837553e-08
         6.59e-06   1.005441054e-08
          6.6e-06   1.005477013e-08
         6.61e-06   1.005862801e-08
         6.62e-06   1.005939676e-08
         6.63e-06   1.006111301e-08
         6.64e-06   1.005920293e-08
         6.65e-06    1.00649504e-08
         6.66e-06   1.006346641e-08
         6.67e-06   1.006367809e-08
         6.68e-06   1.005936507e-08
         6.69e-06    1.00625131e-08
          6.7e-06   1.006152408e-08
         6.71e-06   1.005918908e-08
         6.72e-06   1.005878215e-08
         6.73e-06   1.005219403e-08
         6.74e-06   1.005316452e-08
         6.75e-06   1.004938104e-08
         6.76e-06    1.00518723e-08
         6.77e-06   1.005255729e-08
         6.78e-06   1.004801119e-08
         6.79e-06   1.005074507e-08
          6.8e-06   1.004972379e-08
         6.81e-06   1.005224624e-08
         6.82e-06   1.004885126e-08
         6.83e-06   1.004609178e-08
         6.84e-06   1.004766966e-08
         6.85e-06   1.004651551e-08
         6.86e-06   1.004899689e-08
         6.87e-06   1.005165715e-08
         6.88e-06   1.005754161e-08
         6.89e-06   1.005587143e-08
          6.9e-06   1.005659262e-08
         6.91e-06   1.005367547e-08
         6.92e-06   1.004979435e-08
         6.93e-06   1.005195116e-08
         6.94e-06   1.005215541e-08
         6.95e-06   1.004973373e-08
         6.96e-06   1.004885325e-08
         6.97e-06   1.005157979e-08
         6.98e-06   1.005235125e-08
         6.99e-06   1.005627556e-08
            7e-06   1.005466848e-08
         7.01e-06   1.005647312e-08
         7.02e-06   1.005597292e-08
         7.03e-06    1.00554747e-08
         7.04e-06   1.005470277e-08
         7.05e-06   1.005490678e-08
         7.06e-06   1.005264239e-08
         7.07e-06   1.005814678e-08
         7.08e-06   1.005908255e-08
         7.09e-06    1.00581023e-08
          7.1e-06   1.005876309e-08
         7.11e-06   1.005981921e-08
         7.12e-06   1.005694541e-08
         7.13e-06   1.005530729e-08
         7.14e-06   1.005784601e-08
         7.15e-06   1.005526559e-08
         7.16e-06   1.005154237e-08
         7.17e-06   1.004977163e-08
         7.18e-06   1.005181592e-08
         7.19e-06   1.004985488e-08
          7.2e-06   1.005422334e-08
         7.21e-06   1.005376901e-08
         7.22e-06   1.005401303e-08
         7.23e-06   1.005128779e-08
         7.24e-06   1.005463554e-08
         7.25e-06     1.0060465e-08
         7.26e-06   1.005727708e-08
         7.27e-06   1.005483584e-08
         7.28e-06   1.005742517e-08
         7.29e-06   1.006033203e-08
          7.3e-06   1.005767794e-08
         7.31e-06   1.005411937e-08
         7.32e-06   1.005287579e-08
         7.33e-06   1.005346107e-08
         7.34e-06   1.005319635e-08
         7.35e-06   1.005027887e-08
         7.36e-06   1.005284533e-08
         7.37e-06   1.005191141e-08
         7.38e-06   1.005127576e-08
         7.39e-06   1.005527128e-08
          7.4e-06   1.006032217e-08
         7.41e-06   1.005950896e-08
         7.42e-06   1.006185196e-08
         7.43e-06   1.006332286e-08
         7.44e-06   1.005822583e-08
         7.45e-06   1.005901205e-08
         7.46e-06   1.005907335e-08
         7.47e-06   1.005450557e-08
         7.48e-06   1.005726821e-08
         7.49e-06   1.005699325e-08
          7.5e-06     1.0055294e-08
         7.51e-06   1.005952294e-08
         7.52e-06   1.006015509e-08
         7.53e-06   1.006230121e-08
         7.54e-06   1.006009784e-08
         7.55e-06   1.006131937e-08
         7.56e-06   1.005493515e-08
         7.57e-06   1.005522628e-08
         7.58e-06   1.005669777e-08
         7.59e-06   1.006133131e-08
          7.6e-06   1.006151292e-08
         7.61e-06   1.006131278e-08
         7.62e-06   1.006072584e-08
         7.63e-06    1.00583668e-08
         7.64e-06   1.005391957e-08
         7.65e-06   1.005267855e-08
         7.66e-06   1.005570992e-08
         7.67e-06   1.005431345e-08
         7.68e-06   1.005643211e-08
         7.69e-06   1.005704863e-08
          7.7e-06   1.005589052e-08
         7.71e-06   1.005810004e-08
         7.72e-06   1.005691827e-08
         7.73e-06    1.00561621e-08
         7.74e-06   1.005553844e-08
         7.75e-06   1.005501537e-08
         7.76e-06   1.005749015e-08
         7.77e-06   1.006134811e-08
         7.78e-06   1.006394671e-08
         7.79e-06   1.006344612e-08
          7.8e-06   1.005910167e-08
         7.81e-06   1.006079071e-08
         7.82e-06   1.006031706e-08
         7.83e-06   1.005867411e-08
         7.84e-06   1.005524061e-08
         7.85e-06   1.005195406e-08
         7.86e-06   1.005389024e-08
         7.87e-06   1.005401589e-08
         7.88e-06   1.005579464e-08
         7.89e-06   1.005414131e-08
          7.9e-06   1.005542895e-08
         7.91e-06   1.005351538e-08
         7.92e-06   1.005855336e-08
         7.93e-06   1.005820215e-08
         7.94e-06   1.006026126e-08
         7.95e-06   1.005891152e-08
         7.96e-06   1.005869355e-08
         7.97e-06   1.006532884e-08
         7.98e-06   1.006665625e-08
         7.99e-06   1.006279122e-08
            8e-06   1.006711156e-08
         8.01e-06   1.006606021e-08
         8.02e-06   1.005889779e-08
         8.03e-06    1.00614568e-08
         8.04e-06   1.006245061e-08
         8.05e-06    1.00628082e-08
         8.06e-06    1.00610416e-08
         8.07e-06   1.006518231e-08
         8.08e-06   1.006237212e-08
         8.09e-06   1.006002678e-08
          8.1e-06   1.005669844e-08
         8.11e-06   1.005358721e-08
         8.12e-06   1.005326751e-08
         8.13e-06   1.005124181e-08
         8.14e-06   1.005167087e-08
         8.15e-06   1.005155532e-08
         8.16e-06   1.005183754e-08
         8.17e-06   1.005293847e-08
         8.18e-06   1.006098453e-08
         8.19e-06   1.006055844e-08
          8.2e-06   1.005902977e-08
         8.21e-06   1.005755464e-08
         8.22e-06   1.005938435e-08
         8.23e-06   1.006355772e-08
         8.24e-06   1.006625815e-08
         8.25e-06   1.006501444e-08
         8.26e-06   1.006252105e-08
         8.27e-06   1.006339237e-08
         8.28e-06   1.006076108e-08
         8.29e-06   1.005975067e-08
          8.3e-06   1.006160625e-08
         8.31e-06   1.005853275e-08