# Probe 0 (5e-06 5e-06 5e-06)
#           Probe                 0
#            Time
            1e-08       14955.76673
            2e-08         14962.103
            3e-08       14977.35838
            4e-08       14985.34553
            5e-08       14972.29426
            6e-08       14960.55265
            7e-08       14980.54975
            8e-08        14971.0869
            9e-08       14976.95406
            1e-07       14979.51095
          1.1e-07       14980.27339
          1.2e-07       14982.57182
          1.3e-07       14971.69738
          1.4e-07        14970.6663
          1.5e-07       14955.83873
          1.6e-07       14961.95216
          1.7e-07       14969.99588
          1.8e-07        14963.9862
          1.9e-07       14954.44014
            2e-07       14948.25848
          2.1e-07       14952.22901
          2.2e-07       14954.41227
          2.3e-07       14957.54188
          2.4e-07       14952.01961
          2.5e-07       14951.00109
          2.6e-07       14954.60489
          2.7e-07        14954.8715
          2.8e-07       14966.35905
          2.9e-07       14959.85031
            3e-07        14970.8123
          3.1e-07       14964.93127
          3.2e-07       14952.33759
          3.3e-07       14952.02883
          3.4e-07       14952.20388
          3.5e-07       14944.86992
          3.6e-07       14938.37942
          3.7e-07       14952.09019
          3.8e-07       14945.84886
          3.9e-07       14945.93647
            4e-07       14956.49673
          4.1e-07       14957.52845
          4.2e-07       14966.26017
          4.3e-07        14971.1894
          4.4e-07       14969.51172
          4.5e-07       14979.90697
          4.6e-07       14969.09635
          4.7e-07        14956.4114
          4.8e-07       14959.04863
          4.9e-07       14948.81718
            5e-07       14952.23047
          5.1e-07        14943.7142
          5.2e-07       14938.82899
          5.3e-07       14950.67413
          5.4e-07       14954.13075
          5.5e-07       14955.10287
          5.6e-07       14943.44412
          5.7e-07       14947.75786
          5.8e-07       14950.69875
          5.9e-07       14949.06265
            6e-07       14946.90881
          6.1e-07       14954.62773
          6.2e-07       14960.78562
          6.3e-07       14947.28596
          6.4e-07       14949.10041
          6.5e-07       14941.77157
          6.6e-07       14926.34917
          6.7e-07       14937.00204
          6.8e-07       14948.73787
          6.9e-07       14938.90516
            7e-07       14942.28286
          7.1e-07       14939.82036
          7.2e-07       14943.44573
          7.3e-07       14936.41983
          7.4e-07       14933.11609
          7.5e-07       14939.65676
          7.6e-07       14931.50118
          7.7e-07        14949.0179
          7.8e-07       14950.01087
          7.9e-07       14947.56654
            8e-07       14950.35762
          8.1e-07       14950.48013
          8.2e-07       14947.95732
          8.3e-07       14938.18558
          8.4e-07       14944.94312
          8.5e-07       14941.32491
          8.6e-07       14936.30758
          8.7e-07        14959.2115
          8.8e-07       14954.23062
          8.9e-07       14957.41979
            9e-07       14954.01227
          9.1e-07       14957.17336
          9.2e-07       14945.93324
          9.3e-07       14953.84879
          9.4e-07       14948.52924
          9.5e-07       14955.41659
          9.6e-07       14945.68136
          9.7e-07       14953.87511
          9.8e-07       14957.36358
          9.9e-07       14966.17557
            1e-06       14971.64245
         1.01e-06       14962.52021
         1.02e-06       14963.12036
         1.03e-06       14972.35729
         1.04e-06       14970.58485
         1.05e-06       14963.33975
         1.06e-06       14963.58908
         1.07e-06       14963.89831
         1.08e-06       14967.58575
         1.09e-06       14963.47341
          1.1e-06       14963.33158
         1.11e-06       14959.08587
         1.12e-06       14963.68306
         1.13e-06       14968.27327
         1.14e-06       14975.52581
         1.15e-06       14970.46851
         1.16e-06       14982.37133
         1.17e-06       14987.55137
         1.18e-06       14967.03943
         1.19e-06       14963.40824
          1.2e-06       14970.69957
         1.21e-06       14970.08364
         1.22e-06        14986.0386
         1.23e-06        14981.9116
         1.24e-06       14966.98406
         1.25e-06        14975.4775
         1.26e-06         14957.641
         1.27e-06       14957.65907
         1.28e-06       14962.02041
         1.29e-06       14959.97704
          1.3e-06       14951.09901
         1.31e-06       14940.91799
         1.32e-06        14931.7644
         1.33e-06       14935.52948
         1.34e-06       14950.56711
         1.35e-06        14969.3565
         1.36e-06       14972.25022
         1.37e-06       14974.83095
         1.38e-06       14974.96261
         1.39e-06       14980.58293
          1.4e-06       14982.53118
         1.41e-06       14989.19664
         1.42e-06       14984.52949
         1.43e-06       14970.97957
         1.44e-06       14969.17045
         1.45e-06       14965.62928
         1.46e-06        14953.1186
         1.47e-06       14948.57709
         1.48e-06       14961.87378
         1.49e-06       14964.11372
          1.5e-06       14970.98187
         1.51e-06       14958.69427
         1.52e-06       14961.75822
         1.53e-06       14965.49786
         1.54e-06       14955.66328
         1.55e-06       14952.52857
         1.56e-06       14953.09522
         1.57e-06       14954.73995
         1.58e-06       14955.14425
         1.59e-06       14960.32845
          1.6e-06       14963.36743
         1.61e-06       14952.08069
         1.62e-06       14951.03559
         1.63e-06       14947.01862
         1.64e-06        14946.6001
         1.65e-06       14961.26213
         1.66e-06       14958.22197
         1.67e-06       14959.95495
         1.68e-06       14956.95316
         1.69e-06       14964.14178
          1.7e-06       14956.91781
         1.71e-06       14943.77276
         1.72e-06       14933.84037
         1.73e-06       14938.70549
         1.74e-06       14935.99135
         1.75e-06       14938.87997
         1.76e-06       14936.69675
         1.77e-06       14939.75858
         1.78e-06       14938.50331
         1.79e-06       14944.68337
          1.8e-06       14943.04398
         1.81e-06       14939.48703
         1.82e-06       14953.30186
         1.83e-06       14943.95844
         1.84e-06       14957.58982
         1.85e-06       14954.52135
         1.86e-06       14947.29126
         1.87e-06       14936.91474
         1.88e-06       14932.67587
         1.89e-06       14940.50423
          1.9e-06       14929.91379
         1.91e-06       14931.84703
         1.92e-06       14929.09469
         1.93e-06       14927.35766
         1.94e-06       14926.60425
         1.95e-06       14924.51178
         1.96e-06       14929.03856
         1.97e-06       14925.50741
         1.98e-06        14943.6852
         1.99e-06        14952.5088
            2e-06       14954.29449
         2.01e-06       14947.89137
         2.02e-06       14949.86058
         2.03e-06       14941.97275
         2.04e-06       14915.14406
         2.05e-06       14934.71267
         2.06e-06       14923.24491
         2.07e-06       14926.23515
         2.08e-06       14939.69759
         2.09e-06       14940.83458
          2.1e-06       14924.11277
         2.11e-06       14925.36108
         2.12e-06       14926.35621
         2.13e-06       14937.03889
         2.14e-06       14933.34907
         2.15e-06       14944.65926
         2.16e-06       14949.24272
         2.17e-06       14939.63795
         2.18e-06       14945.33658
         2.19e-06        14944.7037
          2.2e-06       14945.86065
         2.21e-06       14935.48319
         2.22e-06       14938.87129
         2.23e-06       14938.85054
         2.24e-06       14939.95758
         2.25e-06       14932.29881
         2.26e-06       14936.62444
         2.27e-06       14936.04198
         2.28e-06       14935.78917
         2.29e-06       14929.68606
          2.3e-06       14932.89534
         2.31e-06         14945.081
         2.32e-06       14950.08084
         2.33e-06       14956.29594
         2.34e-06        14947.0264
         2.35e-06       14940.87798
         2.36e-06       14936.02905
         2.37e-06       14933.92763
         2.38e-06       14938.55333
         2.39e-06       14927.48171
          2.4e-06       14917.49384
         2.41e-06       14913.42712
         2.42e-06       14929.38005
         2.43e-06       14935.19265
         2.44e-06       14936.98051
         2.45e-06       14937.91385
         2.46e-06       14940.06768
         2.47e-06       14921.19345
         2.48e-06       14936.01739
         2.49e-06       14925.54499
          2.5e-06       14934.80072
         2.51e-06       14925.12238
         2.52e-06        14932.6979
         2.53e-06       14926.75351
         2.54e-06       14928.09563
         2.55e-06       14927.11788
         2.56e-06       14927.56498
         2.57e-06       14920.01224
         2.58e-06       14930.39216
         2.59e-06        14919.4274
          2.6e-06       14913.15918
         2.61e-06         14908.721
         2.62e-06       14903.11404
         2.63e-06       14903.07436
         2.64e-06       14920.95498
         2.65e-06       14916.11193
         2.66e-06       14928.53151
         2.67e-06       14917.12924
         2.68e-06       14924.92746
         2.69e-06       14920.21318
          2.7e-06       14915.77643
         2.71e-06       14910.52139
         2.72e-06       14902.77793
         2.73e-06       14898.37264
         2.74e-06       14905.07098
         2.75e-06       14909.59089
         2.76e-06        14917.6258
         2.77e-06       14922.04999
         2.78e-06       14915.85835
         2.79e-06       14917.41048
          2.8e-06       14928.28464
         2.81e-06       14925.73884
         2.82e-06       14926.93427
         2.83e-06       14930.92876
         2.84e-06       14941.73283
         2.85e-06       14942.20304
         2.86e-06       14948.83311
         2.87e-06       14947.08051
         2.88e-06       14942.21996
         2.89e-06       14941.08847
          2.9e-06       14942.46985
         2.91e-06       14953.77427
         2.92e-06       14957.82307
         2.93e-06       14955.17544
         2.94e-06       14959.02023
         2.95e-06       14947.21626
         2.96e-06       14943.46699
         2.97e-06       14942.67105
         2.98e-06       14924.23814
         2.99e-06       14925.11499
            3e-06       14928.81625
         3.01e-06       14936.72267
         3.02e-06       14935.84705
         3.03e-06       14943.04927
         3.04e-06       14935.39742
         3.05e-06       14935.00757
         3.06e-06       14931.86079
         3.07e-06       14935.25406
         3.08e-06       14927.19348
         3.09e-06       14929.14071
          3.1e-06        14933.3885
         3.11e-06       14946.30575
         3.12e-06       14945.21254
         3.13e-06       14951.16661
         3.14e-06       14939.56274
         3.15e-06       14924.03762
         3.16e-06       14940.23848
         3.17e-06       14952.37834
         3.18e-06       14952.50407
         3.19e-06       14960.47588
          3.2e-06       14953.97701
         3.21e-06       14958.37451
         3.22e-06       14957.70094
         3.23e-06        14958.0443
         3.24e-06       14955.25551
         3.25e-06       14949.97216
         3.26e-06       14936.68885
         3.27e-06       14934.91909
         3.28e-06       14927.92823
         3.29e-06       14940.68196
          3.3e-06       14932.81642
         3.31e-06        14926.9151
         3.32e-06       14927.47371
         3.33e-06       14937.03227
         3.34e-06       14928.44831
         3.35e-06       14919.21129
         3.36e-06       14929.25373
         3.37e-06       14930.10112
         3.38e-06       14932.79194
         3.39e-06       14930.90768
          3.4e-06       14929.93712
         3.41e-06       14932.62771
         3.42e-06       14930.76442
         3.43e-06       14930.53411
         3.44e-06       14929.86722
         3.45e-06       14927.74192
         3.46e-06       14908.33161
         3.47e-06        14908.1912
         3.48e-06        14900.1619
         3.49e-06       14916.98868
          3.5e-06       14914.41151
         3.51e-06       14924.56249
         3.52e-06       14928.95157
         3.53e-06       14923.42508
         3.54e-06       14921.96727
         3.55e-06       14930.37608
         3.56e-06        14939.5988
         3.57e-06       14931.32484
         3.58e-06       14934.07414
         3.59e-06       14926.76913
          3.6e-06       14934.47015
         3.61e-06       14937.09254
         3.62e-06       14944.69121
         3.63e-06       14937.37543
         3.64e-06       14927.53082
         3.65e-06       14930.83774
         3.66e-06       14937.02158
         3.67e-06       14947.90141
         3.68e-06        14961.9538
         3.69e-06       14960.52052
          3.7e-06       14945.17341
         3.71e-06       14947.48138
         3.72e-06       14949.24732
         3.73e-06       14957.41997
         3.74e-06       14947.57258
         3.75e-06       14939.73045
         3.76e-06       14937.19557
         3.77e-06       14925.61884
         3.78e-06       14922.75256
         3.79e-06       14917.17953
          3.8e-06       14921.86799
         3.81e-06       14923.16843
         3.82e-06       14919.50432
         3.83e-06       14929.03193
         3.84e-06       14932.52858
         3.85e-06       14932.31936
         3.86e-06       14926.98934
         3.87e-06       14930.03329
         3.88e-06       14909.54827
         3.89e-06        14918.1586
          3.9e-06        14927.4426
         3.91e-06       14925.37909
         3.92e-06        14928.9158
         3.93e-06       14924.69448
         3.94e-06       14930.77444
         3.95e-06       14935.60504
         3.96e-06       14947.70334
         3.97e-06       14945.01263
         3.98e-06       14948.66297
         3.99e-06       14944.15301
            4e-06       14951.97784
         4.01e-06       14946.86384
         4.02e-06       14934.89353
         4.03e-06       14928.06487
         4.04e-06       14929.25755
         4.05e-06        14945.5883
         4.06e-06       14946.74441
         4.07e-06       14958.32195
         4.08e-06       14957.20272
         4.09e-06       14952.30352
          4.1e-06       14954.17483
         4.11e-06       14960.21577
         4.12e-06       14953.59779
         4.13e-06       14930.34128
         4.14e-06        14930.2212
         4.15e-06       14944.45469
         4.16e-06       14942.22662
         4.17e-06       14935.49749
         4.18e-06       14934.04445
         4.19e-06       14930.52159
          4.2e-06       14922.97454
         4.21e-06       14922.62019
         4.22e-06       14931.70266
         4.23e-06       14936.78652
         4.24e-06       14940.66362
         4.25e-06       14951.18946
         4.26e-06       14950.00851
         4.27e-06       14944.81711
         4.28e-06       14932.33634
         4.29e-06       14926.04937
          4.3e-06        14940.4108
         4.31e-06       14949.50026
         4.32e-06       14954.28583
         4.33e-06       14950.00217
         4.34e-06       14956.65474
         4.35e-06       14960.89612
         4.36e-06       14951.39601
         4.37e-06       14951.69146
         4.38e-06       14949.54811
         4.39e-06       14949.49515
          4.4e-06       14953.63134
         4.41e-06       14949.63288
         4.42e-06       14945.21145
         4.43e-06       14940.06288
         4.44e-06       14944.19392
         4.45e-06       14951.06998
         4.46e-06       14946.50803
         4.47e-06       14942.32436
         4.48e-06       14932.42007
         4.49e-06       14934.89248
          4.5e-06       14937.31957
         4.51e-06       14935.15635
         4.52e-06       14939.48052
         4.53e-06        14946.8745
         4.54e-06        14950.4767
         4.55e-06       14938.19118
         4.56e-06       14941.10979
         4.57e-06       14929.98514
         4.58e-06        14917.2687
         4.59e-06       14933.42105
          4.6e-06       14927.54393
         4.61e-06       14918.06933
         4.62e-06       14906.72361
         4.63e-06       14907.49583
         4.64e-06        14920.6967
         4.65e-06       14925.07178
         4.66e-06        14926.7002
         4.67e-06       14944.43036
         4.68e-06        14934.7499
         4.69e-06       14935.89345
          4.7e-06       14930.52924
         4.71e-06       14924.34603
         4.72e-06       14925.23599
         4.73e-06       14934.69732
         4.74e-06       14933.10295
         4.75e-06       14934.36219
         4.76e-06       14936.50873
         4.77e-06       14938.32621
         4.78e-06       14930.68557
         4.79e-06       14938.17878
          4.8e-06       14949.45772
         4.81e-06         14946.762
         4.82e-06       14947.31493
         4.83e-06       14945.89739
         4.84e-06       14951.93657
         4.85e-06       14938.29464
         4.86e-06       14938.74045
         4.87e-06       14935.69099
         4.88e-06       14913.14212
         4.89e-06       14916.21463
          4.9e-06       14921.69536
         4.91e-06       14932.46752
         4.92e-06        14949.6649
         4.93e-06       14941.88775
         4.94e-06       14944.61298
         4.95e-06       14954.77066
         4.96e-06       14944.42599
         4.97e-06       14954.04477
         4.98e-06       14948.28207
         4.99e-06       14938.80584
            5e-06       14936.68477
         5.01e-06       14923.52106
         5.02e-06        14928.6336
         5.03e-06       14934.49629
         5.04e-06       14936.23149
         5.05e-06       14942.19797
         5.06e-06       14939.83505
         5.07e-06        14945.5202
         5.08e-06       14933.04608
         5.09e-06       14926.31136
          5.1e-06       14925.21775
         5.11e-06       14924.75156
         5.12e-06       14930.04482
         5.13e-06       14935.25203
         5.14e-06        14940.7758
         5.15e-06       14932.32454
         5.16e-06       14933.87078
         5.17e-06       14937.88237
         5.18e-06       14942.71686
         5.19e-06       14953.77417
          5.2e-06       14967.10791
         5.21e-06       14962.55908
         5.22e-06        14952.2348
         5.23e-06       14964.67422
         5.24e-06       14959.63108
         5.25e-06       14960.60496
         5.26e-06       14951.90358
         5.27e-06       14955.20437
         5.28e-06       14956.91095
         5.29e-06       14959.27359
          5.3e-06       14950.98899
         5.31e-06       14944.30985
         5.32e-06        14953.4349
         5.33e-06       14957.06831
         5.34e-06       14962.30772
         5.35e-06        14960.7487
         5.36e-06       14977.00159
         5.37e-06       14967.37881
         5.38e-06       14967.43144
         5.39e-06       14960.75356
          5.4e-06       14961.80275
         5.41e-06       14948.95939
         5.42e-06       14941.64152
         5.43e-06        14945.4507
         5.44e-06       14934.99152
         5.45e-06       14934.57232
         5.46e-06       14944.87296
         5.47e-06       14956.51911
         5.48e-06       14955.24998
         5.49e-06       14957.81839
          5.5e-06       14951.95771
         5.51e-06       14942.97655
         5.52e-06       14938.00053
         5.53e-06       14925.86524
         5.54e-06       14925.74024
         5.55e-06       14929.54657
         5.56e-06       14928.23505
         5.57e-06       14942.93958
         5.58e-06       14944.57505
         5.59e-06       14945.04563
          5.6e-06       14945.23784
         5.61e-06       14943.26632
         5.62e-06       14952.07369
         5.63e-06       14947.07651
         5.64e-06       14947.28485
         5.65e-06       14957.45993
         5.66e-06       14958.77973
         5.67e-06       14965.04063
         5.68e-06       14970.24286
         5.69e-06       14977.97547
          5.7e-06       14984.19363
         5.71e-06       14979.09396
         5.72e-06       14983.58816
         5.73e-06       14961.59604
         5.74e-06       14960.18115
         5.75e-06       14960.96851
         5.76e-06       14966.92285
         5.77e-06       14973.34843
         5.78e-06       14962.66192
         5.79e-06       14959.51072
          5.8e-06        14954.4737
         5.81e-06       14947.40906
         5.82e-06       14950.43313
         5.83e-06       14956.02237
         5.84e-06       14959.07962
         5.85e-06       14948.01122
         5.86e-06       14958.97359
         5.87e-06       14961.19764
         5.88e-06       14960.35553
         5.89e-06       14962.46226
          5.9e-06       14970.79639
         5.91e-06       14964.05879
         5.92e-06       14970.89108
         5.93e-06       14979.46856
         5.94e-06       14976.60251
         5.95e-06       14957.97714
         5.96e-06       14962.49177
         5.97e-06        14962.1619
         5.98e-06       14956.26154
         5.99e-06       14949.66052
            6e-06       14956.66146
         6.01e-06       14947.80429
         6.02e-06       14945.29738
         6.03e-06       14959.95316
         6.04e-06        14966.0761
         6.05e-06       14971.05078
         6.06e-06       14974.40006
         6.07e-06        14976.3284
         6.08e-06       14966.73741
         6.09e-06       14962.35526
          6.1e-06       14977.28158
         6.11e-06       14975.24866
         6.12e-06        14968.8912
         6.13e-06       14958.20159
         6.14e-06       14943.17449
         6.15e-06       14944.10653
         6.16e-06        14944.4675
         6.17e-06       14950.81586
         6.18e-06       14947.67472
         6.19e-06       14944.04698
          6.2e-06       14952.46505
         6.21e-06       14956.99389
         6.22e-06       14950.86746
         6.23e-06       14944.63216
         6.24e-06       14955.86913
         6.25e-06       14952.31574
         6.26e-06       14958.86166
         6.27e-06       14962.84371
         6.28e-06       14950.05699
         6.29e-06       14954.67851
          6.3e-06       14959.22708
         6.31e-06       14978.24716
         6.32e-06       14974.32582
         6.33e-06       14975.89759
         6.34e-06       14971.56792
         6.35e-06       14982.31283
         6.36e-06       14976.28296
         6.37e-06       14980.30809
         6.38e-06       14984.49163
         6.39e-06        14980.0779
          6.4e-06       14963.30544
         6.41e-06       14956.43096
         6.42e-06       14943.22512
         6.43e-06       14944.28244
         6.44e-06       14942.14848
         6.45e-06       14941.09721
         6.46e-06       14946.92025
         6.47e-06        14957.5823
         6.48e-06       14959.93958
         6.49e-06       14955.31999
          6.5e-06       14947.69457
         6.51e-06       14957.23588
         6.52e-06       14963.14355
         6.53e-06       14960.44437
         6.54e-06       14955.24905
         6.55e-06       14951.94145
         6.56e-06       14960.19244
         6.57e-06       14958.80958
         6.58e-06       14962.10673
         6.59e-06       14950.65719
          6.6e-06       14951.60564
         6.61e-06       14962.53566
         6.62e-06       14964.70435
         6.63e-06       14969.92738
         6.64e-06       14964.30442
         6.65e-06       14980.91971
         6.66e-06       14976.62055
         6.67e-06       14977.39827
         6.68e-06       14964.96778
         6.69e-06       14973.94999
          6.7e-06       14971.28665
         6.71e-06       14964.53077
         6.72e-06       14963.47357
         6.73e-06       14944.79859
         6.74e-06       14947.69833
         6.75e-06         14937.037
         6.76e-06        14943.9403
         6.77e-06         14945.748
         6.78e-06       14933.12294
         6.79e-06       14940.66261
          6.8e-06       14937.89667
         6.81e-06       14945.13818
         6.82e-06       14935.36077
         6.83e-06       14927.58794
         6.84e-06       14931.79071
         6.85e-06         14928.639
         6.86e-06       14935.46098
         6.87e-06       14942.84147
         6.88e-06       14959.56382
         6.89e-06       14954.78023
          6.9e-06       14957.01227
         6.91e-06       14948.59763
         6.92e-06        14937.5936
         6.93e-06       14943.60818
         6.94e-06       14944.27233
         6.95e-06       14937.73535
         6.96e-06       14935.34278
         6.97e-06       14943.02542
         6.98e-06        14944.9834
         6.99e-06        14956.0411
            7e-06       14951.46935
         7.01e-06        14956.3456
         7.02e-06       14954.96206
         7.03e-06       14953.57843
         7.04e-06        14951.2857
         7.05e-06       14951.91882
         7.06e-06       14945.41735
         7.07e-06       14960.93405
         7.08e-06       14963.71306
         7.09e-06       14960.84633
          7.1e-06       14962.61664
         7.11e-06       14965.60197
         7.12e-06       14957.39849
         7.13e-06       14952.70804
         7.14e-06       14959.97063
         7.15e-06       14952.62473
         7.16e-06       14942.21745
         7.17e-06       14937.38862
         7.18e-06       14943.27698
         7.19e-06       14937.96654
          7.2e-06        14950.4348
         7.21e-06       14949.06275
         7.22e-06        14949.6943
         7.23e-06       14941.73628
         7.24e-06       14951.29136
         7.25e-06       14968.07184
         7.26e-06       14959.02407
         7.27e-06       14951.92343
         7.28e-06       14959.22249
         7.29e-06       14967.74975
          7.3e-06        14960.3599
         7.31e-06       14950.38646
         7.32e-06       14946.75902
         7.33e-06       14948.35693
         7.34e-06       14947.48174
         7.35e-06       14939.10337
         7.36e-06       14946.25075
         7.37e-06       14943.48098
         7.38e-06       14941.78406
         7.39e-06       14953.14943
          7.4e-06       14967.58472
         7.41e-06       14965.25506
         7.42e-06       14971.77474
         7.43e-06       14975.84997
         7.44e-06       14960.89379
         7.45e-06       14963.31656
         7.46e-06       14963.55322
         7.47e-06       14950.39064
         7.48e-06       14958.16567
         7.49e-06       14957.57383
          7.5e-06        14952.6727
         7.51e-06       14964.76788
         7.52e-06       14966.92831
         7.53e-06        14973.2034
         7.54e-06       14966.60084
         7.55e-06       14970.15935
         7.56e-06       14951.70961
         7.57e-06       14952.25625
         7.58e-06       14956.23202
         7.59e-06       14969.99524
          7.6e-06       14970.33177
         7.61e-06        14969.7429
         7.62e-06       14968.12036
         7.63e-06       14961.34292
         7.64e-06       14948.59293
         7.65e-06         14944.964
         7.66e-06        14953.7157
         7.67e-06       14949.60364
         7.68e-06       14955.55397
         7.69e-06        14957.3062
          7.7e-06       14953.86457
         7.71e-06         14960.308
         7.72e-06       14957.03569
         7.73e-06       14954.82553
         7.74e-06       14953.02317
         7.75e-06        14951.6514
         7.76e-06       14958.60411
         7.77e-06       14969.71661
         7.78e-06       14977.23491
         7.79e-06       14975.97849
          7.8e-06       14963.24813
         7.81e-06        14968.0762
         7.82e-06       14966.74486
         7.83e-06       14961.95553
         7.84e-06       14952.18796
         7.85e-06       14942.69052
         7.86e-06       14948.36966
         7.87e-06       14948.60911
         7.88e-06       14953.67156
         7.89e-06       14949.15493
          7.9e-06       14953.05527
         7.91e-06       14947.94482
         7.92e-06       14962.17025
         7.93e-06       14961.20779
         7.94e-06       14967.15113
         7.95e-06       14963.43202
         7.96e-06       14962.66488
         7.97e-06       14981.88962
         7.98e-06       14985.57785
         7.99e-06       14974.14189
            8e-06       14986.78306
         8.01e-06        14983.6435
         8.02e-06       14962.86339
         8.03e-06       14970.33719
         8.04e-06       14973.25307
         8.05e-06       14974.59021
         8.06e-06       14969.64825
         8.07e-06       14981.80731
         8.08e-06       14973.76254
         8.09e-06       14966.80889
          8.1e-06       14957.23387
         8.11e-06        14948.3754
         8.12e-06       14947.48534
         8.13e-06       14941.93601
         8.14e-06       14942.99131
         8.15e-06       14942.66632
         8.16e-06       14943.16915
         8.17e-06        14946.4481
         8.18e-06       14969.58254
         8.19e-06       14968.39827
          8.2e-06       14963.83988
         8.21e-06        14959.4229
         8.22e-06       14964.58858
         8.23e-06       14976.22295
         8.24e-06       14984.16179
         8.25e-06       14980.45841
         8.26e-06       14973.50081
         8.27e-06       14976.06572
         8.28e-06       14968.31846
         8.29e-06       14965.51515
          8.3e-06       14970.80746
         8.31e-06       14961.63166