# Probe 0 (5e-06 5e-06 5e-06)
#           Probe                 0
#            Time
            1e-08       14997.92549
            2e-08       15014.96253
            3e-08       15063.74952
            4e-08       15088.68808
            5e-08        15046.5863
            6e-08        15009.2469
            7e-08       15070.64213
            8e-08       15042.27148
            9e-08       15058.88035
            1e-07       15061.56654
          1.1e-07       15055.98612
          1.2e-07       15061.34109
          1.3e-07        15026.1095
          1.4e-07       15017.93803
          1.5e-07       14979.22626
          1.6e-07       14999.57311
          1.7e-07       15021.24677
          1.8e-07       15004.14942
          1.9e-07       14969.96577
            2e-07       14958.77857
          2.1e-07       14970.45735
          2.2e-07       14972.08218
          2.3e-07        14992.9736
          2.4e-07       14971.97917
          2.5e-07       14969.69069
          2.6e-07       14983.35785
          2.7e-07       14977.47441
          2.8e-07       15004.26957
          2.9e-07       14987.58422
            3e-07       15010.98407
          3.1e-07        14996.1154
          3.2e-07       14956.51454
          3.3e-07       14957.04159
          3.4e-07       14952.27474
          3.5e-07       14933.44243
          3.6e-07       14917.68426
          3.7e-07       14952.70042
          3.8e-07       14930.41559
          3.9e-07       14934.51316
            4e-07       14960.68829
          4.1e-07       14956.27675
          4.2e-07       14979.12823
          4.3e-07       14984.35362
          4.4e-07       14975.49885
          4.5e-07       15013.01159
          4.6e-07       14993.19405
          4.7e-07       14959.51175
          4.8e-07       14965.65642
          4.9e-07       14940.14935
            5e-07       14955.98659
          5.1e-07       14929.44075
          5.2e-07       14917.20384
          5.3e-07        14955.6404
          5.4e-07       14968.86916
          5.5e-07        14964.7318
          5.6e-07       14926.95577
          5.7e-07       14943.44056
          5.8e-07        14951.9805
          5.9e-07        14947.4944
            6e-07       14944.74821
          6.1e-07       14969.26197
          6.2e-07       14998.88831
          6.3e-07       14960.07742
          6.4e-07       14968.43061
          6.5e-07       14948.66269
          6.6e-07       14901.54305
          6.7e-07       14939.65331
          6.8e-07       14972.62696
          6.9e-07       14946.08047
            7e-07       14950.17458
          7.1e-07       14942.03853
          7.2e-07       14954.84712
          7.3e-07       14941.58464
          7.4e-07       14935.82589
          7.5e-07       14951.42772
          7.6e-07       14929.22867
          7.7e-07        14980.5138
          7.8e-07       14983.03639
          7.9e-07       14979.30748
            8e-07       14982.98714
          8.1e-07       14986.03123
          8.2e-07        14979.9401
          8.3e-07       14954.99691
          8.4e-07       14974.68225
          8.5e-07       14961.76763
          8.6e-07       14945.46518
          8.7e-07       15008.44578
          8.8e-07       14995.11206
          8.9e-07       15009.51902
            9e-07       15000.40337
          9.1e-07       15004.34704
          9.2e-07       14970.20247
          9.3e-07       14998.93904
          9.4e-07       14985.07502
          9.5e-07       15002.93369
          9.6e-07       14976.23267
          9.7e-07       14996.54816
          9.8e-07       15013.23692
          9.9e-07       15037.04862
            1e-06       15049.36572
         1.01e-06       15010.05856
         1.02e-06       15008.07412
         1.03e-06       15038.27084
         1.04e-06       15032.44631
         1.05e-06       15001.90533
         1.06e-06       15005.22483
         1.07e-06       15013.07208
         1.08e-06       15019.77658
         1.09e-06       15005.56382
          1.1e-06       15003.99692
         1.11e-06       14995.46133
         1.12e-06       15010.29432
         1.13e-06       15025.10773
         1.14e-06       15047.26653
         1.15e-06       15029.03263
         1.16e-06       15070.18554
         1.17e-06         15076.088
         1.18e-06       15021.57857
         1.19e-06       15010.44995
          1.2e-06       15037.04899
         1.21e-06       15036.25064
         1.22e-06       15079.71302
         1.23e-06       15077.91844
         1.24e-06       15038.09105
         1.25e-06       15057.99173
         1.26e-06       15007.23761
         1.27e-06        15016.8909
         1.28e-06       15031.84038
         1.29e-06       15033.08621
          1.3e-06       15005.85895
         1.31e-06       14978.05678
         1.32e-06       14937.63021
         1.33e-06       14959.22046
         1.34e-06       15006.89219
         1.35e-06       15062.41069
         1.36e-06       15066.26219
         1.37e-06       15066.19913
         1.38e-06        15071.0062
         1.39e-06       15091.19726
          1.4e-06       15101.22629
         1.41e-06        15115.6194
         1.42e-06       15099.60826
         1.43e-06       15062.00551
         1.44e-06       15052.13378
         1.45e-06       15048.36415
         1.46e-06       15008.92504
         1.47e-06       15003.34714
         1.48e-06       15037.25681
         1.49e-06       15047.47064
          1.5e-06       15063.03129
         1.51e-06       15028.40381
         1.52e-06       15033.58501
         1.53e-06       15043.04092
         1.54e-06       15015.87256
         1.55e-06       15006.04185
         1.56e-06       15010.91655
         1.57e-06       15011.28955
         1.58e-06       15014.78793
         1.59e-06        15030.2159
          1.6e-06       15035.49977
         1.61e-06       14999.13755
         1.62e-06       15000.81922
         1.63e-06       14996.63791
         1.64e-06       14996.34497
         1.65e-06       15041.13439
         1.66e-06       15036.88271
         1.67e-06       15041.02825
         1.68e-06       15025.68721
         1.69e-06       15043.83341
          1.7e-06       15032.37809
         1.71e-06       14998.22782
         1.72e-06       14970.20099
         1.73e-06       14990.04456
         1.74e-06         14986.395
         1.75e-06       15005.92968
         1.76e-06       14994.88327
         1.77e-06       15009.02927
         1.78e-06       15006.71636
         1.79e-06        15023.0525
          1.8e-06       15024.53939
         1.81e-06        15015.0893
         1.82e-06       15055.40055
         1.83e-06       15027.59672
         1.84e-06       15061.05877
         1.85e-06         15049.484
         1.86e-06       15038.98341
         1.87e-06       15017.43938
         1.88e-06       15003.93399
         1.89e-06       15026.98558
          1.9e-06       14999.08672
         1.91e-06       15001.84516
         1.92e-06       14997.29447
         1.93e-06       15005.88655
         1.94e-06        15001.9694
         1.95e-06       14991.09624
         1.96e-06       15006.88145
         1.97e-06       14992.51335
         1.98e-06       15046.72113
         1.99e-06       15072.93098
            2e-06       15071.55294
         2.01e-06       15043.89884
         2.02e-06       15048.98245
         2.03e-06       15036.19496
         2.04e-06       14962.40796
         2.05e-06       15017.76665
         2.06e-06       14983.73438
         2.07e-06       14990.67657
         2.08e-06        15035.3789
         2.09e-06        15034.2254
          2.1e-06        14978.0462
         2.11e-06       14978.28354
         2.12e-06       14983.21019
         2.13e-06       15013.81095
         2.14e-06       15012.65896
         2.15e-06       15048.65529
         2.16e-06       15066.27741
         2.17e-06       15035.16236
         2.18e-06       15054.43968
         2.19e-06       15045.47172
          2.2e-06       15045.57764
         2.21e-06       15018.09022
         2.22e-06       15034.58507
         2.23e-06       15035.82502
         2.24e-06       15036.98933
         2.25e-06       15013.95872
         2.26e-06       15033.83407
         2.27e-06       15042.91984
         2.28e-06       15043.72674
         2.29e-06       15020.04366
          2.3e-06       15024.60586
         2.31e-06       15052.63192
         2.32e-06       15065.54701
         2.33e-06       15086.94524
         2.34e-06       15057.41578
         2.35e-06       15041.33144
         2.36e-06       15020.38415
         2.37e-06       15019.00411
         2.38e-06       15030.26041
         2.39e-06       14995.83696
          2.4e-06       14972.19959
         2.41e-06       14968.23583
         2.42e-06       15016.21922
         2.43e-06       15048.09946
         2.44e-06       15046.81929
         2.45e-06       15049.33141
         2.46e-06       15061.22762
         2.47e-06       15008.44736
         2.48e-06       15045.68614
         2.49e-06       15006.63446
          2.5e-06       15032.20156
         2.51e-06       14999.57937
         2.52e-06       15020.59387
         2.53e-06       15002.13016
         2.54e-06       15010.09171
         2.55e-06       15001.19235
         2.56e-06       15006.01494
         2.57e-06       14983.85853
         2.58e-06       15011.99221
         2.59e-06       14978.00897
          2.6e-06       14961.50867
         2.61e-06       14940.21652
         2.62e-06       14920.26423
         2.63e-06         14920.916
         2.64e-06       14971.86561
         2.65e-06       14950.52429
         2.66e-06       14987.72324
         2.67e-06       14948.51876
         2.68e-06       14979.28592
         2.69e-06       14958.80754
          2.7e-06       14944.18262
         2.71e-06       14932.83808
         2.72e-06       14904.33518
         2.73e-06       14890.37055
         2.74e-06       14911.37997
         2.75e-06       14933.58743
         2.76e-06       14952.68954
         2.77e-06       14960.85006
         2.78e-06       14937.42142
         2.79e-06       14936.21856
          2.8e-06       14972.02148
         2.81e-06        14966.0951
         2.82e-06       14971.10639
         2.83e-06       14985.63722
         2.84e-06       15020.79714
         2.85e-06       15016.70209
         2.86e-06       15038.70359
         2.87e-06       15025.61116
         2.88e-06       15014.36982
         2.89e-06       15016.00967
          2.9e-06       15013.91222
         2.91e-06       15054.37029
         2.92e-06       15068.07721
         2.93e-06       15057.07834
         2.94e-06       15069.02629
         2.95e-06       15030.45779
         2.96e-06       15025.70623
         2.97e-06       15023.09386
         2.98e-06        14962.4164
         2.99e-06       14965.90424
            3e-06       14974.52363
         3.01e-06       14995.63259
         3.02e-06       15009.21446
         3.03e-06       15030.10967
         3.04e-06        15005.3173
         3.05e-06       15000.90655
         3.06e-06        14989.7331
         3.07e-06       14986.89075
         3.08e-06       14972.50427
         3.09e-06       14977.64819
          3.1e-06        14988.1892
         3.11e-06        15021.4166
         3.12e-06       15025.26466
         3.13e-06       15037.43636
         3.14e-06       15005.24203
         3.15e-06       14954.92767
         3.16e-06       15009.92727
         3.17e-06       15047.65825
         3.18e-06        15045.8828
         3.19e-06       15071.81903
          3.2e-06       15058.15604
         3.21e-06       15077.23568
         3.22e-06       15080.00804
         3.23e-06       15083.10017
         3.24e-06       15082.61013
         3.25e-06       15056.08865
         3.26e-06       15022.45678
         3.27e-06       15015.81303
         3.28e-06        14993.6034
         3.29e-06       15032.57518
          3.3e-06       15007.95131
         3.31e-06        14987.1441
         3.32e-06        14983.2961
         3.33e-06       15013.03345
         3.34e-06       14990.76942
         3.35e-06       14959.42174
         3.36e-06       14993.80715
         3.37e-06       14997.59742
         3.38e-06       15011.08266
         3.39e-06       14997.07457
          3.4e-06       14993.55696
         3.41e-06       14994.83058
         3.42e-06       14983.84249
         3.43e-06       14984.29889
         3.44e-06       14981.05412
         3.45e-06       14975.88788
         3.46e-06       14916.22068
         3.47e-06        14915.7993
         3.48e-06       14893.81308
         3.49e-06       14946.87726
          3.5e-06       14938.35703
         3.51e-06       14972.21155
         3.52e-06       14981.51719
         3.53e-06       14961.89332
         3.54e-06       14965.62681
         3.55e-06       14992.81848
         3.56e-06       15019.64553
         3.57e-06       14990.32933
         3.58e-06       14997.49213
         3.59e-06       14980.00086
          3.6e-06       15011.57022
         3.61e-06       15015.86754
         3.62e-06       15034.80642
         3.63e-06       15009.55849
         3.64e-06       14973.70667
         3.65e-06       14988.13606
         3.66e-06       15011.48578
         3.67e-06       15045.65029
         3.68e-06       15086.56079
         3.69e-06       15089.63646
          3.7e-06       15045.79857
         3.71e-06       15049.88544
         3.72e-06       15059.05589
         3.73e-06       15078.84662
         3.74e-06        15047.9759
         3.75e-06       15027.86695
         3.76e-06       15022.10409
         3.77e-06       14984.85833
         3.78e-06        14980.8788
         3.79e-06       14962.85364
          3.8e-06       14987.75588
         3.81e-06       14998.50709
         3.82e-06       14984.59753
         3.83e-06       15011.68603
         3.84e-06       15023.25888
         3.85e-06       15032.88253
         3.86e-06       15024.44071
         3.87e-06       15032.14438
         3.88e-06        14967.0836
         3.89e-06       14993.29373
          3.9e-06       15022.31751
         3.91e-06       15020.27786
         3.92e-06       15021.35527
         3.93e-06       15003.75642
         3.94e-06       15029.46416
         3.95e-06       15046.56499
         3.96e-06        15085.8284
         3.97e-06       15077.61128
         3.98e-06       15087.99719
         3.99e-06       15070.55247
            4e-06        15093.4883
         4.01e-06       15071.03265
         4.02e-06       15032.03769
         4.03e-06       15005.38084
         4.04e-06       15013.74697
         4.05e-06       15065.26572
         4.06e-06       15067.32315
         4.07e-06       15102.42245
         4.08e-06       15103.32194
         4.09e-06       15084.81059
          4.1e-06       15084.07015
         4.11e-06       15106.03449
         4.12e-06       15078.62231
         4.13e-06       15004.82179
         4.14e-06        15014.6697
         4.15e-06       15055.46762
         4.16e-06       15053.17624
         4.17e-06       15033.37634
         4.18e-06        15023.5593
         4.19e-06        15011.9531
          4.2e-06       14983.51162
         4.21e-06       14986.75138
         4.22e-06       15006.58688
         4.23e-06       15028.41153
         4.24e-06       15028.51449
         4.25e-06       15059.17088
         4.26e-06       15060.09048
         4.27e-06       15044.67766
         4.28e-06       15010.82711
         4.29e-06       14983.98624
          4.3e-06       15025.76486
         4.31e-06       15054.42071
         4.32e-06       15059.76102
         4.33e-06       15050.97087
         4.34e-06       15070.91256
         4.35e-06       15084.37519
         4.36e-06       15055.76963
         4.37e-06       15065.29837
         4.38e-06       15059.00602
         4.39e-06        15053.6058
          4.4e-06       15059.85603
         4.41e-06       15052.82546
         4.42e-06       15035.61282
         4.43e-06       15010.14778
         4.44e-06       15019.29529
         4.45e-06       15041.67103
         4.46e-06        15024.1846
         4.47e-06        15017.5318
         4.48e-06       14983.37021
         4.49e-06        14991.7573
          4.5e-06       15008.15368
         4.51e-06       15003.84672
         4.52e-06       15021.54883
         4.53e-06       15030.63153
         4.54e-06       15041.48436
         4.55e-06       15002.41089
         4.56e-06       15002.16771
         4.57e-06       14970.19653
         4.58e-06         14922.508
         4.59e-06       14974.90547
          4.6e-06       14951.49704
         4.61e-06         14914.316
         4.62e-06       14873.90152
         4.63e-06       14875.76134
         4.64e-06       14919.25244
         4.65e-06       14934.16959
         4.66e-06       14940.16819
         4.67e-06        14992.6856
         4.68e-06       14966.82622
         4.69e-06       14978.26398
          4.7e-06       14964.53591
         4.71e-06       14947.53331
         4.72e-06       14950.21995
         4.73e-06       14976.69121
         4.74e-06       14981.57332
         4.75e-06       14982.13956
         4.76e-06       14982.32852
         4.77e-06       14986.10886
         4.78e-06       14959.70232
         4.79e-06       14990.34529
          4.8e-06        15023.1457
         4.81e-06       15008.09227
         4.82e-06       15009.50947
         4.83e-06       15000.48102
         4.84e-06       15010.29339
         4.85e-06       14969.98611
         4.86e-06        14970.0736
         4.87e-06       14955.25238
         4.88e-06        14885.5008
         4.89e-06        14879.8422
          4.9e-06       14899.54679
         4.91e-06       14932.01185
         4.92e-06       14986.26573
         4.93e-06       14963.78498
         4.94e-06       14982.58195
         4.95e-06       15003.45116
         4.96e-06       14971.86691
         4.97e-06       14995.58052
         4.98e-06       14985.68426
         4.99e-06       14957.80452
            5e-06       14954.32902
         5.01e-06        14912.7924
         5.02e-06       14925.06459
         5.03e-06       14940.58796
         5.04e-06       14941.95028
         5.05e-06       14960.26649
         5.06e-06       14955.43717
         5.07e-06       14976.79434
         5.08e-06       14942.05282
         5.09e-06       14924.47767
          5.1e-06       14926.17536
         5.11e-06       14920.21419
         5.12e-06       14934.79323
         5.13e-06       14949.50393
         5.14e-06       14968.19448
         5.15e-06       14947.95693
         5.16e-06       14954.77695
         5.17e-06       14964.60754
         5.18e-06        14980.9838
         5.19e-06       15006.46708
          5.2e-06       15045.33557
         5.21e-06       15036.41993
         5.22e-06       15003.60027
         5.23e-06       15037.31523
         5.24e-06       15025.04585
         5.25e-06       15021.37345
         5.26e-06       14986.38503
         5.27e-06       14995.68431
         5.28e-06       15003.37075
         5.29e-06       15007.55142
          5.3e-06       14981.78324
         5.31e-06       14967.10019
         5.32e-06       14986.53848
         5.33e-06       14996.41058
         5.34e-06       15014.94964
         5.35e-06       15020.54464
         5.36e-06       15065.04151
         5.37e-06       15035.26469
         5.38e-06       15040.43006
         5.39e-06       15020.40309
          5.4e-06       15028.01907
         5.41e-06       14984.83173
         5.42e-06       14963.00349
         5.43e-06       14967.97662
         5.44e-06       14940.60954
         5.45e-06       14935.55473
         5.46e-06       14966.94236
         5.47e-06       14999.28179
         5.48e-06       14997.32224
         5.49e-06       14991.35826
          5.5e-06        14974.3474
         5.51e-06       14952.15465
         5.52e-06       14933.64346
         5.53e-06       14898.51556
         5.54e-06       14889.32992
         5.55e-06       14901.66879
         5.56e-06       14900.15478
         5.57e-06       14946.45238
         5.58e-06       14950.52137
         5.59e-06       14944.95449
          5.6e-06       14947.64168
         5.61e-06        14934.9221
         5.62e-06       14961.03942
         5.63e-06       14946.92289
         5.64e-06       14945.31086
         5.65e-06       14968.02315
         5.66e-06       14979.67012
         5.67e-06       14993.97408
         5.68e-06        15013.6116
         5.69e-06       15029.64329
          5.7e-06       15042.34652
         5.71e-06        15031.8817
         5.72e-06       15041.01093
         5.73e-06       14977.05099
         5.74e-06       14971.94972
         5.75e-06       14975.07232
         5.76e-06       14995.92957
         5.77e-06       15016.97795
         5.78e-06       14980.15745
         5.79e-06       14971.11482
          5.8e-06       14954.33828
         5.81e-06       14938.12424
         5.82e-06        14941.7008
         5.83e-06        14963.2206
         5.84e-06       14970.90843
         5.85e-06       14943.09442
         5.86e-06       14969.04987
         5.87e-06        14970.4008
         5.88e-06       14968.49617
         5.89e-06       14971.39264
          5.9e-06       14990.83793
         5.91e-06       14968.39652
         5.92e-06       14980.08369
         5.93e-06       14999.33353
         5.94e-06       14991.53938
         5.95e-06       14929.12727
         5.96e-06       14950.19559
         5.97e-06       14959.63197
         5.98e-06       14940.76434
         5.99e-06       14920.84338
            6e-06       14943.72976
         6.01e-06       14921.62884
         6.02e-06       14920.88941
         6.03e-06       14967.93386
         6.04e-06       14994.69646
         6.05e-06       15011.47333
         6.06e-06       15010.97944
         6.07e-06       15016.39915
         6.08e-06       14987.08071
         6.09e-06       14981.36341
          6.1e-06       15024.29707
         6.11e-06       15011.76294
         6.12e-06       14997.42186
         6.13e-06       14969.20534
         6.14e-06       14926.60396
         6.15e-06       14932.99713
         6.16e-06       14929.05425
         6.17e-06       14939.93461
         6.18e-06       14928.50423
         6.19e-06       14920.57448
          6.2e-06       14935.53648
         6.21e-06       14956.21662
         6.22e-06       14938.47559
         6.23e-06       14919.42611
         6.24e-06       14950.69996
         6.25e-06       14947.20994
         6.26e-06       14966.91011
         6.27e-06       14976.55601
         6.28e-06       14937.20525
         6.29e-06       14947.92792
          6.3e-06       14963.28926
         6.31e-06       15017.88397
         6.32e-06       15011.90515
         6.33e-06       15010.93695
         6.34e-06       15005.15792
         6.35e-06       15032.95694
         6.36e-06        15024.2771
         6.37e-06       15036.52141
         6.38e-06       15052.24347
         6.39e-06       15041.75393
          6.4e-06       14996.40516
         6.41e-06       14981.25686
         6.42e-06       14955.08631
         6.43e-06       14955.09694
         6.44e-06       14951.71344
         6.45e-06       14956.92613
         6.46e-06       14971.78639
         6.47e-06       15004.07925
         6.48e-06       15014.30402
         6.49e-06       14999.86017
          6.5e-06       14977.69557
         6.51e-06       15001.72051
         6.52e-06       15020.67437
         6.53e-06       15015.74802
         6.54e-06       15000.00855
         6.55e-06       14990.70361
         6.56e-06       15012.63329
         6.57e-06       15011.28428
         6.58e-06       15020.59258
         6.59e-06       14989.63653
          6.6e-06       14985.11249
         6.61e-06       15014.35799
         6.62e-06       15019.31209
         6.63e-06       15041.66023
         6.64e-06       15025.12703
         6.65e-06       15069.43633
         6.66e-06       15056.88575
         6.67e-06       15064.64849
         6.68e-06       15035.28843
         6.69e-06       15060.14906
          6.7e-06       15061.16465
         6.71e-06       15039.46627
         6.72e-06       15041.68774
         6.73e-06       14989.95565
         6.74e-06       15001.77207
         6.75e-06       14970.74075
         6.76e-06       14988.22778
         6.77e-06        14987.0836
         6.78e-06       14953.18982
         6.79e-06       14974.86367
          6.8e-06       14967.67526
         6.81e-06       14994.85429
         6.82e-06       14956.19484
         6.83e-06       14928.74787
         6.84e-06       14937.95292
         6.85e-06        14929.4453
         6.86e-06       14946.67564
         6.87e-06       14962.44336
         6.88e-06       15011.60816
         6.89e-06       14997.88788
          6.9e-06       15009.03872
         6.91e-06       14984.00957
         6.92e-06        14949.0374
         6.93e-06        14967.8805
         6.94e-06       14968.09414
         6.95e-06       14957.02658
         6.96e-06       14951.60077
         6.97e-06       14974.58404
         6.98e-06       14975.01968
         6.99e-06       15006.99632
            7e-06       14992.38375
         7.01e-06       14998.14262
         7.02e-06       14994.79744
         7.03e-06       14989.68767
         7.04e-06       14980.83751
         7.05e-06       14982.65989
         7.06e-06       14964.36646
         7.07e-06       15003.84303
         7.08e-06       15009.63139
         7.09e-06       15000.03778
          7.1e-06       15001.16661
         7.11e-06       15008.02058
         7.12e-06       14984.85594
         7.13e-06       14973.96208
         7.14e-06       14995.81273
         7.15e-06       14974.03022
         7.16e-06       14949.95378
         7.17e-06       14940.09992
         7.18e-06       14958.59309
         7.19e-06        14952.9867
          7.2e-06       14990.69738
         7.21e-06       14984.87026
         7.22e-06       14983.52714
         7.23e-06       14953.11117
         7.24e-06       14984.55134
         7.25e-06        15033.0972
         7.26e-06       15013.25315
         7.27e-06       14990.29547
         7.28e-06       15009.84802
         7.29e-06       15040.81283
          7.3e-06       15026.48265
         7.31e-06       15005.12834
         7.32e-06       14988.70376
         7.33e-06       14991.13727
         7.34e-06        14984.0811
         7.35e-06       14953.92132
         7.36e-06       14972.14385
         7.37e-06       14961.78711
         7.38e-06       14958.78929
         7.39e-06       14991.52866
          7.4e-06       15029.34602
         7.41e-06       15022.72936
         7.42e-06       15032.31382
         7.43e-06         15037.389
         7.44e-06       14993.32242
         7.45e-06       15001.82117
         7.46e-06       15004.33799
         7.47e-06       14966.90884
         7.48e-06       14989.72294
         7.49e-06       14990.71883
          7.5e-06       14978.04856
         7.51e-06       15009.59297
         7.52e-06       15024.90886
         7.53e-06       15042.86751
         7.54e-06       15016.45266
         7.55e-06       15024.15182
         7.56e-06       14967.48871
         7.57e-06       14961.40659
         7.58e-06       14968.92443
         7.59e-06       15017.15353
          7.6e-06       15010.34753
         7.61e-06       15006.22074
         7.62e-06        15006.2321
         7.63e-06       14986.68129
         7.64e-06       14949.36671
         7.65e-06       14937.22047
         7.66e-06        14961.3091
         7.67e-06       14945.24348
         7.68e-06       14956.49599
         7.69e-06        14962.4156
          7.7e-06       14948.91723
         7.71e-06       14972.42236
         7.72e-06       14964.98398
         7.73e-06       14958.99655
         7.74e-06       14954.29372
         7.75e-06         14955.582
         7.76e-06       14975.16108
         7.77e-06       14999.13364
         7.78e-06       15019.83559
         7.79e-06       15026.13471
          7.8e-06       14987.63737
         7.81e-06       14998.42986
         7.82e-06       14995.74229
         7.83e-06       14980.05052
         7.84e-06        14956.7676
         7.85e-06        14925.3488
         7.86e-06       14947.03507
         7.87e-06       14943.03727
         7.88e-06       14957.51466
         7.89e-06        14950.9832
          7.9e-06       14970.01067
         7.91e-06       14968.88026
         7.92e-06       15002.90464
         7.93e-06       15003.01963
         7.94e-06       15025.27113
         7.95e-06       15018.47997
         7.96e-06       15012.11322
         7.97e-06       15064.16811
         7.98e-06       15066.71977
         7.99e-06       15029.94673
            8e-06       15061.37899
         8.01e-06       15054.04853
         8.02e-06       14995.22841
         8.03e-06       15020.27054
         8.04e-06        15027.0077
         8.05e-06       15037.30625
         8.06e-06        15030.7638
         8.07e-06       15067.60944
         8.08e-06       15052.03405
         8.09e-06       15032.07158
          8.1e-06       15005.58686
         8.11e-06       14982.14511
         8.12e-06       14976.67786
         8.13e-06        14964.7991
         8.14e-06       14964.58746
         8.15e-06       14963.99596
         8.16e-06       14962.71149
         8.17e-06       14974.83842
         8.18e-06       15037.86104
         8.19e-06       15035.51625
          8.2e-06       15020.64141
         8.21e-06       15000.64335
         8.22e-06       15012.20771
         8.23e-06       15036.36195
         8.24e-06       15053.54243
         8.25e-06       15040.20955
         8.26e-06       15025.25204
         8.27e-06       15031.22723
         8.28e-06       15011.64379
         8.29e-06       15005.35301
          8.3e-06       15018.25775
         8.31e-06       14981.47368