/*--------------------------------*- C++ -*----------------------------------*\
| =========                 |                                                 |
| \\      /  F ield         | OpenFOAM: The Open Source CFD Toolbox           |
|  \\    /   O peration     | Version:  v1706                                 |
|   \\  /    A nd           | Web:      www.OpenFOAM.com                      |
|    \\/     M anipulation  |                                                 |
\*---------------------------------------------------------------------------*/
FoamFile
{
    version     2.0;
    format      ascii;
    class       vectorField;
    location    "7/lagrangian/dsmc";
    object      U;
}
// * * * * * * * * * * * * * * * * * * * * * * * * * * * * * * * * * * * * * //


47581
(
(150.1951861 1196.525789 -1343.475088)
(747.3406951 -362.2764111 501.3931548)
(715.8629584 -23.57455062 142.5136159)
(-6.805715238 -352.8027421 -1491.879139)
(611.0881174 -1360.665861 139.8211397)
(-3.169325773 596.6014312 770.5794837)
(-543.3294653 -900.423669 1737.963487)
(-551.742013 -1137.513628 -2336.685043)
(239.8823246 219.7742884 -1980.623784)
(-306.0647877 -1230.572215 969.2137894)
(-597.0324019 1140.817821 759.5982472)
(-807.6380826 1360.969961 -391.9703429)
(-823.5999229 -608.0933925 -97.9165999)
(645.9279782 417.0361452 -234.3886587)
(827.4176184 -379.421542 1066.849604)
(595.2696182 459.9977553 1422.493993)
(567.632471 267.9402623 207.2328218)
(-214.2099758 -1471.637076 131.496969)
(-1984.304684 -103.2051991 382.9861621)
(-557.8839286 -9.586082938 -574.8489119)
(-111.0937172 -704.2289035 -107.5256898)
(-1291.392053 -941.8517544 861.5706819)
(-251.6586994 539.521316 471.6090693)
(1440.188582 662.7975916 171.2889866)
(546.516022 120.3876726 -1157.031139)
(-263.9236305 -567.28357 -1414.460381)
(976.2528524 -503.9851491 -69.18146114)
(-144.5606335 -669.5420605 494.203621)
(1387.105335 -776.559783 1647.021349)
(782.2922203 1427.149853 508.6317314)
(-292.0031427 195.8637586 -672.8225035)
(1217.021618 744.4819255 604.4927876)
(245.6996242 903.6242992 1126.817963)
(141.6466385 721.8096753 -566.5086607)
(1234.478384 206.3090107 -1561.201003)
(263.0743102 542.9995464 151.4215162)
(-415.8309721 693.9518365 899.9309546)
(-1086.897409 -615.1490037 -808.9609868)
(328.7491942 156.3118176 -1704.046213)
(140.8065647 -1169.504463 -94.53406969)
(326.6962258 1036.086696 -527.8268067)
(247.6313998 729.4942767 191.0280181)
(229.076292 -68.81764294 -157.4878761)
(1449.977006 1044.315816 -415.8042593)
(188.7788758 124.7886005 -331.9157179)
(1020.440656 -1211.588814 742.2451436)
(1201.709775 -37.11128561 -696.4089635)
(10.47551516 205.4860854 1152.944639)
(-451.5624057 -236.7923999 -645.5539184)
(-232.7662873 1754.187848 1482.749336)
(2099.402738 -2348.692102 71.20145548)
(77.39714154 -1512.103321 985.1659393)
(-16.23215091 1421.751679 -1054.946544)
(-97.87831448 -1157.976269 499.3181498)
(-1033.592405 645.4848305 -1187.954113)
(798.3315456 -592.0651879 -64.70139125)
(570.6927433 -402.3372368 -657.4255085)
(-531.6881385 -260.5475649 916.5466413)
(1931.355969 1506.134201 -95.15237854)
(-615.3394761 -120.2964995 592.5708501)
(105.4928138 594.7843908 -366.316375)
(1429.164808 125.3584142 -276.1774033)
(771.1460816 -960.3570845 -508.5214998)
(262.8370108 308.3000123 723.6910935)
(864.3074125 144.372054 -344.2977309)
(1610.751714 5.17830753 -160.1061434)
(518.3156721 -1298.915661 401.536436)
(1129.493344 -140.8896476 -135.5346394)
(-277.3035717 -942.8279404 -284.6301569)
(-14.4681597 -60.83997602 1375.85412)
(-363.1002803 115.0414054 -83.0929454)
(551.7877806 113.4984697 1744.160586)
(378.3987845 1697.098979 1197.145163)
(658.9988576 -501.3905461 -1578.25056)
(387.5666475 -299.1974601 1081.349617)
(-744.6838217 980.5578421 798.2157078)
(1587.894524 161.4715627 2013.325899)
(879.7607301 521.9426484 867.898142)
(-902.6599784 -336.0638926 351.7811377)
(1221.417949 -222.7255274 -791.9787356)
(2304.037164 424.0310908 1291.774655)
(80.76713912 -30.86217363 250.6867426)
(799.1830254 -1654.584516 806.1637083)
(-304.0904525 -1178.113777 868.7463388)
(0.08349518658 97.14597755 645.234401)
(669.001241 -811.7888223 15.78031504)
(-716.872168 464.9813219 1149.981091)
(658.82575 254.73214 -1177.478095)
(-111.1445506 -751.8032783 255.6812363)
(725.0245771 -1120.813001 -1410.2399)
(558.9770602 -245.7231031 578.3147627)
(32.09192229 -150.3700148 1383.969457)
(344.0573968 373.9731923 787.3976278)
(1162.103662 -1174.332873 -1500.564871)
(561.5581881 -56.1975268 567.6943916)
(1230.207711 -149.6489961 -16.44873135)
(227.8720793 -520.5741851 291.8440692)
(977.465972 662.7830124 -936.5967424)
(1996.229314 184.0271202 157.3488908)
(1050.526987 618.88762 -377.0784883)
(-307.9275417 1525.256282 -266.3952413)
(-1326.14067 557.2508731 1618.654438)
(-183.9187918 233.3098957 720.9810078)
(-887.6215458 -525.675454 63.32114123)
(390.2580835 545.5606076 1467.990479)
(52.6453403 -768.1797958 -33.71501331)
(985.3201486 410.0202922 1018.130413)
(-1457.169803 -1370.23803 -21.57730049)
(361.0299339 -28.81880208 1199.750261)
(-960.5838575 1779.625234 -702.6676847)
(615.1962491 -428.8622406 -218.9795424)
(-109.0134445 872.58584 891.7937304)
(-114.6765694 -434.5730142 250.8548917)
(-1821.617292 1159.25636 -2066.125399)
(-2577.117176 -582.0794056 519.9241016)
(373.9275941 -2505.478581 636.5673509)
(-1.494930899 175.2092377 -1668.746567)
(-1131.77667 86.5020137 -536.6027663)
(-424.6383508 798.0569547 -261.9345881)
(940.9111859 868.463076 1206.393826)
(742.9736961 1306.51322 -1537.403662)
(1115.727027 348.7420142 143.032557)
(-339.8276284 -68.87634494 278.6761024)
(1750.966861 -1135.113511 -1149.124755)
(-663.8247662 1987.126048 -586.285319)
(11.93074193 -249.0331593 -229.3759749)
(-410.5127946 -1066.362397 1421.611579)
(1591.497816 559.2310699 2000.576397)
(-91.69610121 -1416.482168 -1236.803401)
(297.7468919 289.7501866 -149.4167299)
(179.0746374 -970.1860944 85.83657474)
(1155.821205 471.0215664 664.0424562)
(-170.9555477 -839.4742441 -500.0038368)
(-913.2812495 -382.8661848 -81.61580107)
(1306.126016 1084.854632 819.9105151)
(-1085.12613 641.3926977 -114.7933187)
(-366.6305006 -253.1648571 88.20545493)
(1169.055176 799.6254213 523.0500126)
(467.9095006 7.418910491 -352.5525831)
(-1005.823875 644.8669171 -244.6075395)
(476.6038362 -270.331357 -77.45722625)
(330.8057922 35.86268199 -1828.580856)
(-104.0603325 -794.0221623 -91.04694344)
(-808.120282 491.1514105 470.4612574)
(1079.900399 900.7488898 430.4226647)
(235.6341554 -826.02245 605.5669209)
(1142.584271 931.3490554 -206.644099)
(405.5086191 -94.55275963 1328.636339)
(-374.0389435 -684.0576704 141.1919141)
(541.7298899 -342.7474677 -212.3035601)
(1618.62798 -398.4058541 -274.58182)
(512.2112565 -1339.979417 -709.4473442)
(775.4291861 -319.9435718 46.02843708)
(-16.09377203 483.1826368 -1822.633628)
(972.7345602 -937.2072377 -161.7218585)
(1375.38699 -993.1948287 1244.993019)
(-91.9601208 703.9194015 484.9207702)
(-112.176362 69.18776137 926.1586646)
(1022.818899 1751.020173 199.3213021)
(-2604.590325 1244.329874 347.2714666)
(417.7827166 -399.0433615 -1281.526605)
(565.3243442 -1338.82575 -165.4937765)
(-1080.598131 -837.5275607 81.04795594)
(-1120.046374 74.68761854 1038.548354)
(997.1998232 -96.36235089 -863.1878403)
(-1842.799579 479.3638443 80.7614467)
(-817.2951913 -75.68066841 482.5791461)
(-1219.723614 -1086.002037 754.9093328)
(406.884153 490.9790362 331.1768329)
(26.81552019 -228.9149102 824.345249)
(965.5095678 -642.1391561 33.19796623)
(-269.1949282 -417.9042169 -487.0595915)
(-541.6551731 -268.5288997 -881.8450196)
(1218.809566 889.7197801 -77.38133384)
(-412.1651605 -526.0089337 870.2031695)
(1540.166623 -20.33834942 -1854.6577)
(-103.4282676 469.7193629 -443.1268561)
(-615.5456645 1028.988606 20.26721996)
(-692.634021 -868.2458964 -256.5602768)
(-366.4541265 -1700.746967 -299.5964701)
(-155.5824984 943.4644942 -477.708738)
(-1346.99496 -602.1100923 -1120.410737)
(1174.154637 135.1408445 -427.2088035)
(-580.6899145 -318.9106127 -92.66606351)
(1112.370045 347.8734452 -61.36273464)
(562.3700241 -10.52042676 1190.245734)
(-1101.651265 -285.131241 541.0502673)
(-188.49353 141.7180727 343.04868)
(212.6985739 535.4075363 142.1656185)
(29.48325199 1855.50317 -1229.64697)
(1037.735909 -926.7560593 1635.740203)
(-491.6049412 -1760.2791 -565.1152984)
(-542.2691731 -1656.145016 -863.2314768)
(221.4152226 -220.8574204 -465.597345)
(-69.99868968 324.3853244 413.4311657)
(646.898898 -448.5805017 -245.9535528)
(685.4845184 718.4042153 1115.48572)
(-473.6464888 -259.7502935 -238.5192642)
(1946.667193 524.6304884 94.1713391)
(2268.834231 1166.231637 -310.9806653)
(-1932.458209 671.5121435 1449.288196)
(-170.6881639 5.894085797 36.57151031)
(2073.30152 123.6104408 1180.550971)
(696.485797 -617.0443303 -163.9106493)
(147.6002335 -1698.077388 -1525.68597)
(490.3279342 73.45683889 1315.826279)
(-215.3916866 -780.6957642 1515.460771)
(983.3671905 -52.17832238 -233.0203561)
(-140.5926079 -173.661993 25.6363936)
(-1031.651934 -1114.014193 -668.0433982)
(-20.72238744 294.3533836 1273.652227)
(1235.810599 -382.3933953 1172.184294)
(-1429.941593 187.283906 -1288.765357)
(-19.75036969 1729.678387 -226.2911778)
(1048.22705 -198.8269186 557.7526914)
(1588.56549 -1220.015633 261.0049904)
(208.5481748 -2418.517876 -909.3141831)
(89.92463896 145.204984 185.0310212)
(1551.882141 167.9851532 566.0729718)
(-1104.00878 19.00192381 -61.76995682)
(-543.4003555 16.83161667 836.7588426)
(-1650.270387 -1668.71275 170.8786459)
(521.3525008 650.5216397 -1585.935733)
(1163.865729 342.6702279 1010.468689)
(276.2749548 444.6688796 -1155.643832)
(-765.7833536 -447.624687 -490.4324062)
(-1259.317877 386.248011 -1339.219172)
(-1148.166749 478.6740401 594.0892931)
(-329.945246 -466.5781246 2.853449926)
(-1259.327508 126.4089279 319.8588907)
(958.1574472 345.9059528 -351.1394904)
(-250.2297695 -544.9862196 -42.3940463)
(1217.845275 292.6120405 588.637014)
(-1624.373446 215.210207 -973.0158001)
(1289.488371 1090.604207 501.4505731)
(-325.8459412 -690.2764162 1346.683852)
(-236.7984954 -1247.695352 -555.379711)
(317.775477 1448.63039 -405.298145)
(316.5185566 49.07184993 181.6395509)
(1574.009818 -134.4083107 -26.63554546)
(-310.3973424 200.3691042 -718.7070161)
(1738.724734 906.4422127 111.4004247)
(-442.5767843 -639.0116229 -219.1902013)
(685.59556 -766.9001595 1037.46813)
(552.3545587 651.4340044 -20.8752164)
(-62.70211287 248.3364997 852.0120181)
(389.8946089 102.1481382 -1276.076019)
(111.8142311 946.1013829 -1099.458036)
(464.3520614 -1606.972494 -954.9347939)
(-929.751506 -787.5470375 -264.9097197)
(-82.38125613 -119.854951 562.109975)
(6.20739896 -748.1827741 461.0908921)
(-676.9099539 -386.5472483 -413.3363769)
(1147.995413 34.1516305 1508.605737)
(-304.2068228 458.5161344 2154.775969)
(466.4256946 -1698.835091 -1100.749739)
(139.9130605 329.379391 -7.826550746)
(-1372.394106 -825.0487358 233.0935654)
(-207.0690798 -1833.338808 -418.291128)
(-536.1893255 -530.9536549 491.617115)
(665.6858253 161.4247467 11.19106593)
(-2201.185521 -474.4093885 1440.011759)
(-57.16444262 -1934.639519 -554.9764188)
(35.41820129 675.0427829 -563.6830789)
(71.46776533 -1212.101392 807.896088)
(305.5334845 -160.6845628 1282.127707)
(254.6577226 -146.0471513 -185.3558893)
(-820.1620442 494.9450488 266.5921195)
(659.1478648 729.5178671 823.1339596)
(1543.554203 -7.578129201 187.0068519)
(550.7415284 -744.3792955 486.6177197)
(-1322.14827 503.9660828 -1.639028309)
(-1400.350413 -1400.781326 -1137.200119)
(-374.249307 -1245.492077 112.5154114)
(-0.5110589187 744.8760346 146.1146625)
(383.1983522 -83.82287908 -282.7022232)
(1312.501303 738.5988046 -749.3620375)
(708.4447831 696.9190201 -1929.968332)
(282.9121701 835.4237532 -1128.322189)
(100.6666216 468.5910518 -1254.163551)
(-432.8589922 603.2858529 -761.8005682)
(-613.9468673 -1259.156845 -787.0584261)
(1087.935652 -371.400969 -772.2343541)
(127.9602952 27.31621667 -2232.403397)
(172.2438528 -910.3730754 123.1130667)
(-221.396345 -88.92003096 469.8738615)
(-738.311602 -711.2957642 -1617.376774)
(-693.2518202 149.398433 -38.36245041)
(494.1557172 675.1121419 -832.7558658)
(70.78421013 -341.083159 -506.0884756)
(-912.1086545 -1001.703139 242.2258908)
(562.8069989 -609.2057178 -81.51648244)
(-230.9532042 -532.9904143 -1370.826977)
(-1342.806974 -355.3863361 -364.9700499)
(-748.8813732 -339.7364978 1837.95167)
(-417.8922459 -325.9697425 111.2899708)
(588.2510192 744.6415301 229.2779867)
(-26.77892569 258.5218201 1099.895954)
(1009.338255 199.1327382 498.2556031)
(1020.979685 -650.6050644 466.9636937)
(-1158.910734 -747.8626608 -1477.308584)
(-743.4684172 -99.95349525 135.2947502)
(-367.3090391 -479.8334221 306.8861477)
(-246.8158133 863.5590629 277.6745219)
(-355.6467542 667.7651805 1365.431735)
(1518.906261 -523.9210947 -735.4832038)
(991.6073229 -179.5579502 -119.9285731)
(1301.012231 538.2581199 1235.034335)
(-2037.376215 -379.3652105 -170.4248335)
(-1076.813185 -47.09208118 1363.78959)
(-634.628847 861.6499875 89.23579184)
(1546.672476 407.1187959 -217.4407526)
(1631.849691 1210.521429 430.0854859)
(799.4328634 136.961948 -1128.640047)
(949.6788717 283.0981295 366.7200509)
(1401.697542 -185.3548236 363.4332231)
(-234.3806929 -807.8223697 -1084.032115)
(1820.934918 -23.26626836 265.1214482)
(-486.3385407 -221.4945576 -718.2575717)
(955.0685239 -1234.156833 1022.304062)
(1782.36039 251.4494227 -440.7732608)
(-192.0267318 65.43705825 -444.4896904)
(1026.863285 391.257554 1235.680347)
(87.71695456 -397.5717454 -1512.055898)
(134.3210083 -728.5566783 -194.660653)
(291.83475 -809.8926906 -116.0195204)
(435.780972 -615.1575343 -2395.076738)
(1630.138502 677.410205 1543.555701)
(1087.559676 179.1009352 858.2017291)
(583.1370561 1137.476144 14.30222822)
(131.754573 790.1573999 1177.713687)
(-308.4247812 1310.659736 2378.409323)
(222.9555452 -833.2958125 -666.9064271)
(1336.166282 -290.4493694 759.998151)
(1580.717421 -1417.045174 1192.925839)
(-929.4379415 61.7608213 529.3523941)
(435.351007 -581.7718546 1205.657546)
(448.3200752 676.5729288 -931.7119977)
(1158.621007 1007.281798 -444.6865466)
(222.7709172 1553.110963 -181.2375431)
(-895.9688867 -749.8958502 -280.5481269)
(1515.068061 -1086.355075 88.57788584)
(1512.483718 -217.2621248 400.4514118)
(192.5989107 487.0873463 453.3304786)
(49.07349933 436.5390485 804.7532782)
(-631.6282112 -1457.204284 -1786.462025)
(436.5004528 465.3623545 622.6523127)
(-0.3559671015 -35.69247716 1363.34827)
(251.2067569 -191.3403848 -617.1655935)
(124.8193797 -888.2710795 -1381.527569)
(-447.9819249 -1439.078776 -55.65478405)
(1103.400232 829.9664492 -845.5532498)
(-831.4097852 -428.945885 -335.9556238)
(-68.63808602 195.5180154 110.5182336)
(1529.551171 906.3520324 2066.996768)
(-181.7750405 516.6952134 660.0197213)
(-363.4598424 -1024.296241 -1282.445906)
(941.3295441 -710.1179467 406.568898)
(-128.1003153 246.3103574 -1045.223645)
(-192.172765 27.75384602 1451.691276)
(547.2852203 -751.5096444 -1056.589323)
(-135.7414436 -259.0070557 487.3270362)
(1806.80843 908.5377608 -183.2785201)
(966.0140223 418.7240759 -396.9497143)
(1234.938907 -632.0879677 -669.3832536)
(7.597874736 -865.273739 -371.3536714)
(74.1516848 1405.589549 -1364.22517)
(-528.5355772 -49.57005803 -864.5457848)
(-71.60313657 -103.0638788 -512.5079865)
(-1678.192752 -1068.953744 -3000.490923)
(137.5245629 -822.4379456 809.0078303)
(648.2456336 -1038.897455 676.6991355)
(-337.1030373 -533.1846454 -256.8277896)
(143.3590186 -152.1964457 -235.159205)
(45.54497246 -196.7023928 -508.8868804)
(75.27375075 654.1417889 -719.6466635)
(315.9274942 -755.0595864 -729.8206387)
(1183.793386 -500.4972294 278.6116273)
(-384.3445634 1574.397692 -534.1931555)
(1774.803247 -1466.895947 373.4370592)
(-1159.049709 894.9855349 -458.3498151)
(-723.3531051 1597.155521 362.1980237)
(-867.3904346 424.2776739 1190.081768)
(-386.6456933 -110.0283901 -205.361336)
(-476.8935931 -728.8894041 286.3625518)
(567.4576323 -587.2010505 1555.759523)
(-246.303784 296.2649481 540.6320438)
(439.3155309 307.1747701 -650.9759648)
(-449.0299137 699.2240308 -547.8894726)
(385.1703483 -1419.840479 541.4946807)
(1099.337014 492.7537288 -1760.633114)
(-1301.336452 1137.471092 -47.68986078)
(938.8047991 -1068.460888 -230.983178)
(409.8889167 -83.30142099 54.88867561)
(-364.146175 -571.2391992 -1448.735307)
(-43.09478433 -313.7410528 -516.3531456)
(-458.2830482 -1495.571819 -745.3754586)
(-306.3732615 946.5207327 -1420.945727)
(1561.408585 50.79104066 840.0801268)
(895.9455709 67.82351674 383.0426396)
(-751.5719847 688.5759692 1040.934013)
(-936.4224671 600.9260832 267.2000984)
(31.7444305 -1087.853249 -700.4424081)
(1323.272129 -1117.597329 442.2301733)
(-749.6149986 -305.3793952 -1702.676995)
(-336.6367257 -846.2334029 -979.3693481)
(1358.791157 -270.1576678 411.0213041)
(173.8867604 -495.0930661 -2323.323821)
(-82.40059466 856.3255917 2218.837765)
(-562.5975623 1305.662577 -236.66561)
(1280.647726 261.9123649 -21.28102236)
(660.807928 -669.6547098 -600.7014354)
(61.70296134 -85.96533574 846.0979342)
(547.5135092 -70.58405855 7.786090987)
(-78.41887597 -126.4621352 47.48027565)
(174.8831289 514.4420102 590.4288255)
(716.2268132 -449.7203848 2007.717669)
(515.3803785 1366.642879 234.6382615)
(-1216.569755 -1737.318543 -574.8288796)
(-229.4502164 -259.1160499 -430.6754057)
(1192.338013 1100.91942 -1862.589238)
(842.9228919 -1085.882373 -794.3468505)
(-2982.816113 291.8238913 -81.39635377)
(710.4959016 -299.546109 1.841338003)
(392.3530654 20.21647887 524.1238481)
(-1201.713851 -1815.524579 41.05314581)
(-957.9173442 350.220364 -351.3144872)
(-613.9380351 -1097.352823 -2287.426477)
(-164.8670045 669.3072633 -857.1251875)
(166.767953 675.9344292 331.9558144)
(-891.7449278 -681.2979896 636.4260666)
(1626.07178 908.6206071 735.1604107)
(1393.841162 212.1048676 165.7750989)
(-77.65209258 -828.9266161 1134.057471)
(-60.06360328 -1057.518253 -1491.081952)
(262.0983397 -965.1345025 -462.4991611)
(1158.267435 -835.8644573 1866.995399)
(-1305.29102 -292.6992839 272.7895805)
(152.6458851 2059.839797 -1925.837107)
(503.6730478 387.1857683 1193.809995)
(228.244163 -678.4972771 -381.6000323)
(-858.7884705 682.8757276 525.3484396)
(70.39944549 -3254.750342 -185.6010094)
(1462.15658 236.3259572 -183.7442376)
(-780.1478079 -873.212845 -1124.002794)
(1279.493086 421.9843463 158.2044683)
(-783.0114184 1073.550287 -369.8217918)
(742.3253757 742.2931087 149.8947661)
(-456.9612035 53.46528947 574.5534328)
(-1016.461156 -1574.973221 -504.9300926)
(1721.468539 331.1883862 -1031.836127)
(-219.4645777 -259.0274979 -55.94487159)
(724.1634484 582.4266047 205.2714602)
(-526.0850603 500.2701775 1468.383797)
(678.1798693 -313.5146553 -645.1940982)
(203.7449553 -814.8160626 -116.8526005)
(1712.493059 -116.9562346 -1721.986807)
(81.79464023 -1469.703532 -610.8274868)
(-870.7402296 -1226.288947 -741.3112451)
(871.3367468 200.9516878 -1255.794044)
(448.3489108 583.2139487 -612.016639)
(-736.1401683 -143.6994507 551.5935703)
(-503.1812277 280.461114 -470.827381)
(40.97710833 -294.1415647 1143.421877)
(381.4048099 2203.554824 -1204.614768)
(-430.6629333 -134.2117911 -548.8236933)
(438.9395661 -820.1698168 -1123.828853)
(1298.455901 -249.9303541 -398.7177763)
(1014.910756 -32.07398978 -125.4860053)
(85.82233284 -2258.904433 -759.8054154)
(444.771823 -1355.437588 2134.772073)
(1778.006631 -1327.169401 935.3903189)
(2174.657795 -896.5933401 -1129.92304)
(851.4905891 466.3339627 185.8860749)
(1445.59326 1386.365689 -143.8343595)
(-839.2618439 1054.151303 -701.0419352)
(-26.37327939 59.38367295 -969.73889)
(929.5523698 347.9628282 31.2786619)
(208.5857223 -1721.963939 -1342.02749)
(1224.74201 -1194.971125 -679.1462281)
(-845.6939771 220.4184327 -1607.52453)
(991.6740041 1035.874871 -2051.657137)
(1152.987323 -809.3640326 -1807.758092)
(909.9000095 -756.260094 -323.9580131)
(-1909.316782 12.36495976 46.86994841)
(137.7499164 -826.8801464 340.3307562)
(1257.566441 -132.277106 971.331791)
(1297.60589 -324.629373 286.6920606)
(416.6265187 -484.2994247 79.38433557)
(551.670947 -793.7831824 -1131.193147)
(49.77383503 849.0960034 -435.173812)
(884.9702563 615.9385005 79.68481036)
(141.6479477 -508.3017106 585.459815)
(479.2481285 -131.1327324 -1218.535032)
(-354.6466669 -725.8898491 -444.6160113)
(-1968.792044 110.7679557 33.93560177)
(-142.9487096 -571.4032204 9.277003263)
(1029.749985 154.2829367 -180.8428678)
(-94.09763152 -772.9949442 490.9610288)
(1524.65183 -443.5598552 -1598.215762)
(-247.2150607 741.0799475 -686.8831147)
(-1425.686867 -2252.872183 -14.11819773)
(-1024.170597 806.5711872 -257.1436044)
(-64.46780995 -658.5406334 349.1199484)
(776.2159724 -827.0276021 -1330.302838)
(539.3046979 116.610959 344.1561567)
(611.8631174 -502.9474918 575.7605178)
(-265.0030058 -958.202336 -779.2708281)
(41.23323602 1697.105653 -327.7910447)
(420.9043169 -768.4468098 76.54113265)
(-647.0485195 -149.3203637 -772.1598842)
(-426.7056905 -308.7911351 -1029.713964)
(664.4244164 -1041.733061 -329.7185994)
(-1396.333492 -1121.795861 2052.655022)
(-381.526725 391.6665662 -144.5596819)
(596.8429523 -1270.393894 719.4514174)
(272.5762122 -1221.456042 -1148.617646)
(1161.486704 -133.8742839 -115.4242032)
(-987.6222502 -2107.398245 -96.90096355)
(-1255.633804 126.3259049 -873.0979143)
(239.8450619 434.1822338 -1439.541311)
(-2017.015624 879.9494664 360.5890859)
(993.1116728 -559.1863029 496.7202418)
(-1299.499546 -725.8207131 223.16729)
(-450.810918 148.3845461 -25.96014638)
(139.0191648 376.1699304 1265.817703)
(498.5226445 -545.5751287 -383.7597621)
(513.9609124 289.6132301 -736.8207911)
(333.4414419 -1487.609224 -1889.952851)
(1312.52607 -1525.976851 22.32404329)
(1446.260424 -480.848466 121.8260139)
(886.1906248 -1326.508791 -259.7725709)
(-271.6513869 -264.4046924 -837.8821304)
(-798.0675916 266.7340273 156.6457498)
(1195.138405 -1683.043686 -1500.635801)
(64.80617634 -1018.902044 1175.68903)
(751.2167571 947.4449873 -328.7693854)
(-124.9180193 735.3976751 -917.8279264)
(586.0899799 335.1835305 -1355.146509)
(994.1457425 526.5283821 -1988.730577)
(-437.9897918 -139.8601643 -1124.084685)
(811.2100305 -42.81732842 713.4854569)
(1756.587607 -568.8973449 -202.6576956)
(1261.801195 -165.0110383 -415.4712203)
(1077.440058 -634.4265287 -514.6730202)
(436.8524079 413.1396285 266.3568346)
(79.42981659 1905.825638 260.6880307)
(473.9546828 144.343906 633.5632513)
(775.1970526 6.244791402 -1197.225847)
(463.8325196 1950.450942 -58.79621133)
(330.1734806 283.1597828 -1633.213797)
(1124.539912 -916.1386319 -394.2850206)
(6.928445212 940.119098 924.3558917)
(716.6696358 237.4320615 -128.2872632)
(1134.899641 -379.2489171 1492.556129)
(-1555.350975 -1417.811151 -54.73273864)
(-653.4323634 -1776.168268 -1822.924262)
(-49.48578004 -1769.194956 466.5626778)
(-427.4124034 336.0395623 608.1178635)
(83.34627319 -923.5121352 -11.3101005)
(-2002.021339 11.26958904 261.4062879)
(-31.73858842 -1746.693403 -571.5493716)
(-134.1263779 833.1512893 340.921232)
(-744.627047 67.57364943 -129.8278804)
(-499.1746141 327.6991464 -412.0137849)
(608.6908855 246.0765989 -1104.368578)
(721.5571587 -634.5369594 419.5219757)
(1898.482588 995.9020378 -447.1542953)
(-515.6897733 669.1493363 864.3667801)
(1348.973648 -1221.266995 198.6992552)
(-778.885176 -335.78398 -300.1118423)
(-402.3447278 -315.4939036 1107.949143)
(1272.793419 1085.712959 -581.9238189)
(-1501.458451 -295.0976267 1116.43505)
(1307.43002 -510.6801921 941.4220076)
(-971.9476489 -282.6558071 -1616.738512)
(-627.1032584 -377.2311537 -1125.297682)
(-396.1435509 -1390.872753 458.5050332)
(327.6740881 106.4849348 -415.2207572)
(-1055.810415 858.0523902 209.3123699)
(242.2699973 -863.4668889 1095.52634)
(-1525.952969 -1047.530955 1172.260485)
(1226.684234 -697.2546545 619.4884202)
(-510.8934039 -577.5472382 218.5276694)
(28.69382833 249.2015992 -934.8315482)
(505.6188009 361.3287446 550.046252)
(226.9019836 650.1323914 -668.1670201)
(-668.2289862 -1090.398361 -37.42310768)
(580.3321152 -1633.863673 -548.7675713)
(303.239154 2304.478119 151.1110625)
(966.0298094 -233.2078955 -1324.610313)
(-8.491326882 -691.0109721 -840.2881183)
(-668.0564478 623.2713534 -185.2188221)
(173.2550079 -285.6056748 382.7979561)
(-309.471502 -703.3771276 201.5380171)
(-245.406898 680.7003257 -658.1808811)
(185.2643759 115.1445964 1327.608222)
(563.0920614 -993.3048466 1794.667017)
(-641.1071436 149.3174465 751.437141)
(601.9819788 -15.13899116 -69.68069353)
(772.6047505 147.8419397 -582.0890135)
(-157.7784067 -1688.312756 -705.031583)
(1308.240016 181.1027296 388.3570712)
(-1548.606092 259.2857263 -1226.967155)
(-931.5960625 -98.25428405 1918.963062)
(-696.3547607 -1496.646458 1421.949213)
(594.8086897 -786.3067257 -1195.631126)
(-89.46607878 -88.39838084 382.2396659)
(-2019.799191 -1310.664972 -1155.304531)
(279.4891831 -403.7273338 1067.939822)
(1259.277055 145.6926603 440.2690788)
(662.7579502 -310.4277281 -1162.016813)
(839.4846803 385.7604732 -939.5768735)
(-692.6141686 2191.74215 155.1306945)
(-384.9383176 316.2666988 494.8618108)
(954.9870534 131.4973349 -486.8763189)
(1100.041856 123.3203866 2429.735635)
(177.6177925 -1942.310914 -499.6217289)
(825.8430868 -815.3587471 1519.862901)
(670.347569 -111.3252483 -940.9552314)
(2212.670006 -397.973733 31.13330745)
(-1506.439916 1068.054703 495.4258263)
(-179.1773311 -1454.411279 308.3140887)
(1099.006157 356.2997502 696.3125824)
(1431.205677 -61.62193996 1037.025338)
(-655.9552356 2055.225383 -851.6091357)
(1062.598614 37.21319977 96.90306458)
(31.97996708 1431.28072 1817.802505)
(-85.54945627 87.99740407 942.995783)
(-1892.385119 -333.2168224 771.4231917)
(302.0622517 -609.9797582 316.4325972)
(-864.6067234 -1522.201517 -107.5494832)
(587.8352265 -1032.133207 448.1851329)
(-925.9040302 -1826.882462 150.4314601)
(-931.3205468 1054.096611 2373.320346)
(-2546.10922 415.6468883 -487.1600448)
(1076.365874 -133.8918325 -392.8186224)
(844.7460035 -1765.983068 795.3262357)
(-1209.05685 1121.430391 243.2961973)
(828.5081371 324.2308673 -555.7627101)
(1144.648524 -369.9404123 1007.331006)
(-110.6913792 -806.5948822 411.2001563)
(-188.6043693 170.1899122 -520.1348427)
(1107.448815 1260.125391 212.8178835)
(489.2438682 1718.551924 492.5945358)
(-517.2193745 -374.9785633 1625.543254)
(-46.59812473 -611.443158 250.6844812)
(-1802.553731 278.1579846 523.7760856)
(915.8253793 1269.890117 262.0442488)
(-109.0754077 2200.299958 933.9765326)
(-1520.554918 920.0018312 573.3781392)
(-452.7761177 514.2718656 194.4187667)
(632.9728184 -520.2347045 293.601116)
(-970.31932 -585.8144249 -876.0090413)
(1088.7188 1168.527278 -1770.443482)
(-300.6585175 712.7087485 574.8876886)
(1432.36216 -1141.422505 -1064.754593)
(-290.9324113 261.8347748 906.8320845)
(994.5102158 -937.1330751 -1344.723988)
(-664.7058124 -1646.712754 2249.467473)
(-30.34191247 -2.03535653 892.7240708)
(-144.7082168 -1344.750416 498.4306187)
(-1409.891576 -163.0926059 517.0982108)
(-1141.011625 -1083.383105 -1779.894062)
(1301.523972 -1507.143472 -1737.342515)
(-231.9055032 1936.012355 211.3709052)
(-1287.526921 339.3694358 114.9858563)
(-602.4808057 -1876.836668 1069.363369)
(-616.677476 -1154.196967 -894.0427895)
(-478.1372156 -314.7696797 368.3032702)
(-392.419529 -603.1510706 1363.520116)
(-169.3507811 227.8970899 185.0191126)
(1826.09838 -758.697213 202.7017765)
(1375.016834 1223.27909 -986.607041)
(-335.6917815 188.3222647 484.502267)
(1557.660472 489.1553947 20.07720462)
(1084.75609 -2055.646894 -231.0280712)
(1995.233216 -51.91663863 -1781.762012)
(137.1519513 17.44158232 -201.2213201)
(672.321287 -738.9511923 -968.3642895)
(1005.430854 80.9981799 -1560.497558)
(576.9358387 -1446.471648 -1112.369867)
(525.2113546 951.1155664 -162.695534)
(555.0394232 30.30951909 777.784293)
(648.2169165 1572.903715 -1514.930036)
(-557.8568331 -1250.107245 -891.3277859)
(2049.527225 -79.92148495 -763.1988732)
(462.1429317 1334.249197 -409.9097194)
(-779.9692963 79.08152821 -865.6974896)
(-495.0888392 -1251.367942 452.7078059)
(1367.904626 -2054.640798 -249.6803042)
(857.3009097 -646.6023255 -1093.249326)
(-949.9917205 -458.1506831 -266.9905792)
(2010.224994 2156.03712 -947.2440914)
(806.7086781 772.0489396 -1057.133496)
(-1000.812792 1000.357602 1106.366917)
(848.532767 162.7243337 753.3156356)
(-1853.975763 -165.6457906 21.15437537)
(475.5800539 -1204.118517 -891.5887272)
(-43.55170389 809.6645955 274.7419755)
(-588.5704233 -537.0904727 -424.3149109)
(-339.5620071 -594.8091837 431.7258226)
(1585.154512 -1248.85396 -1496.000135)
(-1020.321319 -612.9506642 2002.200072)
(-352.0344768 891.3375646 1200.921509)
(73.05922602 488.5904707 218.0426863)
(1116.588182 -956.0620887 61.29834103)
(1261.653561 1606.289384 -1348.374332)
(500.7602596 989.8529297 -355.5441206)
(857.5812708 -1075.69076 2351.252389)
(-411.3787907 201.075028 2209.127801)
(256.1163227 166.7052318 1519.97861)
(1281.07502 -677.7705623 -1298.652992)
(270.1881894 -1282.297333 1450.412849)
(980.389584 291.8490268 -1071.528534)
(-1375.76524 1740.675501 141.6590353)
(-300.0726883 54.35769516 -670.801242)
(-324.859643 816.925917 204.3739531)
(1270.301744 606.5500824 457.4740339)
(-454.2092628 -1733.95826 -1470.678506)
(1277.522552 -397.0240882 -249.6051306)
(121.3555688 494.4734996 998.4373671)
(-12.88406328 -183.4875968 972.4196635)
(-252.5313297 -116.961071 -126.3010742)
(-976.7621651 769.8743739 54.4932545)
(-1508.9511 564.8561162 -801.874677)
(71.05246821 925.8638392 -486.508866)
(-657.4759615 1554.118141 736.9149497)
(504.4454487 -852.5044529 1273.193581)
(1767.957534 627.4857006 1245.57548)
(802.5122912 279.2247146 -1204.505383)
(364.1306314 632.4725167 527.2416814)
(-724.3928826 1093.17589 -957.5472981)
(253.6564672 -203.9321451 1505.120401)
(-760.5338876 143.8303865 603.9328454)
(-402.7884774 -193.0050382 754.7663709)
(158.3540487 405.7032221 1543.336117)
(683.9454684 -442.8371614 -2023.961823)
(864.7236858 1530.171069 310.3732388)
(665.093013 -447.5973344 1258.749033)
(97.41147294 -2122.57041 1625.157585)
(-302.4075827 566.6833062 -552.761084)
(788.919569 399.5291734 -579.0349644)
(1474.745739 -1009.548348 1658.123167)
(1137.736773 69.15821385 686.3138838)
(-95.24740418 669.2817221 1767.6385)