# Cf ()          
# Time           	patch            	min              	max              	average          
0.00141          	object	1.6064860096e-06	2.8166555957e-04	1.3200352174e-04
