/*--------------------------------*- C++ -*----------------------------------*\
| =========                 |                                                 |
| \\      /  F ield         | OpenFOAM: The Open Source CFD Toolbox           |
|  \\    /   O peration     | Version:  v1706                                 |
|   \\  /    A nd           | Web:      www.OpenFOAM.com                      |
|    \\/     M anipulation  |                                                 |
\*---------------------------------------------------------------------------*/
FoamFile
{
    version     2.0;
    format      ascii;
    class       scalarField;
    location    "1e-05/lagrangian/dsmc";
    object      ERot;
}
// * * * * * * * * * * * * * * * * * * * * * * * * * * * * * * * * * * * * * //


100002
(
2.213773115e-22
7.362180975e-21
1.091150749e-20
3.715940664e-23
4.030990131e-21
1.911420354e-23
1.507959451e-20
3.392237438e-21
9.514621453e-21
2.746203225e-21
6.539892408e-22
1.010527257e-21
1.966492184e-21
1.949748951e-21
2.64825574e-21
7.246455066e-22
5.928568683e-21
1.985414185e-22
9.118621757e-22
9.122559949e-22
5.470762361e-22
8.611447615e-21
6.478998425e-22
5.770728072e-21
9.627456814e-21
1.612702539e-21
3.928500734e-21
1.153344334e-21
1.385822111e-20
8.652657489e-21
4.384324363e-21
5.041456997e-22
5.515519428e-22
1.904219964e-21
4.208247916e-21
2.076506008e-20
1.314317907e-22
3.53312776e-21
4.227773955e-21
6.44062349e-22
4.287322512e-22
8.37587601e-21
6.505613338e-21
2.276735422e-21
2.09774605e-21
2.839076147e-22
2.984680679e-21
3.711330934e-21
4.919778553e-21
9.966366797e-22
1.205666118e-20
1.914940218e-21
5.677723935e-21
1.500259366e-21
8.549420273e-22
6.188679517e-21
2.922822075e-21
4.825818634e-21
3.355277344e-21
3.079053683e-21
6.196921408e-21
1.379066385e-21
4.290300862e-21
8.573577718e-22
3.635494675e-21
4.667747017e-21
7.113111422e-21
1.966628879e-21
9.625453256e-22
2.436345164e-21
1.76389005e-20
3.985556577e-21
7.067015793e-21
4.727960322e-22
3.529301282e-21
3.804212132e-21
1.262678699e-20
4.196635824e-21
1.312972869e-21
3.764519449e-21
1.692647474e-21
7.723306979e-21
2.237260372e-21
1.233530837e-21
1.512375388e-20
7.425484107e-22
1.177176729e-21
2.620123949e-21
1.123237043e-21
1.309251933e-20
1.881149455e-21
1.773853515e-21
1.962465922e-21
2.323900301e-21
5.570176202e-21
3.999952843e-21
2.910283752e-21
1.080717755e-21
2.383323728e-22
2.173095983e-21
8.852194392e-21
2.099181815e-21
2.708769381e-21
1.50008243e-21
6.230328276e-22
1.495951615e-21
3.318753286e-21
1.657223763e-21
1.101888594e-20
1.300566384e-21
2.728415766e-21
1.18750015e-20
4.581130242e-22
2.138111994e-21
3.318469462e-21
4.683102962e-21
2.484485824e-20
4.007965383e-21
4.146979878e-21
3.829444471e-21
8.715914259e-21
7.34825866e-22
1.193062939e-21
7.533360832e-21
6.978699857e-21
3.91469982e-22
1.377743667e-20
1.579487388e-21
1.262896799e-21
5.507337046e-21
5.886465453e-21
1.054241865e-21
6.016826969e-21
1.603992815e-21
8.288833099e-21
1.251481694e-21
1.543226241e-21
8.166803558e-22
6.572108726e-22
8.906564942e-21
6.274700448e-21
7.892850185e-21
2.689016417e-21
4.378476797e-21
3.925297064e-21
1.528102334e-21
1.403209958e-20
5.212254558e-22
1.42019752e-20
3.558787372e-21
5.086370871e-21
1.800204956e-20
3.56354787e-21
9.40614179e-22
1.414816891e-21
2.474142866e-23
2.081001711e-21
6.127117127e-21
1.67793338e-21
8.442238215e-22
4.849033525e-23
5.642765176e-21
4.833066661e-24
5.044828642e-21
7.179032386e-21
2.580757239e-21
2.304415844e-21
1.710145944e-21
6.183134466e-22
9.34618854e-21
2.572043812e-21
7.393940517e-22
3.726462125e-21
5.554796155e-21
6.263730274e-21
1.189012526e-21
4.473667629e-21
7.617207518e-21
8.070454329e-21
3.523511442e-20
1.003022187e-20
4.191207664e-21
0
2.459435937e-21
1.703097398e-21
2.815507278e-21
6.499130874e-21
2.708908017e-21
1.608864051e-20
1.163786045e-20
2.475008382e-21
7.037805913e-21
1.927887236e-22
1.255308353e-20
4.411558249e-21
6.035949525e-21
1.399070133e-21
1.12892864e-20
9.75758607e-21
5.620162566e-21
1.057487092e-21
2.21716077e-21
7.637173997e-21
4.2983176e-21
2.969042601e-22
5.787297532e-21
1.072786323e-20
3.376133253e-22
3.901107234e-21
5.996950934e-21
3.22771893e-21
1.364520416e-20
4.799512806e-21
2.288641723e-22
8.641429442e-21
1.883497348e-21
1.41398072e-21
3.258875566e-21
1.34265825e-21
6.089928775e-22
4.542796813e-21
1.235256124e-21
1.003374162e-21
1.755765743e-21
6.010958597e-21
7.221730562e-21
3.353938091e-23
1.045980948e-22
8.240836325e-21
4.53863409e-21
8.211292582e-21
5.027761691e-22
1.068185223e-20
2.145233862e-21
7.178993729e-22
4.233314276e-21
1.179193079e-20
1.77513593e-20
8.813487283e-21
6.977214284e-21
7.999416644e-21
6.840387178e-21
7.929387964e-21
2.707952515e-20
5.077655307e-21
1.335226037e-21
7.681034342e-22
3.339121806e-22
7.379937684e-21
8.154234327e-21
2.808727097e-21
3.039664061e-21
8.125790308e-22
9.301558209e-21
4.099931072e-21
1.128220836e-20
2.081197817e-22
8.554991434e-22
2.673113004e-22
1.946657912e-22
4.111164441e-21
5.019033235e-22
9.330963673e-22
8.162600113e-21
4.729481502e-21
7.960216157e-21
1.84550154e-21
1.653576924e-21
4.242764183e-21
9.591790247e-22
2.405355514e-22
4.18093326e-21
1.538153663e-21
1.556199405e-21
4.442494743e-21
3.958542616e-21
2.916230465e-22
1.947798513e-21
4.015002699e-21
8.923563301e-23
2.012152046e-21
2.810049194e-21
8.845697137e-21
1.157262236e-21
6.343847229e-22
1.559699349e-21
1.291758795e-20
1.262845791e-20
2.185133632e-21
7.741609826e-22
1.429594582e-21
3.943526923e-21
1.730008877e-21
1.521786217e-21
1.143093291e-20
2.497276494e-21
2.017041078e-21
3.150486914e-21
2.151044495e-21
2.117154178e-22
1.186228638e-20
3.477472009e-22
3.321752031e-21
1.982615915e-20
1.494065664e-22
5.251192846e-21
4.272690101e-22
3.029155623e-22
6.12536387e-22
1.591423321e-21
7.445284155e-21
3.829875038e-21
5.889003131e-21
7.057105178e-21
2.353133223e-21
6.041620891e-21
9.437842254e-22
4.479519981e-21
1.815947878e-21
1.536015699e-20
5.830617287e-21
2.165930176e-21
6.81785678e-22
3.124278467e-21
8.601670425e-21
1.79105305e-20
1.380978225e-20
2.726535025e-21
1.072740036e-21
5.880627494e-22
9.156712496e-22
2.012022818e-21
7.159866715e-21
8.519233341e-21
1.597570056e-21
7.406221479e-21
6.657951356e-21
1.624229719e-21
1.015180676e-21
1.962820838e-22
9.72303744e-21
1.540115852e-22
1.809152034e-21
6.482139904e-21
2.454703647e-21
1.857603269e-20
4.26725471e-21
1.598308317e-21
4.262375873e-22
5.236853256e-21
5.385510087e-21
1.811158454e-21
6.172645171e-21
8.166113454e-21
3.251551133e-21
3.408439155e-21
3.947824758e-21
2.920528634e-21
4.551890956e-22
2.24082323e-21
4.65737144e-21
4.167349206e-21
2.596076823e-21
7.032805099e-21
3.678023105e-21
2.232772006e-21
5.900170209e-21
1.56807218e-20
1.068152313e-20
2.330530465e-21
4.191888874e-21
4.001474104e-22
7.716892212e-21
3.070002297e-22
3.917947918e-21
3.079797541e-21
7.138873051e-21
1.529705708e-20
5.245741909e-21
1.202434065e-21
2.099793403e-21
6.70768801e-21
1.574688946e-21
1.856200782e-21
2.113173175e-21
9.725888634e-21
1.252289062e-21
1.636522229e-21
5.92525251e-21
5.987367238e-22
5.36925767e-21
4.659272494e-21
2.147431323e-21
3.751526337e-21
1.3243012e-21
5.438594603e-21
3.72895508e-21
4.962056124e-22
7.916527695e-21
3.628362139e-21
1.569907904e-21
3.771798963e-21
8.939083221e-21
1.335357366e-21
1.031711052e-20
8.056030106e-22
3.035252287e-21
2.28091351e-21
6.920998541e-21
2.524153647e-21
5.162056637e-21
1.067668169e-20
2.268315656e-21
2.572007546e-22
6.44289539e-22
1.75673012e-21
1.983664588e-21
3.541676034e-21
1.184997761e-21
4.081390482e-21
3.362335783e-22
3.542586878e-21
3.512987328e-21
1.517394013e-22
3.394387363e-21
1.173675616e-21
9.470799118e-26
6.417196107e-21
1.111152705e-21
2.73028704e-21
1.086926631e-22
1.273144241e-20
1.664569679e-21
7.596013482e-22
2.434678552e-21
4.479773297e-21
4.199459986e-21
1.030949433e-21
8.083550488e-21
1.514906005e-21
4.859433718e-21
9.268324014e-21
1.082022692e-20
3.318905016e-21
1.39908224e-21
1.332083616e-21
1.762631465e-21
4.579031263e-21
3.354100455e-21
1.167253328e-21
3.910209637e-21
3.333565828e-21
3.578115072e-21
1.914470812e-21
1.992782934e-21
9.802986587e-22
7.494154547e-21
4.002527991e-21
7.152884263e-21
4.32395041e-21
1.278304561e-22
7.281043974e-22
6.634979575e-21
3.271425299e-22
4.633106363e-21
1.259634728e-20
5.480375654e-21
3.471650522e-21
1.323620794e-20
2.236001437e-21
3.25178591e-21
2.419834751e-21
1.063638945e-21
6.855420636e-22
4.292952513e-21
7.565446179e-21
7.417929676e-22
1.897301184e-21
1.185203815e-21
3.679207956e-21
6.906484519e-21
1.726177039e-21
1.113871892e-22
2.483633645e-21
5.221199021e-22
1.000734746e-21
3.658402322e-21
2.243343741e-21
2.835047018e-22
1.342923757e-20
3.808775668e-21
1.910022224e-21
8.778456002e-21
4.646004302e-21
2.10426202e-21
4.636809867e-21
1.166637052e-22
2.197929224e-21
6.3638122e-21
1.580888199e-20
1.568330891e-21
5.767522038e-22
9.308963059e-22
6.151616732e-21
3.00778112e-20
1.20072531e-20
1.088722227e-20
6.819312131e-23
6.350452173e-21
1.490313862e-21
5.148933157e-22
1.730959644e-21
1.209090893e-22
7.96485688e-23
8.243023564e-21
4.013884962e-21
2.487736549e-21
1.387692998e-20
4.089026698e-21
1.214187777e-21
5.258918671e-21
5.557928797e-21
8.047824009e-21
7.476228648e-21
3.356095556e-21
2.789014764e-22
4.433609232e-21
1.106502201e-21
8.666408997e-21
1.512295374e-21
2.184443938e-21
2.486656706e-22
5.870062241e-21
1.028376321e-20
3.058261813e-21
3.393518376e-21
1.411412684e-21
6.23293975e-21
8.822859777e-22
1.069535244e-21
4.089542804e-22
6.274471811e-21
6.304675003e-21
2.918847767e-21
3.880324755e-21
5.426356935e-21
7.174049776e-23
3.784978148e-21
6.992668806e-22
4.145053913e-21
1.408232085e-21
0
6.540769036e-21
7.24139992e-21
5.728791097e-21
1.038924098e-20
1.432237093e-21
2.677902656e-21
1.365305039e-20
5.524494856e-21
4.105426717e-22
2.752155216e-21
1.922957861e-21
1.835148403e-21
1.759302456e-21
9.833383367e-21
2.335340976e-21
4.452626215e-21
5.434486091e-21
4.660117718e-21
1.713147188e-21
2.264812786e-21
8.272163508e-21
6.059544974e-21
6.152930403e-21
3.745430535e-21
1.845627166e-21
6.262829978e-21
3.35478222e-22
7.87952222e-21
4.860438278e-21
6.652069853e-21
5.23858351e-22
3.851262354e-22
2.253608654e-21
3.623366639e-21
3.841894545e-22
1.067359185e-20
6.785872124e-22
1.019397585e-20
1.098454086e-20
5.0134479e-21
8.254953915e-21
2.834430474e-22
3.708938366e-21
6.795707557e-21
5.878480642e-21
1.116019457e-21
3.719507592e-21
2.275733702e-21
1.672462375e-21
1.773270457e-21
4.348572485e-21
4.711242698e-21
1.399198695e-21
2.360808392e-21
2.633110676e-21
5.059347188e-21
1.625666053e-21
1.367491348e-21
4.060191484e-21
2.97149882e-21
1.710387737e-21
1.845326072e-21
2.799121079e-21
3.312280242e-21
3.43407703e-21
2.876257586e-21
8.050838304e-21
3.280133918e-22
3.654099027e-22
1.017854518e-20
2.777813932e-21
2.984784882e-21
6.024353303e-21
2.474018762e-21
1.771128453e-21
1.942269072e-21
1.534748539e-21
4.231545573e-22
9.671410382e-21
1.643617362e-22
7.865435207e-21
8.657038814e-21
7.343172475e-21
1.27900583e-21
7.142523064e-21
1.742258899e-21
6.004104535e-21
6.395764112e-21
2.303876994e-21
5.572240246e-21
4.640864941e-22
4.199170551e-21
6.808496414e-21
4.764745483e-21
1.950861121e-21
5.457523344e-21
5.846385927e-21
3.547975566e-21
1.936343251e-21
4.589162826e-21
6.704752793e-21
1.02650406e-21
6.964027473e-22
2.264851169e-22
3.775367613e-21
1.239006099e-20
4.731562857e-21
2.599814425e-21
1.410813315e-20
5.319829603e-21
1.234518891e-21
1.195603819e-21
2.067736192e-21
1.514365127e-21
7.65373034e-22
9.712017037e-21
1.858326623e-21
1.117346984e-20
4.679426802e-21
7.824349806e-22
5.710588113e-21
3.489716324e-21
3.647324186e-21
5.555309409e-21
1.492830216e-21
1.249028538e-21
3.013766864e-21
4.483259209e-22
5.867481577e-22
2.82967953e-21
1.492000132e-20
2.24139173e-22
1.339738132e-20
1.418764691e-21
7.674767202e-22
5.799725115e-21
2.217803759e-21
1.151146958e-21
2.373356084e-21
1.032567094e-20
8.29332267e-21
3.378282542e-21
4.017272731e-22
6.90731155e-21
4.615889632e-21
1.446663125e-21
8.936669923e-22
1.772041108e-20
2.393531503e-20
2.751819101e-21
6.542207131e-21
5.401991768e-21
6.223167199e-23
5.083707268e-23
9.802996281e-21
7.828766542e-21
9.890477615e-22
1.411711316e-20
3.542362643e-21
2.071175309e-21
9.160681106e-21
1.432957629e-22
7.675308081e-22
1.389509608e-21
7.144980215e-21
3.016832505e-21
1.666199553e-21
1.310856008e-21
2.781071481e-22
1.761021862e-21
2.810083e-21
7.429422792e-21
1.289306516e-21
2.682596747e-21
4.274732265e-21
1.688249254e-22
4.166037665e-21
1.327281659e-20
8.06929839e-21
8.362793262e-21
3.719185198e-21
4.095789125e-21
1.010940869e-22
2.050063568e-21
4.434467635e-22
2.489589697e-21
4.918293281e-21
2.879323886e-21
2.755638618e-21
2.025509834e-21
2.989378631e-21
1.855847695e-21
3.300302752e-21
8.850683414e-22
1.887687946e-21
3.070313101e-22
1.051438946e-20
1.035234587e-21
6.998270004e-21
1.410117672e-20
1.829589028e-21
6.811132307e-22
1.995902777e-21
2.563696753e-22
6.347701033e-22
3.277429564e-21
3.853386914e-21
3.736573144e-21
5.327457131e-23
5.060718868e-22
1.319960163e-21
2.76564301e-21
1.564724641e-21
6.382100361e-23
1.108667933e-20
6.690142953e-21
1.598234526e-20
2.326213916e-22
6.406836057e-21
8.948372475e-22
4.381540279e-21
2.238380037e-21
1.341887997e-20
5.167340064e-22
3.510352732e-21
4.825676557e-21
1.065821586e-21
2.558085655e-21
2.991235435e-21
9.694738318e-21
3.351221987e-21
5.975069894e-21
3.638105673e-23
5.189203826e-21
1.062805763e-21
2.208260036e-22
8.003679465e-21
3.446821047e-21
3.178684117e-21
8.876020332e-22
9.441655268e-21
9.295728714e-21
7.65281277e-22
5.409788486e-22
1.011323997e-21
5.292521292e-21
4.65417143e-21
1.533504353e-21
5.359115615e-21
1.30223649e-20
9.37359227e-23
3.418605115e-22
2.711669418e-21
5.450405982e-21
2.982404132e-20
3.123875437e-22
2.420930956e-21
4.095544055e-21
8.409037422e-21
9.043346614e-21
2.299641725e-21
2.144574191e-20
3.874810428e-21
4.752371044e-21
5.212220422e-21
6.802406842e-21
1.630345678e-21
4.247653663e-22
3.813488572e-21
2.881661709e-21
2.29716627e-22
2.1317986e-21
1.824784895e-21
9.164562841e-21
2.695687167e-21
2.155254203e-22
3.643352736e-21
1.636165821e-21
6.633163419e-21
1.096704802e-20
6.969250711e-22
1.615327898e-21
2.575516749e-21
2.629880485e-21
7.607161908e-22
8.09789172e-23
1.715736361e-22
8.836261529e-21
1.131834432e-20
8.214624481e-21
1.848567526e-21
2.012714804e-21
2.288589855e-21
3.821455563e-21
6.0945588e-21
9.189355044e-23
3.044787821e-22
1.481603601e-21
1.120691787e-21
5.298913091e-21
4.204004243e-21
4.700731015e-21
6.257698111e-21
1.045539752e-22
2.325736951e-21
2.888052624e-21
2.612236739e-21
3.31218073e-21
2.037754076e-20
4.931611607e-21
1.620998214e-21
9.953673194e-21
1.357954535e-20
1.26146993e-21
5.017854218e-21
1.432118272e-22
2.794620636e-21
3.167908203e-21
4.711094329e-21
4.950600344e-21
8.522779681e-22
2.740115802e-23
5.621872574e-22
1.736149588e-20
2.418900612e-21
4.940635102e-21
2.292266797e-21
1.471616451e-21
3.926137965e-21
4.256998062e-21
6.561459096e-21
6.745853038e-21
2.864970533e-22
2.682643788e-21
4.546938309e-22
1.324222028e-21
9.996790786e-21
4.583984491e-21
1.158654807e-21
2.605336221e-22
3.321265131e-21
8.096460164e-21
1.381278188e-21
7.092645078e-22
3.956234662e-21
7.399180884e-22
5.432304353e-21
3.554485943e-21
3.945127663e-21
2.611291477e-21
2.310423564e-21
6.003835701e-21
7.022224238e-21
9.699876009e-21
5.938271225e-21
9.417631663e-21
7.423935238e-21
2.068910173e-21
1.604317945e-21
1.971066346e-21
1.040415914e-21
9.755549044e-21
1.081307948e-21
9.253126116e-21
7.981750275e-21
7.870739085e-22
2.22467443e-22
7.643583846e-22
8.991435073e-22
6.670226752e-22
7.770833999e-21
1.226531644e-21
1.086214089e-21
1.401093411e-20
6.656078857e-21
2.2029814e-21
2.121291208e-21
2.784608489e-21
7.532905584e-21
7.070991002e-21
3.623440939e-22
1.146927908e-21
4.637583833e-21
2.666294952e-22
8.298226254e-22
6.270227407e-21
8.057548049e-21
1.175606116e-21
2.496724579e-21
4.123870566e-21
8.616627135e-22
2.014092986e-22
2.089568783e-20
5.439515807e-21
1.408769496e-20
6.018401462e-21
2.200815755e-20
2.601363214e-21
2.578123521e-22
5.907957772e-21
9.1257736e-21
1.429315792e-20
1.093254911e-20
2.836548548e-21
2.853084741e-21
2.106325587e-22
1.432003759e-21
8.863746473e-21
4.660235627e-21
1.010166374e-20
2.276787019e-21
5.232429681e-21
1.333963681e-21
3.635112622e-21
1.166337654e-20
2.699465225e-21
3.657331573e-21
1.176616548e-21
6.223437701e-22
1.896375421e-21
5.521942366e-22
1.37637549e-21
2.839308544e-21
2.877976553e-21
5.058593495e-21
2.451761357e-21
9.300903871e-22
3.471402085e-21
4.780245494e-22
6.095576418e-21
3.118956661e-22
4.222767003e-21
6.970712337e-21
3.227144935e-22
5.462182949e-22
1.748837922e-21
1.990425006e-21
1.041739697e-20
4.3461548e-22
4.375670271e-22
8.151794217e-22
8.164253055e-21
5.308323745e-21
3.774541121e-22
8.688294906e-21
1.123527228e-20
6.122118658e-21
8.848317106e-21
6.612504776e-21
7.155293586e-21
1.014419535e-21
1.412878376e-20
8.413823206e-21
6.598960767e-22
1.351838462e-21
9.0311221e-21
3.403211116e-21
1.013187681e-20
1.792537116e-20
1.900919595e-20
4.06432316e-21
6.917533874e-22
2.169951626e-21
1.800238914e-21
1.707814816e-21
1.236942815e-20
4.343911065e-21
6.479182282e-21
2.063565542e-21
1.90392753e-21
5.846329479e-21
6.010597287e-21
2.469030519e-21
9.896823432e-22
4.174919012e-21
1.238203e-21
9.054114384e-21
3.741401698e-21
5.72177682e-21
3.82092441e-21
7.421622316e-21
1.129498564e-21
1.202839553e-20
3.354894541e-21
5.995333656e-21
7.792316338e-22
4.473508994e-22
4.021101984e-22
2.884304731e-21
1.420473378e-21
2.137685075e-22
5.504721052e-21
2.088412676e-20
8.572067898e-22
1.95913439e-21
1.227103664e-21
5.249970951e-21
3.924401974e-22
2.32885814e-21
7.115972486e-21
1.066768841e-20
1.808662975e-21
2.166810768e-21
8.129091163e-22
9.469219938e-23
1.529425288e-21
3.341829079e-21
3.856668301e-21
5.154801808e-21
1.984684027e-20
3.19985717e-22
1.495573457e-21
3.054418157e-21
4.536876011e-21
4.381613712e-22
3.522131933e-21
2.909171661e-21
5.789791932e-21
2.86469627e-21
8.536491463e-21
9.15541152e-21
4.17556032e-20
5.034647342e-21
2.682154546e-21
5.027042099e-21
3.547246398e-21
9.286231734e-22
5.530841107e-21
2.454244418e-22
4.603374042e-22
4.135230801e-21
2.979967927e-21
1.123221606e-20
1.399968897e-20
7.175776164e-22
2.406304148e-21
7.901830484e-22
4.948019229e-21
3.068162809e-21
8.281115368e-21
1.01568436e-20
2.601098499e-21
7.111446074e-21
6.660154566e-21
3.143404913e-21
5.544225721e-22
1.309593375e-20
5.220601289e-21
3.608662453e-21
1.563720268e-21
3.481444449e-21
3.829691897e-21
2.317281943e-21
1.426650306e-21
4.079551433e-22
7.421030228e-21
1.936344304e-21
2.697434264e-21
5.330334676e-21
1.03883174e-22
1.278407044e-21
6.862546401e-21
3.091392392e-22
2.221453344e-22
3.812552814e-21
4.938468466e-22
1.052595487e-21
2.597003242e-21
4.868500779e-21
6.269206801e-21
3.39897064e-21
7.430780401e-21
2.874539723e-22
5.09813411e-21
5.366231199e-21
1.869733331e-21
1.401988355e-21
2.694978637e-22
4.741069988e-22
8.90902576e-22
1.099731994e-21
2.329996676e-21
6.177096405e-21
3.058896118e-21
6.149321039e-21
2.117086131e-22
1.648378022e-21
1.911135794e-21
1.571604342e-21
6.331696196e-21
5.672129155e-22
2.942926615e-22
1.477271494e-21
6.967696066e-22
1.172712476e-20
1.838326249e-21
2.854811269e-21
6.846696526e-21
1.517309471e-21
2.048775939e-20
1.493792653e-21
6.845923585e-21
2.375396238e-21
2.73777202e-22
5.524140335e-21
3.298528009e-21
3.184678207e-21
1.966014627e-21
1.459924725e-21
3.717497134e-21
2.081848932e-21
4.780832517e-21
9.026256473e-22
8.264218307e-22
2.41936103e-21
4.513029185e-21
6.682005022e-21
1.887186063e-21
2.343022109e-21
5.885880359e-21
3.73071266e-22
4.157541812e-22
1.783868131e-21
1.142785625e-21
1.08023874e-20
1.03408954e-21
5.252653409e-22
5.11191282e-21
1.407313465e-21
4.475406386e-22
2.698272716e-21
1.890624642e-20
6.297280031e-22
1.121455376e-21
1.014508328e-21
1.854947686e-21
9.317482464e-22
7.058211646e-21
5.27668423e-21
6.445090423e-21
1.120515395e-21
1.29669381e-20
2.337926918e-21
6.772449248e-22
1.061822023e-21
1.422646283e-20
9.384243336e-21
4.403467058e-22
3.829730784e-21
4.214649062e-22
1.891494438e-20
1.716879633e-21
3.510516505e-21
5.035891245e-22
1.780297087e-21
4.769772362e-21
1.584586727e-22
5.439722061e-21
7.279416638e-21
2.428930794e-22
6.884375098e-21
8.553946016e-21
3.747913899e-21
3.293346444e-21
2.110208548e-21
7.024652903e-21
1.047682165e-22
8.4767315e-21
1.090356111e-21
1.349455158e-20
6.369160854e-21
2.152710042e-21
6.400994171e-21
2.612952587e-21
1.410882039e-21
5.563024928e-21
1.123890167e-21
4.45201253e-21
2.942113217e-21
3.966145887e-21
1.137198786e-20
1.131017952e-21
8.706499559e-22
1.267052246e-21
5.15900091e-22
7.573904522e-22
2.713387924e-21
5.013567431e-21
7.035585922e-21
3.891964866e-21
2.905187039e-21
2.590524581e-21
2.522645365e-21
5.795550252e-21
1.040039795e-20
2.726032887e-21
1.823447189e-21
2.178290522e-21
1.512277093e-21
1.733717743e-21
4.189074558e-21
1.223514832e-21
8.41070921e-21
3.478529001e-20
4.544680129e-22
1.384262089e-20
1.071029592e-20
1.365000059e-21
6.315005835e-22
7.96303715e-22
9.522360234e-22
6.207896874e-22
1.414490697e-22
1.329251911e-21
1.091837132e-20
3.75428262e-21
1.288286595e-21
1.847259129e-21
1.229483488e-21
1.776496479e-21
5.041945868e-21
9.579183363e-21
3.397807613e-21
2.8626698e-21
1.783461091e-21
7.267554777e-21
3.6636586e-22
6.82831396e-21
7.274470764e-22
1.102980218e-21
5.0917555e-22
4.475052393e-21
1.395758716e-20
1.93025323e-21
2.923545626e-21
1.729301185e-20
1.572955116e-21
5.295788934e-21
3.138905944e-21
2.967114056e-22
2.110963906e-21
1.763098199e-21
1.873148992e-22
4.832680846e-21
1.168960946e-20
7.992774213e-22
8.174051733e-22
1.970976497e-21
8.615552346e-21
2.980050651e-21
1.140032755e-20
1.61747121e-21
2.019395709e-21
1.636301408e-21
8.257078554e-21
4.278831239e-21
6.609236924e-21
6.780141712e-21
1.290932185e-20
4.186964077e-21
5.294054893e-21
8.714660916e-22
2.241216035e-21
9.528827617e-22
2.95293464e-21
9.696799039e-22
3.082838311e-22
1.517373136e-21
2.664555704e-21
4.059698117e-21
5.071585481e-21
7.487948e-21
1.15871839e-21
3.564119191e-21
9.335542623e-21
6.181558927e-21
6.537201893e-21
2.635403683e-21
6.44517508e-21
1.039575859e-20
5.261618798e-21
4.304973294e-21
1.912150312e-21
5.065019137e-21
1.779726814e-21
3.752441823e-22
2.753574549e-21
5.542594564e-21
6.132931408e-21
3.412881196e-21
2.222654884e-21
2.61034262e-21
6.172091482e-21
1.643310501e-20
3.338965027e-21
1.126315633e-20
1.193278731e-20
1.561696548e-20
5.560837314e-21
3.156451193e-21
2.235474608e-21
2.671314503e-21
7.975184839e-22
1.674065026e-22
4.693363938e-21
1.774952616e-21
4.456953795e-21
3.448489978e-22
5.574950042e-22
2.700239671e-21
1.321470964e-21
2.031150175e-21
4.769916851e-21
5.992535242e-21
3.148427131e-21
2.651314001e-21
2.449795757e-21
1.618424798e-20
2.306087269e-21
3.792692549e-21
9.258923146e-22
1.309582323e-21
9.811737499e-22
9.035063747e-22
6.308631828e-21
9.83293271e-21
2.834803615e-21
4.640586565e-21
1.472966311e-22
4.799118359e-21
2.282734139e-21
4.376962622e-23
6.865031331e-22
1.054995279e-20
7.154211148e-21
6.122892053e-21
2.489864009e-21
3.797210482e-23
1.234900863e-20
2.341095759e-20
1.168554252e-21
8.496159536e-21
1.440020336e-21
5.806330263e-21
5.915541551e-21
9.053803538e-21
7.993957839e-21
1.910381591e-21
6.133868625e-21
1.664557966e-21
7.264819093e-21
2.070305347e-21
1.487138435e-21
5.836224704e-21
8.51187147e-22
5.367071324e-22
9.241065518e-22
5.594744202e-22
2.984742821e-22
7.054203388e-21
1.121234108e-20
4.234159487e-21
1.661460786e-21
4.981579591e-21
1.204089601e-20
1.816826056e-20
1.444655361e-20
3.050712278e-22
6.806287221e-21
6.038814416e-21
2.365410792e-21
5.227658271e-21
2.176376477e-21
2.359708701e-21
4.354464637e-22
1.159173626e-20
3.922418454e-23
4.613606827e-21
2.688419121e-21
7.326633003e-22
2.126812221e-21
5.323030788e-21
4.840676243e-21
4.593554011e-22
1.588898678e-21
6.795048985e-21
2.465003585e-22
1.620103177e-20
1.249287037e-20
1.143255002e-21
2.297914114e-21
3.629867109e-21
6.462429541e-21
6.65505542e-22
5.15383266e-21
5.672392644e-22
1.088895629e-21
1.07368711e-21
7.427564666e-22
1.574749573e-21
1.517237638e-21
4.09392981e-21
8.695327861e-22
5.454811297e-21
1.828637614e-21
5.486908029e-22
2.375924464e-21
2.460009656e-22
4.072147856e-21
1.085782124e-21
2.406056186e-21
1.216970709e-20
6.441924855e-21
6.300679262e-21
4.142070347e-21
1.067127211e-21
4.300396006e-21
2.031544009e-21
1.852799822e-21
2.161735291e-21
6.422039253e-21
6.524911756e-21
5.45274779e-22
5.725779006e-21
2.937922801e-21
2.421438765e-21
6.053591133e-21
3.973012331e-21
1.128529444e-21
2.59320864e-21
2.14122786e-21
4.439917399e-21
3.237201928e-22
5.656490645e-21
4.668627551e-21
2.638415473e-21
5.73555022e-22
2.996567193e-21
8.313415045e-22
1.603133722e-21
3.057882671e-21
1.162906893e-21
1.048193315e-20
3.610123879e-22
6.273972581e-23
2.967262684e-21
8.048032679e-21
5.032372933e-23
5.566644173e-22
4.266946848e-21
8.819271707e-21
2.261611873e-21
5.606187382e-21
6.941941526e-22
6.026462922e-22
5.805382805e-22
2.663616734e-21
4.735423018e-21
8.581785198e-21
2.802962702e-21
2.289739806e-21
2.892163228e-21
2.917487901e-21
5.640955515e-21
4.447911818e-21
3.500267283e-21
7.876022809e-22
1.518199655e-21
3.751475194e-21
4.285920466e-21
2.089164739e-21
6.945412272e-23
4.506314114e-22
8.818626377e-21
2.176202048e-20
8.874862848e-21
6.047786738e-21
3.049010128e-22
5.966542847e-22
2.201384467e-21
8.655361052e-22
6.426773071e-21
5.839387816e-21
2.269281302e-21
2.017504961e-21
6.922605302e-21
2.057211983e-21
8.9468381e-21
4.52456551e-22
3.764674947e-21
2.465423007e-21
1.921827822e-21
7.832903354e-23
9.592148302e-22
3.360879234e-21
8.106074067e-22
4.342743782e-21
7.689585046e-22
4.922388822e-21
1.29116589e-20
3.091545912e-21
4.241033168e-21
1.196455104e-20
1.247086191e-21
1.427277008e-21
2.416829275e-21
3.298142575e-21
3.043645911e-22
7.196036425e-22
7.532771627e-22
5.373886344e-22
1.603713244e-20
1.094219792e-21
3.867250147e-22
3.538736993e-21
8.271011183e-21
9.447966836e-22
1.380000707e-21
4.740197783e-21
4.405670812e-22
2.19282362e-22
8.225508111e-21
8.864457736e-22
9.738594245e-22
2.551465136e-21
6.411033012e-21
9.598262665e-22
1.47632061e-20
1.463171243e-21
6.372121864e-22
1.271266405e-21
1.922366778e-21
2.877184162e-21
5.094485398e-22
3.773046e-21
7.568133894e-21
2.662326638e-21
2.274847329e-21
3.672004737e-21
1.086949509e-20
4.284746214e-22
8.387920136e-21
3.262773403e-21
1.922895783e-22
1.269581449e-21
7.52112458e-21
2.481554198e-21
4.962511933e-21
4.34522799e-21
4.018326344e-21
1.774510782e-21
4.785870557e-21
3.716924648e-21
6.426178956e-24
1.638413257e-22
2.174705568e-21
2.933510013e-21
2.367849796e-21
5.634526327e-22
4.379755182e-22
2.39447172e-22
2.822690714e-22
1.828530236e-22
3.739798851e-21
4.995287544e-21
3.173202111e-21
3.634773678e-21
4.249598558e-21
1.474913426e-21
6.792195337e-21
1.222894132e-20
2.681576312e-22
9.064393056e-21
9.157622133e-21
2.907938665e-21
1.953087347e-21
3.387123563e-21
3.408908969e-21
2.299946175e-20
4.729357915e-22
1.724801321e-21
3.663378458e-21
2.967496246e-21
3.721673828e-21
1.369722431e-21
3.907310385e-21
1.311955013e-20
1.52902893e-21
1.409852768e-21
2.059551983e-20
1.199095366e-21
1.330487666e-21
3.872369858e-22
5.389383915e-21
1.880511567e-21
1.257297677e-21
1.059704103e-21
1.645130678e-21
2.920451674e-22
3.241809386e-21
5.23775412e-21
7.451260749e-22
2.381143231e-21
1.319176823e-20
8.951890208e-21
1.511331797e-20
9.993364342e-21
3.67050181e-21
6.180287605e-21
2.329720395e-22
5.608398273e-21
1.869079182e-21
4.322902037e-21
3.421594573e-21
1.813566569e-21
5.292795958e-22
1.527404923e-21
1.168342911e-20
1.509886481e-20
2.018791113e-21
2.489813466e-22
2.136708889e-21
1.794773336e-21
1.016761828e-21
3.256338541e-21
4.210082637e-21
4.352353432e-22
1.448408056e-21
1.079635021e-21
5.938592866e-21
1.101183723e-21
2.378111542e-20
7.268434677e-22
2.379027319e-20
9.655558146e-21
3.265318177e-23
2.34934356e-21
5.022216667e-21
4.044690772e-21
2.250973907e-21
2.25013178e-21
3.133342935e-21
3.089618175e-21
8.655182353e-21
3.259106001e-22
5.463043302e-21
5.491444719e-21
9.050214234e-22
7.04105528e-21
7.362301624e-23
6.627905028e-22
3.490405143e-21
9.432192732e-23
4.482652482e-21
3.805789105e-22
9.923625978e-22
7.867931941e-21
1.216681843e-22
2.479046925e-21
4.328641001e-22
2.629237067e-21
2.282591348e-21
7.395263872e-21
1.1109062e-20
9.125803264e-21
5.9352534e-22
1.551806998e-21
1.916708774e-21
2.142885694e-21
1.28563742e-21
6.791374651e-21
6.39666614e-21
3.944887659e-22
1.872253026e-21
1.477389223e-21
2.012758114e-22
3.29730785e-21
2.624259257e-21
6.313165202e-21
3.197555021e-21
1.790231315e-21
1.688653975e-22
3.547695278e-21
8.614706844e-21
1.779118435e-21
7.687666836e-21
2.38633588e-21
2.116958006e-21
1.519519274e-20
2.510819369e-21
5.395662334e-22
7.582921399e-22
1.848244781e-22
1.231533606e-21
9.155679653e-21
1.03821885e-20
8.274118042e-21
4.62491552e-21
4.649221052e-21
1.307128249e-20
4.772062708e-21
2.816318501e-21
2.638807775e-21
4.59035477e-21
2.632152394e-21
5.415558773e-21
1.339566331e-21
1.248078157e-21
4.025275158e-21
2.509117864e-21
6.128887591e-22
1.167074975e-20
1.232812096e-22
3.233495073e-21
1.607759011e-22
5.512289198e-22
2.522147294e-21
1.062928959e-20
1.640362019e-20
1.126437899e-21
7.003032162e-22
5.929978607e-21
4.160803301e-21
6.83923888e-21
1.385106015e-21
2.046388252e-21
1.083786774e-20
5.857060249e-22
2.430947668e-21
1.086613015e-21
3.598002394e-21
2.965651212e-21
2.248773164e-21
1.459071813e-21
1.289874369e-20
6.515512698e-21
5.173655653e-21
8.001073311e-21
4.342016132e-21
4.113423654e-22
3.322231133e-22
3.374736018e-22
1.840007133e-20
3.606619662e-21
7.268071566e-22
1.953647636e-21
1.869728953e-21
2.37187771e-21
4.134977116e-21
6.541098895e-21
1.738999871e-22
5.376890164e-22
3.016301817e-21
3.550009829e-21
1.118631216e-20
7.038110614e-21
5.524460038e-21
1.230365445e-21
5.083760972e-21
4.354210611e-22
6.830661533e-22
1.914006105e-21
1.113320361e-20
8.197230703e-21
1.593187608e-21
2.000462049e-21
5.891196531e-21
2.466053909e-21
7.194747601e-21
6.010607997e-21
4.778788209e-21
2.037648118e-21
3.295424367e-21
8.468363527e-21
5.794537068e-22
2.460956269e-21
3.568741183e-21
5.77751154e-21
5.37081766e-21
9.135686345e-21
7.79958323e-21
3.326297009e-21
7.293549778e-21
9.610251441e-21
1.649679946e-21
4.723015838e-21