/*--------------------------------*- C++ -*----------------------------------*\
| =========                 |                                                 |
| \\      /  F ield         | OpenFOAM: The Open Source CFD Toolbox           |
|  \\    /   O peration     | Version:  v1706                                 |
|   \\  /    A nd           | Web:      www.OpenFOAM.com                      |
|    \\/     M anipulation  |                                                 |
\*---------------------------------------------------------------------------*/
FoamFile
{
    version     2.0;
    format      ascii;
    class       vectorField;
    location    "1e-05/lagrangian/dsmc";
    object      U;
}
// * * * * * * * * * * * * * * * * * * * * * * * * * * * * * * * * * * * * * //


100002
(
(-92.46825131 -156.5619728 -687.5071042)
(545.2047471 382.1831455 211.6454242)
(233.1036628 -107.5885074 130.8237936)
(104.5436254 340.8164531 -577.8062917)
(-148.6117017 141.7444892 -159.46904)
(286.1961885 -15.89977443 -593.5134459)
(-79.24527 112.401211 746.6238532)
(337.0384698 -21.49545122 601.091908)
(286.5590252 -139.6235021 -35.29832848)
(-28.33819384 -382.0968566 -221.2358886)
(11.69456965 78.04376346 -519.4061046)
(100.6566464 349.850628 -210.43679)
(-410.9585806 18.34586582 256.5127638)
(-222.1562507 -172.9410472 -82.77014096)
(34.03613084 235.2924476 186.5220763)
(26.86274753 97.65633641 -152.671162)
(13.42314231 125.4229994 -365.4793748)
(-14.71797752 -173.8829148 17.46702273)
(-262.7787704 -150.4492336 -559.8949628)
(-139.1397848 -535.4140771 602.8933738)
(-267.1752026 359.0637995 325.6144635)
(-235.8938859 -148.9786978 193.1036532)
(-46.94278905 381.4418785 188.5486147)
(-82.77617286 152.0016982 59.43249328)
(-154.3032908 142.6787507 679.2438929)
(221.0799579 -339.2224261 -12.6992661)
(-269.0941402 590.8707354 175.0066858)
(-203.1800985 -611.7755762 327.0416115)
(288.9577536 35.45773559 145.0020095)
(-454.0882304 -54.40247164 264.0192813)
(73.93765995 -147.4280248 -235.2316023)
(-91.84654012 20.66290132 -203.3251957)
(-385.8741471 -235.8197724 119.3821109)
(283.5822032 -123.397877 261.569711)
(610.6439244 22.25025553 -312.8924495)
(137.0875768 -114.5472322 -317.9374496)
(-85.48350422 -49.330468 -218.4848629)
(-40.34892602 -405.4135674 -239.2598956)
(145.2847638 -168.7202519 -316.1106647)
(-231.5561106 -245.2080289 -54.88889183)
(733.7075508 -411.1207115 -114.6640733)
(287.9650284 -157.332104 -80.79536435)
(-275.1377248 -126.0789746 12.31191845)
(363.8559077 -108.8600339 -411.1339501)
(193.1651132 202.8087897 -458.3523369)
(-53.69637682 141.3496057 53.94790077)
(424.0493527 -131.2716008 -113.9831677)
(-174.0785673 -236.1323337 -50.73579521)
(-48.44891381 92.6415565 -245.9470577)
(-21.47970653 273.4803311 -203.1053578)
(94.22545356 -221.159934 -303.7320697)
(-201.1467186 -6.066043543 -67.07029017)
(-442.5074864 543.3934876 -20.11961304)
(-211.7259352 -476.839157 42.75826537)
(-353.6802962 134.3098184 5.825436876)
(-216.1818832 248.065152 -49.81337173)
(-66.09150631 316.9862296 76.87402349)
(154.7021224 154.2948411 -180.364959)
(57.47793244 101.1674007 -439.9930539)
(703.6441435 406.7254423 -90.13425731)
(326.648831 283.1938362 127.0214181)
(17.61602965 -70.30981837 397.2307616)
(112.736528 -39.74375749 -447.6793752)
(337.3957283 -352.8198313 409.6091081)
(-404.2770547 113.2179432 30.32664934)
(506.652383 -209.076785 620.3282896)
(-340.5346129 288.1665656 190.3585253)
(188.0824271 -534.7300085 168.0958588)
(67.97319151 -73.33031019 -417.9299658)
(-431.4659021 -519.7502531 287.5564616)
(97.18375107 -142.5541153 -175.0555741)
(212.7987949 378.0664482 731.831701)
(344.8828854 -152.0435236 -148.9449211)
(370.1054733 339.2258486 -216.8988453)
(111.4898027 177.0466752 -90.09278269)
(-70.76980681 -311.924135 338.2828252)
(-85.09009996 -383.0424721 64.12079579)
(562.1674112 -558.0061182 -465.2673653)
(-551.5530147 38.1826597 -114.9004374)
(-195.6264207 -382.7322524 -82.70772549)
(561.1967468 -43.41386872 55.06218008)
(-109.3904004 -6.280093385 -84.6533315)
(-54.45263228 -197.4363643 -302.3244775)
(179.3280407 -169.0069385 205.341099)
(-70.53130331 -276.1033074 -17.16025679)
(82.03114993 -131.1033968 -195.9281663)
(129.4488219 -248.1238994 -121.4651658)
(20.51898089 -884.3047366 -536.0338139)
(-120.2711552 372.1932257 -216.702544)
(-329.2825639 -200.7982938 84.03446716)
(192.1899105 118.6339962 83.3226577)
(92.85186194 45.10091968 -125.9110714)
(-188.084907 -511.5125618 -163.6703047)
(-208.0757172 405.1354207 -295.278292)
(-560.5602348 -156.5732706 590.2365665)
(156.9834865 -191.636195 16.98998706)
(-73.05981464 -704.3637252 -52.22383764)
(-302.009357 -151.8514148 286.0406768)
(-14.61050637 -363.6307602 165.1892497)
(210.3750201 193.6738199 -204.8591735)
(-10.01696402 48.93246416 -593.5057349)
(-701.9217063 409.7301724 41.20973296)
(53.98346124 -9.770855337 -406.2184868)
(-80.60796284 -0.7756640146 73.16530061)
(-207.6947174 -361.8416617 -201.2032077)
(-334.943274 290.379716 105.8975181)
(132.6641648 -135.9967652 321.4646608)
(-85.08471643 149.6494397 890.3139554)
(-112.9503805 -280.7396553 101.406324)
(255.4221296 -53.84107806 -234.4604295)
(204.5607399 -26.59793793 -71.51706989)
(443.4977726 -59.05131641 184.3640666)
(-368.92261 -162.500845 14.29868678)
(246.4629174 327.5915205 316.8066203)
(286.6394288 -121.2563423 -295.546542)
(45.92744394 -166.528572 -257.4706943)
(83.22812212 465.9913958 169.1625931)
(542.470419 236.9803941 93.54838001)
(-207.0960098 -143.6314365 -126.8824736)
(74.65334683 155.8410984 177.6939906)
(-72.81541947 -182.130459 324.660082)
(533.4023178 -288.7886423 -124.5890117)
(202.6083211 140.4316485 96.36725454)
(307.7355491 -331.932182 659.4746152)
(-61.78620958 309.9898241 -475.9754459)
(-95.66358235 229.9298265 -38.85415489)
(380.4567002 -81.36616599 430.3338016)
(-341.2404336 -665.815869 429.4488737)
(93.39842066 344.5129665 -170.8601978)
(-27.17502987 -417.2091974 -179.8891414)
(596.3024602 53.78579448 -562.8025704)
(-475.5635931 270.7417586 319.2558905)
(-414.1592663 534.0129264 423.5961832)
(-478.1958907 -134.9125615 47.69753968)
(-251.7350889 246.0018422 89.42303894)
(-15.08908346 32.77222969 108.2614184)
(-767.3741589 -252.1035975 128.2483956)
(-164.4467023 -617.5678329 309.270927)
(-296.6341619 238.8895258 -95.83616025)
(119.7393767 -392.4622182 34.27983149)
(435.6854801 109.6764096 101.9340252)
(-417.1385016 -225.6755956 -229.3227767)
(-538.4150669 -85.97527526 -275.2990229)
(-217.6362842 237.4043024 -255.7932328)
(-583.6499347 -51.58156403 353.147336)
(247.1967924 -79.98647396 -185.616668)
(167.033303 306.8318029 528.8762989)
(-62.55409624 243.4947887 -248.5672367)
(-8.728981928 -587.8472685 131.9536384)
(248.9985267 31.21237522 -568.5166154)
(77.16899632 -75.52848929 237.3277338)
(214.1016018 -227.3492652 -280.4920965)
(164.035605 464.6563733 179.0618298)
(-282.4011182 329.2425673 17.65976179)
(126.4395241 -446.8210423 -338.8830495)
(-336.7113817 124.7068206 -85.72189992)
(220.1688727 60.56452955 -372.3275217)
(280.5570746 1.961165332 150.7813525)
(440.3601128 383.2124262 363.5012585)
(76.97621904 -763.1934968 31.42091931)
(-113.1037672 353.5720724 -332.4199163)
(-100.4570469 -354.54494 185.6903833)
(-308.7074181 92.6731728 192.2394708)
(268.4427717 347.1523985 64.80474303)
(53.50705136 -579.8327278 137.330382)
(-382.3205771 -521.9541713 555.8180993)
(-52.35108991 86.54925457 390.5085366)
(67.5172725 -170.192895 -372.9501561)
(-306.8435303 831.4864349 -324.5926885)
(75.92904613 55.95277832 109.7756655)
(206.047027 302.3358249 -59.97072232)
(-452.4906751 65.99334811 -21.98434877)
(-286.0808923 -62.28895234 96.08971734)
(623.83125 -128.3649115 -4.805699463)
(-98.58973686 119.0845804 198.4816732)
(-31.71125042 -228.5204981 68.92768836)
(-287.3281508 -60.80724039 57.13198822)
(-455.5893538 -243.2333421 217.4484486)
(606.6448941 358.6787216 -454.6066327)
(62.85363421 -75.63042886 -436.2306155)
(-246.1033299 179.4027244 -144.9376651)
(-360.2256365 39.4043866 -127.5805998)
(-180.2689702 -315.7742876 235.502713)
(-17.27007528 -426.7477199 -223.4062857)
(-554.384165 -56.09271747 175.3625915)
(87.08836451 211.5984966 -242.9738455)
(-175.0080086 -99.09380415 -104.2242278)
(-65.37581041 -62.96211319 68.41773971)
(288.9532814 101.4444658 -545.445515)
(115.0976674 263.2675865 45.4069404)
(-564.8635043 350.4909098 124.7700888)
(-389.0909457 -128.3398145 -148.4745356)
(-665.1291634 37.37320055 128.8378321)
(-214.4911756 104.2280655 52.06437554)
(353.1525265 187.1954891 -85.63608679)
(-289.4418722 466.330868 225.6992312)
(-135.5299698 377.2652837 298.8265374)
(-253.999341 232.1998675 272.4786031)
(-157.3094233 339.8264547 -86.53484439)
(-60.48700589 10.92979191 -140.6712879)
(-218.3107406 -156.0821657 -89.60917489)
(-24.15322436 -99.97218064 -90.0673478)
(346.2012637 126.8189065 -233.5981164)
(-387.4903149 152.5603639 263.1307485)
(-214.0442513 58.93114049 533.0486269)
(395.746238 -37.99820078 -325.3003652)
(-267.0000935 276.5998412 281.9362704)
(25.53326218 120.5969879 -463.3317893)
(152.3278147 238.0482426 472.5305106)
(158.0032655 34.07535747 27.75118593)
(307.2897222 311.18173 171.6882184)
(56.75991113 292.8751811 178.9151546)
(-29.64576578 89.17044739 31.0773426)
(411.845423 -124.3783728 -69.01616784)
(224.2591523 -306.7798079 283.1137078)
(283.7486623 -46.85011776 -586.4949218)
(-193.5163974 189.9263198 443.9971236)
(-213.4693442 559.1415224 174.0236027)
(137.5387399 385.7627904 -46.71187735)
(254.0033193 -168.6109244 -290.3857019)
(350.832841 -343.0633476 -66.57802369)
(439.3945009 172.3601473 -56.97911816)
(-272.1360832 -949.9390713 -501.7470098)
(-32.95678933 -160.7880544 228.5664157)
(-98.44942933 271.065898 199.8643653)
(244.5126954 0.2363270117 148.9609713)
(458.668964 59.46328616 -137.6522236)
(99.53567225 271.4269866 270.5790919)
(41.11878365 230.7762011 35.34137311)
(-125.8724 328.497775 174.2425069)
(5.202253842 -38.0311825 -444.051163)
(-37.73590458 -300.8936061 -110.9276159)
(41.69892164 920.0764801 191.4027349)
(-394.6263473 273.2867643 562.3366777)
(545.6740045 -500.5827717 -140.9540164)
(161.3366756 -259.3464818 501.0689996)
(-138.7786187 -233.9849412 -133.2363971)
(46.6231467 381.3548296 597.4349014)
(216.9768396 48.66894321 -203.4452583)
(111.3479749 -254.6998065 -117.7553689)
(-58.11655476 -45.65110917 -89.03894024)
(-72.10524636 -544.1455661 358.5723356)
(116.8213323 29.74953253 175.0564152)
(-41.65833154 187.4903632 -350.1595826)
(315.7340801 -254.0480379 235.9957802)
(131.2357364 181.1067492 341.2187871)
(-849.276364 -30.08962488 -155.4659927)
(243.1038938 -124.5193669 -161.4322387)
(266.8086451 -143.2872902 36.20590842)
(-432.8440254 269.3515904 -5.590810218)
(-5.968995993 -235.3358544 -84.74614805)
(292.5535675 2.041843657 -227.6792653)
(-341.6830031 152.690671 110.0897884)
(0.1677901096 148.8465333 239.5083564)
(393.2393181 -182.3342492 -12.60120906)
(356.4757851 20.59389032 197.3072218)
(-456.8675269 -157.8423399 154.4345939)
(188.9978926 182.1627297 -292.8251389)
(245.6552784 125.6837879 -354.6605308)
(-221.0977263 -346.6727478 -396.3147718)
(145.3788741 419.8448352 295.7706533)
(212.0921026 -131.1008493 461.2631693)
(548.4345245 -220.7621589 274.9062813)
(87.92907145 579.2514715 238.0804931)
(-242.2716545 -367.1442638 -125.1949758)
(284.8362133 421.6396944 -23.36800233)
(293.4225305 336.4458205 -261.3035674)
(10.85806495 16.09768509 -66.51856375)
(19.97274339 -217.850923 673.3715199)
(241.7407726 -150.043087 -254.8118972)
(573.2475414 178.3537848 -4.279644971)
(-138.3029561 -328.2145842 -357.0658033)
(-66.40353497 204.769689 -65.04232222)
(-78.56958032 -214.0768523 30.08543191)
(-21.68037584 -107.2051791 -198.1584121)
(255.5661261 724.5124972 -93.41136808)
(-351.1405472 171.9876156 695.2523024)
(275.1680725 237.1721595 -199.9398868)
(-442.9850492 50.88899579 -155.7579431)
(139.5432486 -23.30279723 347.7843902)
(72.50985277 -300.1238054 -31.94589241)
(-27.7508581 339.1603258 -225.6513161)
(174.0158457 678.2143646 106.9553173)
(280.7181409 -172.314338 82.6008534)
(210.7654872 60.2215624 -216.0811433)
(-128.5645129 11.46554341 584.6076541)
(227.7587396 -3.914976132 105.0598433)
(111.2536096 271.1997613 -129.4125602)
(-52.803472 -513.2128314 87.98641984)
(47.53572403 -593.1741529 221.3521919)
(327.8928674 470.7633076 -38.83385149)
(358.9359664 460.5449448 253.9174016)
(-326.0917833 -49.63598378 -141.6392794)
(-13.88767472 -121.0697927 185.4666334)
(-279.8424875 257.2431636 132.3313347)
(-175.4742727 -54.84726477 434.5155967)
(765.5281006 -615.1878229 -605.0092664)
(426.6703004 246.7145405 -88.38188918)
(444.3207041 248.6749109 31.91212296)
(-89.90337972 175.6557466 641.1206075)
(-144.891624 428.6255967 399.5019118)
(-149.4255207 -362.8148317 340.4953603)
(-345.8196369 135.0591904 -122.1661015)
(494.5883925 95.99153332 54.77702461)
(278.998298 -55.29028473 192.7386359)
(-199.416227 -102.6164766 116.4988016)
(-263.5837131 305.3934055 392.0120518)
(72.63520009 792.0900145 -56.48528321)
(-628.2428796 -241.696365 -229.0906368)
(544.8382564 -352.2428378 39.16012022)
(-32.49349425 -59.69770522 281.8678476)
(-353.7480731 406.1178676 -21.37524967)
(-1.756397435 607.1291071 91.82959588)
(-34.0656297 -55.23796369 150.438987)
(180.9880487 482.2531863 -4.694974025)
(210.9030919 -149.4964523 24.89662431)
(114.9888621 170.9658018 86.3214056)
(-28.28963893 -552.8968593 -588.6849399)
(150.8060294 65.70696332 -92.49006667)
(-459.7340784 -519.6416847 -84.59978708)
(-29.77906405 -239.5734662 -396.168118)
(493.7283934 -107.7172514 -122.344157)
(50.59278169 74.41163891 6.403002641)
(-197.9997813 94.93100352 172.4854104)
(98.12030212 -494.8297725 298.4643894)
(168.0543821 140.9219864 189.0007654)
(-235.4784748 146.0889299 -572.5883494)
(-285.1096126 -211.1825061 247.8954872)
(-94.31112533 -55.55776727 -66.75481058)
(-38.27013338 190.2507488 490.0389822)
(547.0761544 99.66862416 163.1439973)
(87.42462032 448.3570609 -280.8337527)
(-285.3713057 -31.3229146 278.6010663)
(352.3372806 156.0491843 114.9836112)
(173.4777399 -191.2348495 329.408375)
(-115.0585724 -419.3439074 -344.3021802)
(-25.34009765 -255.6413312 62.66891165)
(60.23798015 403.468064 124.554901)
(126.6368578 -318.1786993 754.8492918)
(-470.1444013 332.5022565 195.2538504)
(40.12842478 -145.6481338 160.1846689)
(-279.845202 342.3986433 -410.4584706)
(106.6777448 185.3355814 122.5026756)
(168.1601872 -450.6865876 -554.2875353)
(35.40253109 -57.91386668 490.8324032)
(131.8327544 292.9928752 139.3343395)
(-196.4504544 104.575502 -624.7099187)
(575.5792782 459.9347603 -368.6969196)
(-352.0559298 127.4097339 312.1991077)
(46.9606469 324.3977154 -73.45765477)
(-104.0671946 342.9534426 279.5750686)
(-248.2659256 65.64382451 -359.7224305)
(-161.919814 134.7145693 -290.9625473)
(-73.19534753 -177.5364263 384.7405408)
(37.7009595 205.1782725 -491.8027451)
(70.94749083 565.00005 279.6623384)
(448.6597074 95.25738455 -468.2307879)
(-90.93610687 -197.9397728 -138.5813573)
(52.43664163 8.996873381 25.14167418)
(-93.94786322 -397.9627519 -388.0896183)
(-99.62719001 127.2739492 -204.1934029)
(16.50782054 279.4994228 21.6133273)
(-448.8732155 -110.8698779 177.2186699)
(169.1636234 -437.8303588 -99.79722736)
(-164.0850563 -70.91572977 259.9327172)
(441.7520162 30.71431767 106.6358066)
(558.4521834 279.008228 33.22637053)
(415.0556499 -41.86927093 -1.813295093)
(-71.26090638 -338.465261 -7.368203747)
(152.5018441 -12.13314519 -406.4789753)
(69.62627506 237.9225344 -41.93492502)
(82.697991 166.9973063 -108.939663)
(354.4182593 -518.7212241 -152.5108504)
(94.20492927 241.7884129 -160.0834556)
(-528.0678682 30.4204403 238.7600746)
(55.02267763 -319.6153245 -208.6447093)
(74.4108479 -354.9048793 -567.1450608)
(78.87603049 208.5616265 53.77869616)
(670.9188967 -200.508539 -157.6718174)
(-165.2739968 -76.46431161 489.6887437)
(-416.6594296 340.561499 638.4039824)
(214.3272749 452.3055728 45.17892504)
(368.7063394 11.39987957 121.9159638)
(640.3905261 -153.7759288 530.7652402)
(-128.5947749 62.51447942 187.2510276)
(-53.93773667 -268.5818264 -252.5427668)
(398.313539 473.9071643 -554.8915205)
(221.2116605 -25.999028 -93.93748189)
(-59.45305927 -163.5755047 60.47699173)
(124.6347352 -447.5401595 -113.9067704)
(-52.87014022 270.9864712 -122.667847)
(79.96659353 107.863232 178.9580374)
(-204.9106385 513.6791203 168.5052286)
(578.3257199 -328.427197 -98.11322256)
(-356.0928576 104.6661351 85.09617644)
(-53.48845488 33.45112164 153.6723001)
(-707.55027 -90.53435084 306.8740614)
(-322.3779437 88.26635352 375.9287168)
(412.3876285 117.156588 173.2477883)
(351.1892542 269.5261878 -87.13879022)
(140.7807884 135.6764455 98.84936481)
(276.8605478 -324.4981821 112.5088275)
(181.3524931 254.0327923 -255.0325683)
(-692.3064439 12.62296288 -67.90204842)
(342.6432604 -932.1868725 -700.6023928)
(261.3434957 -78.55236149 -383.5859634)
(157.6402622 96.62575326 114.0156775)
(409.7943569 -479.0297921 -472.7566357)
(-153.2850668 -169.8003744 -197.1120301)
(-183.3494905 -45.16967867 -90.00561556)
(347.0134944 -323.354375 144.3624165)
(338.8139015 203.1234233 -224.5845328)
(23.91783466 399.4689291 441.4280948)
(228.580813 -218.1220471 469.4457391)
(17.01403814 553.0480666 31.92400787)
(328.1132669 8.068725579 -549.8256283)
(-226.190155 -190.0122636 176.4572148)
(174.4686599 79.23475498 -263.5307622)
(106.1832518 12.31198543 -185.5779964)
(-375.1727673 -387.1453353 137.2855127)
(-52.80174881 35.7880011 247.3433705)
(189.32752 54.05749538 125.7491229)
(-82.5121603 297.8729926 -670.3299635)
(364.4754977 208.6893854 -124.230931)
(-144.6895895 -24.99196609 297.7983878)
(-810.6133563 237.9666662 403.9314917)
(31.38481957 -185.8027848 -618.9339772)
(-220.9562222 30.25275964 -415.7272704)
(451.7084725 -183.8693232 99.99651652)
(-37.59162604 -357.0586178 42.43912217)
(-478.2128802 -455.5794096 -231.3701764)
(14.24319543 280.0046416 -175.6173615)
(-155.8708497 35.86878608 50.4534031)
(299.6248449 291.4337909 -574.7263574)
(109.8006738 168.7693978 326.7681168)
(-223.9001039 137.9824143 -280.6607513)
(-51.44696877 -155.7064376 535.453858)
(-218.7405097 201.0367123 -75.03332797)
(252.8616077 203.0251999 -312.7983215)
(-180.7438565 248.1545884 32.57443824)
(158.0549571 -349.2850461 -107.133921)
(185.7293244 345.9824863 97.60890447)
(209.8766194 -257.7283484 -55.80462543)
(-296.7257479 -28.81892736 -258.4217059)
(-754.2153083 -573.0109945 -401.6649296)
(-648.7778874 584.2094844 18.73631658)
(-123.0820998 -148.9729623 -144.8378874)
(-11.98286658 408.1972103 110.3001209)
(-46.153951 -429.4977292 -267.171121)
(29.07328897 82.13640334 -212.4812369)
(391.903285 73.90684273 200.4264173)
(103.2683821 -262.9456449 356.8816107)
(445.9235164 -506.5754008 192.3607021)
(48.42087615 372.857848 -327.9091081)
(518.4194528 316.0422679 -105.9011917)
(340.6478514 149.8113194 -186.0292295)
(-300.0362727 -359.9428807 -609.8465331)
(-255.6577949 -197.6048108 340.6062475)
(319.0530257 9.636584904 339.9244642)
(-328.8051234 -189.5816412 492.8659325)
(-343.2774561 -460.1101204 278.2626223)
(-64.90203902 -52.9832489 222.7369339)
(-44.74087659 -740.5477993 444.0227741)
(50.98875642 -28.30332435 134.4155285)
(-184.1186368 215.7209758 -116.9300498)
(-227.9414527 474.7062366 105.2528884)
(264.2042877 -66.30032417 -43.9005004)
(-138.8596173 -200.1025957 184.0859819)
(533.4857492 254.5511974 513.4464912)
(212.6831813 -418.9986947 235.3720088)
(-368.2305563 244.8074219 8.965692619)
(121.5844963 -130.7834043 351.1013207)
(-75.44116826 -184.7987421 493.5920166)
(-278.2804482 -44.54957913 -87.3394719)
(225.5673754 81.87161584 -218.27988)
(-141.4931902 -280.263116 -43.56253247)
(-403.8381875 -497.9585385 -342.1453514)
(169.4053965 68.64278081 -42.29629989)
(-251.670971 818.2918643 -303.3945593)
(165.6038243 458.7782057 85.96234133)
(-6.68341131 -351.3549839 297.2125734)
(-288.557336 225.4004383 -48.66489332)
(220.9468168 -591.5482178 79.46714185)
(-396.635391 530.1540567 233.3743342)
(243.7168951 614.9904896 20.76768573)
(-275.5815361 19.35564924 -180.4916124)
(21.47305942 -399.2773303 -420.9233196)
(297.8172068 -119.1619581 76.2354185)
(40.85597879 167.5613667 48.71015429)
(-197.5030208 321.9102234 83.97528511)
(275.8556949 57.6218621 411.1899267)
(-275.3686805 11.38037737 23.03028676)
(-685.5602093 764.8010986 76.57472215)
(286.521372 10.28362535 -409.4592169)
(522.1597708 -260.4344559 35.13769055)
(-153.1581791 356.0733268 95.0986864)
(-346.0423254 -174.4139859 752.3693717)
(7.629560791 3.074275434 192.3124737)
(254.211965 67.1079319 -7.71364748)
(-335.0846926 238.8212922 174.692392)
(-568.7456745 -210.4152237 183.1933627)
(321.5356375 -219.3093729 114.1348219)
(12.87640518 -363.3915462 226.4641999)
(-379.1037729 -213.0947692 -191.0374708)
(-233.9097858 76.25725602 -219.974487)
(273.5126495 647.8273207 4.765193573)
(168.8374363 54.40175488 -34.98666835)
(-83.7528671 -29.33424521 -136.9613285)
(240.3274352 -143.576868 9.528387461)
(-296.2413117 405.7595528 -252.8232803)
(-34.2327433 -322.9445871 11.77847997)
(239.3988882 -132.3201906 -282.0702131)
(-462.7876778 62.17691755 -573.9143715)
(-89.85811198 219.1337776 95.86846652)
(812.8769066 -449.1655677 283.7419361)
(567.4598041 -206.3149186 -276.9146965)
(-211.9555048 -243.3453362 349.5139531)
(9.871240536 -264.6548655 108.1128921)
(406.0106903 -537.0121401 -75.82905234)
(-285.8573394 -222.5422865 730.1018036)
(335.266942 -117.4111129 335.2370377)
(-467.1901357 659.1154247 212.8966658)
(-324.8329561 -305.3071484 -452.0073409)
(-274.0189422 -301.445198 -116.2880464)
(-145.0229372 363.5040244 -567.737672)
(-453.179556 43.25313476 -322.0982039)
(221.3211535 -35.36783187 -112.9758622)
(-314.559422 -640.5125898 -260.7294465)
(294.5737079 87.01421487 -288.1590168)
(587.2096736 27.3005448 -128.9423232)
(332.3927366 494.5481187 173.5368858)
(-414.1795597 383.1408256 -91.83674517)
(311.8267206 433.8498294 -133.3648884)
(-7.877352894 -245.3636386 145.9014581)
(6.19584282 -237.5158761 -334.8754957)
(387.2971266 -283.0101006 180.5769253)
(29.47931084 152.1686672 458.8045788)
(329.2841143 236.3495583 -10.84932437)
(-235.8691544 215.5618844 -116.3120237)
(177.6946135 19.36727067 -412.9624052)
(80.75908423 263.4782273 110.3749578)
(130.8002139 -97.30301232 -232.9169092)
(264.5450772 270.3005122 0.08021080841)
(160.0608737 -146.1264571 -65.95425288)
(-302.2316928 43.9124236 -372.7565217)
(-49.2306856 176.730864 -15.17988053)
(415.0972227 -36.60445124 127.6349721)
(572.3570772 588.3227282 281.8428864)
(-162.1640923 407.4225707 -56.45943558)
(165.9522917 65.8254962 157.3725832)
(383.74922 275.3306197 -1073.253878)
(-208.8119858 -156.7310956 104.4783847)
(-401.2996009 -310.48624 -203.3335769)
(-36.73283641 38.89017539 125.617353)
(-20.50817528 -246.5437075 155.030238)
(99.62089646 135.8496 522.3528169)
(64.21130205 119.0725789 264.6093743)
(-465.8266253 -81.67645724 -223.6124009)
(-11.89423804 -34.43111697 -27.90287107)
(-434.5745697 59.99523696 -73.32058549)
(-408.9183517 167.467438 144.2193997)
(-235.1035117 199.6407056 -285.5471779)
(-219.2808756 52.29559874 -187.2104036)
(536.5256361 399.6524403 297.2897436)
(225.0007716 209.5372862 -216.7163186)
(478.4191274 -408.1667815 271.0738015)
(21.73262467 182.6120345 -476.7897169)
(608.4804685 -364.809085 -1.767998356)
(-184.5449425 184.1391453 157.1046202)
(432.744054 297.3928042 292.1343439)
(278.6222486 -655.0127538 -102.2198707)
(-59.1620167 -424.2085279 -367.3626573)
(595.0036819 302.3432206 304.6995876)
(168.6046172 -208.7433923 44.00116463)
(-231.0788533 -226.8662119 -383.4747283)
(-194.284376 -18.216996 208.2710082)
(155.3593347 175.3621671 -41.48915072)
(217.261908 358.2930817 273.3394288)
(180.4652021 93.99607484 213.5109965)
(200.4617972 249.399485 156.8578144)
(255.5952732 -240.6145298 -290.3009462)
(174.914635 -277.8586459 33.92913719)
(38.10785975 -255.4646356 -325.6743415)
(-57.86159839 399.1025649 -127.0848541)
(-103.6112546 68.51769538 -309.8859231)
(-358.2662003 331.2996727 -438.290413)
(521.041096 269.1596279 -169.0185796)
(427.3859402 98.31945677 -254.2887058)
(152.6558537 430.9152886 203.3237501)
(-158.9020831 -525.5187549 703.4742813)
(415.0268868 -12.50276393 317.4563954)
(168.6607287 213.4105626 -198.4950107)
(-96.02512521 450.5735828 -489.4673137)
(-30.83043918 -144.1747117 -35.0100695)
(33.25498378 249.3625721 -642.920437)
(72.04616947 311.536942 780.5176099)
(-80.88493372 9.008714088 -91.92308403)
(64.75249867 22.83112002 -53.81511577)
(577.170619 -260.5712951 -95.34772803)
(363.4918417 73.71289767 -397.1792693)
(-298.4625725 -586.2265934 -129.2139022)
(251.1863273 146.6863429 -235.3021156)
(92.49545847 -11.43632245 -90.78333375)
(467.9641711 -461.3978987 67.20592611)
(-155.1083104 -274.1035038 58.57430581)
(302.111218 26.01693152 213.7600596)
(-340.5481334 -231.7990867 -175.2309252)
(-18.03029331 184.665034 -221.5646181)
(33.27547145 94.47473711 -224.4458188)
(6.139584171 64.87222295 584.1716798)
(-231.9873297 -102.8688992 409.6517472)
(-104.1997114 256.6573236 -28.28125223)
(228.3049767 -356.5295841 -119.4341062)
(130.7868721 507.2156024 257.3145015)
(88.47969138 376.7102944 337.0914027)
(53.77925382 -462.7361096 123.6525069)
(-213.5730341 -144.8223031 -94.90218348)
(103.3852755 63.39419788 85.98699309)
(-159.0130625 82.12699421 -124.1908695)
(-68.10381261 -224.2497509 -473.3466367)
(239.712479 -120.7180298 -196.1345546)
(-333.7966111 -183.4958862 -7.714356528)
(169.3271919 -56.36862713 392.7827371)
(368.7339121 -45.80845707 263.9480501)
(515.1574798 -47.14813638 656.822453)
(-153.2228178 67.37492734 -71.23035872)
(-119.2263637 381.3490828 184.6494935)
(-280.9019558 347.2698596 -85.2814557)
(-128.8212325 -134.8673632 464.463171)
(380.4351323 255.9978452 -54.56828459)
(183.045135 248.5035229 727.6605415)
(172.4559564 -315.323543 60.86998323)
(-343.6199956 -216.3495238 367.643205)
(-405.7768177 -94.88101857 274.093718)
(-6.280123708 -234.3120117 -664.1094916)
(355.1311356 159.2443763 -515.6976204)
(82.78908923 -342.3628317 76.73355542)
(-240.638532 390.6011921 343.9484884)
(259.799113 468.1732231 9.294176409)
(193.4024252 -113.5265105 144.5551029)
(344.5519198 -10.64776526 24.84962791)
(-59.00426686 189.28999 -32.22607481)
(-130.2094901 71.32137793 -113.5617244)
(660.267354 -195.8025142 -444.6350541)
(-66.2967695 199.9982796 -51.21684874)
(-396.9186944 56.67038308 -133.3302982)
(-204.772994 26.93431532 227.2804218)
(35.90580354 -39.17826187 600.1798481)
(199.4638978 145.1265214 71.45749573)
(294.2026017 -60.28319137 70.37533041)
(482.7416977 144.2327514 33.88015827)
(-83.68081029 -215.5686993 -85.55079635)
(-250.3219011 -295.4584424 206.0225745)
(206.0397933 206.792064 131.9372862)
(-41.97817417 251.9157359 -56.00259065)
(-509.3971537 633.644501 -342.6849631)
(-107.8128222 -342.2368262 -316.7837614)
(91.96489391 -426.4171843 194.0335324)
(-35.1664102 210.3598674 -180.7887164)
(-357.9947039 -164.9350475 378.3340222)
(153.0953669 501.7912863 212.5492563)
(143.0812573 -55.53248078 410.0283488)
(75.02404145 495.1826222 -40.20576078)
(317.024729 -364.040827 -29.69878254)
(77.5015101 -135.1012896 102.1495674)
(-88.42059376 -7.322847005 -55.91844891)
(89.31728933 -436.1745267 -284.462061)
(-271.6206449 277.2324779 257.3668013)
(123.3835763 -85.19272776 120.4061031)
(-520.1854781 -419.5649205 1.808579851)
(2.058232355 310.8767732 301.0108897)
(-115.1745673 78.98648345 269.2516055)
(68.33681954 -169.9522521 35.40132629)
(13.55108911 368.8328576 87.37051459)
(-40.58123896 143.609139 375.71547)
(-220.703813 173.7483614 270.7844117)
(205.3266028 256.6022677 104.2857979)
(114.3933725 454.81261 -29.94468985)
(-8.915860422 -142.2422998 -112.8102543)
(551.2152105 400.5378461 248.8606819)
(-67.87008917 111.7694864 -48.83915511)
(-160.1558488 -45.97719234 162.223764)
(72.14747837 288.4270465 851.1288487)
(173.8874829 -175.5222449 -25.69060416)
(-397.6993057 -160.2013376 34.27373882)
(287.9261861 25.42819597 308.8603605)
(186.6653739 -111.9372355 117.2210616)
(194.6729821 -85.36345648 123.1136837)
(59.25124708 107.7984489 -327.7914307)
(54.05912524 236.2597828 -290.2310037)
(156.1421989 324.1864327 272.551794)
(242.4860251 -523.0738939 622.1061352)
(63.70492596 -254.733351 -627.9914896)
(395.8857899 32.15209667 160.2099922)
(-611.6347659 -298.4399913 143.7698979)
(97.95002054 -114.0193584 -115.254945)
(-368.2612565 189.1795804 -215.1994815)
(143.152773 204.327129 -72.01193163)
(217.7125789 197.7634112 99.56857055)
(-237.1480665 408.3620865 135.8383553)
(5.988002107 399.0194897 57.85341064)
(-13.10364406 -324.1614605 400.277496)
(-460.1799148 176.8221009 77.80737199)
(-356.9902153 271.1723258 -359.1226413)
(347.175932 425.1676832 385.6509726)
(107.8152179 -431.2776473 -235.2401186)
(-624.2347414 -131.7576093 -34.20121415)
(68.98590737 -221.0495512 -188.7426538)
(34.50680783 -184.2731039 -333.3532617)
(197.9851995 121.1977481 84.97226715)
(102.4107823 -458.7216662 222.2590095)
(127.9378641 -395.1071209 -82.02579555)
(-91.10226512 -363.8540173 120.6341756)
(331.2636678 253.5326909 -284.5825932)
(-206.0692697 -331.4688845 105.6576762)
(4.120725637 -489.1880094 469.6522549)
(-450.4013267 -310.0531166 54.52444492)
(131.1086038 -292.0929146 63.6592349)
(231.6194957 215.0317597 -122.8191038)
(-136.9534453 69.85117559 -63.42233581)
(-80.58699935 -137.0094368 327.5306286)
(371.4027562 -58.92615926 191.0375411)
(145.9332039 -278.6243211 -26.35841408)
(273.7243129 48.57377923 532.737463)
(333.1060282 424.4879755 161.4853526)
(78.69998516 -17.80830669 -374.1902515)
(-360.7392875 581.3072423 -10.50598117)
(264.6893168 -471.1467684 -283.5805958)
(-184.6496463 -16.36499379 -329.9584363)
(-348.3687897 -56.95853742 54.82567881)
(-122.6830817 -330.1011333 326.2297264)
(-302.5747592 666.4868413 665.3384897)
(24.09072001 166.8571274 -215.1918242)
(263.5355608 -100.8022874 1022.859265)
(256.9185335 246.0091624 303.4363528)
(184.0858164 -261.1460548 612.0134992)
(-384.5297429 231.8641628 2.394172414)
(400.2066984 -168.507787 211.8450056)
(45.92324296 -69.8964328 -48.51975102)
(826.8692859 -475.3378447 534.8930634)
(-329.8411629 36.63511513 435.0426981)
(105.4963691 44.43332864 191.2923457)
(-335.4590691 36.34384138 259.1090195)
(-441.1432462 90.13268496 129.9816417)
(-7.022968045 -170.7838855 -570.4899307)
(236.0081453 255.342379 -68.26134447)
(-155.4879607 219.4016856 67.26353748)