/*--------------------------------*- C++ -*----------------------------------*\
| =========                 |                                                 |
| \\      /  F ield         | OpenFOAM: The Open Source CFD Toolbox           |
|  \\    /   O peration     | Version:  v1706                                 |
|   \\  /    A nd           | Web:      www.OpenFOAM.com                      |
|    \\/     M anipulation  |                                                 |
\*---------------------------------------------------------------------------*/
FoamFile
{
    version     2.0;
    format      ascii;
    class       vectorField;
    location    "0.27/lagrangian/dsmc";
    object      U;
}
// * * * * * * * * * * * * * * * * * * * * * * * * * * * * * * * * * * * * * //


97197
(
(-6.784710431 255.1588976 32.84941257)
(-296.9498196 86.55592682 61.26738057)
(-385.2678286 270.5723164 55.18685474)
(-83.74498771 -84.54309614 -103.0993752)
(-555.9294765 350.8758497 -317.7496862)
(-369.248466 -100.9592958 208.0675006)
(640.601702 196.092662 187.5573417)
(-29.84918198 -113.0574978 -154.1800334)
(437.8559516 303.6035677 277.9595139)
(-238.271188 -195.7716792 114.4051343)
(213.4646118 -434.3902864 -131.5127653)
(-161.084569 -412.917974 -39.16665384)
(55.51287375 57.51484884 -73.91886209)
(379.8790128 58.67253761 -66.65834251)
(-224.818211 86.95721294 269.1054194)
(196.8558198 -27.3921762 152.8424327)
(72.33397284 22.44642729 316.7769477)
(-353.4669398 -163.5426733 -200.453046)
(201.5334901 -201.499583 -96.59716984)
(-135.9134803 -15.83486273 -107.3753562)
(-275.0557993 97.50378611 127.8142734)
(-411.5380014 -204.7977007 -122.2696738)
(85.13010542 -418.7790261 -330.158908)
(436.0905681 285.7069376 315.0214127)
(562.610979 467.0540078 -192.2583367)
(-80.53384601 197.9977196 397.5326901)
(-273.5088401 56.60488532 -94.7105023)
(191.2561409 201.6311328 -106.8398609)
(-183.8084687 179.0989102 -257.5713547)
(-132.6743277 -356.7809097 203.2414704)
(204.1841746 -9.751215732 221.9212255)
(-92.37200983 7.294721175 60.3104765)
(-517.2036183 20.11493148 -397.2581027)
(249.2775418 -21.24595567 483.4823865)
(-247.4335956 -0.7005518142 81.45989206)
(467.9230509 -71.10213034 60.60990416)
(153.1168048 303.8069015 108.1332931)
(51.62655228 -228.3758041 -339.3143306)
(-258.2082566 -139.5751416 -171.8725737)
(282.5125282 -108.8164612 -117.3985805)
(-258.3660628 142.0775411 105.0643527)
(192.5520829 215.403749 422.7766171)
(-17.28003816 51.2355503 195.9896911)
(-191.3112804 -233.2482342 -125.1809979)
(-58.78507466 -65.02375287 -184.6451874)
(-38.75627062 250.0595374 -34.50007923)
(-362.2926628 -123.7540372 -221.164619)
(-231.3639906 -429.6212035 -170.4177781)
(-509.1427695 -292.2378989 -131.7068419)
(11.12460754 -218.6836697 -82.91677879)
(-430.1563936 317.1178507 43.88780544)
(204.9102762 -233.1972015 14.20180591)
(-98.45609242 -61.46578163 145.1558445)
(361.1780842 191.7123398 -226.361387)
(-69.38180045 59.2923349 50.34813238)
(305.5713043 109.2255074 -433.7951005)
(573.2396865 24.18587642 341.5990503)
(210.0903341 55.46464573 47.80859303)
(231.3178871 0.01092344524 -128.4356755)
(-341.5237696 -84.62875354 -433.5412979)
(27.97796281 139.0569028 163.863575)
(237.1815969 -195.6968419 51.42906958)
(-254.5047492 9.161197999 -18.69802486)
(-147.6960889 -37.80298117 -287.2989127)
(349.4945082 605.8453807 128.5406253)
(136.7231217 -133.5667778 -169.3873704)
(292.2495494 94.22125314 -45.20646304)
(-374.8128626 61.86694763 -14.14946542)
(201.6397263 -142.4690069 14.12114989)
(-119.1698349 122.8132284 218.5991079)
(-418.2266739 70.35354186 42.69396349)
(133.8441026 -55.23361507 52.65899248)
(-4.930432507 306.0549172 -315.8669849)
(254.0736879 -15.83591248 116.9684696)
(52.75063904 69.57842804 508.3696131)
(63.05389813 127.6284321 -61.79967022)
(198.5532968 143.2039563 43.94211004)
(375.3037765 283.6745697 107.2871436)
(11.95017502 -201.7416541 220.6811443)
(66.00790056 -236.1394867 -328.155524)
(-499.9598395 138.8024517 -68.53080601)
(-337.1678761 -227.758069 175.5542583)
(121.6146655 -285.7120909 264.5449193)
(29.67774071 -205.6034308 145.7782735)
(-12.38776714 -357.5537753 209.6531802)
(69.26521961 -46.05967361 -180.5391683)
(45.51709403 -236.9987297 -216.0544256)
(-143.1099014 17.08947461 -194.3742229)
(86.61968652 -145.8046584 -167.4813136)
(111.7564689 409.9272781 161.4494697)
(314.6408376 25.91754453 -552.7453956)
(120.4056643 355.2491721 -453.9876086)
(475.5186129 -107.0097942 9.279540431)
(-58.24151142 382.7753643 -140.146273)
(152.0338014 484.2634665 280.4528781)
(-727.2235705 -147.2972262 274.5628427)
(-137.7438485 112.5163908 -202.0604358)
(-404.0201025 -62.83932467 -22.7275901)
(-138.1661273 -63.25728161 -3.655115741)
(-391.0797322 69.13810422 -82.71374793)
(304.1698812 82.18780364 358.6872867)
(-444.9106177 201.4944417 221.3291149)
(-156.8663285 10.8968357 -169.9396282)
(-209.0337831 256.8461188 -68.56761872)
(16.559038 57.00001403 91.41145715)
(-319.5032676 -69.08251146 -39.23909229)
(-68.73743143 219.213543 20.19679477)
(-57.77522957 129.8667684 74.9627438)
(113.5831972 143.7475472 -330.4505434)
(-114.2698038 352.7148898 -187.9593367)
(333.5750724 -91.47533774 41.67097107)
(-654.4946831 -37.95008058 -5.474842605)
(-47.64530484 258.4905627 -610.831485)
(260.4550349 -193.384931 38.24317738)
(334.6139807 3.794378731 -28.69162699)
(61.0580585 149.3072943 -105.404356)
(456.9915882 -96.34977537 181.9463609)
(144.1677056 144.1968638 419.45894)
(295.4825996 243.8124719 -248.2416817)
(-211.2767862 400.3017203 -567.1051193)
(-139.5873173 554.887638 -203.930687)
(1.362916049 55.74897698 69.26023083)
(194.5627163 -161.2223349 294.9367524)
(104.9192148 -466.9752914 -380.85889)
(14.98231043 -143.0104222 -50.83252015)
(-153.1015648 257.9835288 206.0890634)
(-23.70472301 233.8989005 -69.10078976)
(145.1329241 -72.47676575 91.66109379)
(-270.8905916 -521.0386518 -121.3785731)
(12.22700209 179.398871 -53.89247998)
(247.399023 220.1263665 106.9216696)
(-242.767025 -358.0882113 160.017035)
(49.16128388 -438.5586031 31.36606299)
(-290.0108913 -162.4948299 487.278301)
(-132.1039364 -312.4450937 -154.3734356)
(-33.15714235 -90.11992678 -177.5413474)
(-107.7336343 84.97230293 214.9412461)
(-28.00394916 38.55256882 -196.1395444)
(-21.74748945 -30.75807371 -83.37216649)
(-196.5925712 -127.5682759 -282.5334031)
(-91.64851575 97.96283934 249.5615861)
(-119.6535752 -103.1120544 191.7731915)
(-273.3709966 -88.27652974 253.5773282)
(-3.833424139 -388.0898491 -29.68383961)
(77.80366068 -155.393872 491.1919959)
(-125.960423 111.1908814 -199.6177827)
(49.00635187 -345.2883093 15.67404064)
(305.0901745 -159.9494339 44.32262496)
(157.0355562 63.49784494 -314.1692017)
(176.7934464 -266.7307834 83.40200263)
(-57.22115996 -302.4520564 155.2415893)
(-190.4525596 -25.02849546 394.3132653)
(195.2529985 48.82562442 -260.921535)
(-158.4647111 362.0826747 -107.7635211)
(-48.51269931 15.81057413 109.7983554)
(144.7066717 27.96240354 -71.21350619)
(-181.9514837 290.6561723 21.50221218)
(-5.960186549 -158.1147234 -27.00379628)
(-159.0865399 61.36876542 -261.7650296)
(-263.6679823 326.3638041 180.4299356)
(245.3940376 263.992277 -40.08903421)
(462.4792644 -393.9944813 70.15985562)
(-41.61201597 154.3137448 -5.70734495)
(-51.1207999 397.4825669 -344.2702186)
(-56.54561591 392.6193248 343.5458097)
(-444.095737 106.1810449 145.7829494)
(246.4742925 512.1193349 -87.08927256)
(-322.0814068 -475.6520288 45.65950659)
(38.56742297 -270.0653142 -33.94242778)
(306.980925 -121.9311954 282.4141676)
(370.8725072 362.8628813 -82.94625334)
(-40.23682369 -201.6578886 248.9676202)
(53.48284633 431.843096 552.2108761)
(-165.9120004 -321.3611479 -144.5198747)
(77.6486529 45.67441398 53.36743898)
(-12.45617888 -38.07911304 170.2415336)
(-247.8179074 20.630486 158.5151083)
(11.61273027 -205.7343419 6.078981556)
(167.7889507 -471.4802646 156.348309)
(511.7237477 -77.75653378 285.553105)
(263.3686252 422.408648 -321.5069504)
(397.8423533 215.8972415 -232.0223797)
(-59.13221729 -128.1263801 26.97974309)
(247.9220748 -391.4463227 -259.9903999)
(137.3594983 23.20204651 31.47505226)
(-290.4784601 -389.5522004 76.06657258)
(158.183387 -227.9805919 186.2666516)
(213.5607465 -121.1576892 -34.64335135)
(-335.6913408 65.40813115 121.7924514)
(182.1720168 20.14167306 -72.18725157)
(-68.18995983 -168.218307 -121.9008871)
(309.1638505 229.0277724 -6.343791114)
(-56.5865297 361.8449259 -257.0734067)
(244.0869509 -37.80332361 -61.56196854)
(-147.963869 195.9101117 53.97300933)
(-177.9999507 -486.1055019 -92.53352735)
(-387.7939553 -106.2855564 -23.37241484)
(180.1706862 -176.5298148 -70.80395375)
(-40.98831025 -359.8206914 42.27207405)
(212.8562418 -30.44974323 -46.49545478)
(-132.2193465 330.3990969 -65.1987712)
(261.9292782 -248.5531833 152.5879791)
(-72.52753389 -356.9371452 -205.4604369)
(-99.18135715 -353.8166175 13.97203723)
(-280.1147642 93.6554472 370.6086556)
(-282.0680004 -220.5677106 132.8319383)
(47.36144522 -43.09735979 -136.5864855)
(180.7261783 -384.1067633 -101.6985978)
(-93.35858804 -197.0155628 631.1691168)
(11.25857933 102.0914003 -284.4059601)
(199.7853544 -305.5669107 141.7278177)
(292.070273 60.90091497 -33.55642543)
(-338.2412655 45.1159148 49.42755562)
(-283.6559302 -274.6652818 -145.8346969)
(-31.16851402 360.4935393 -163.8942071)
(570.9765512 266.4578605 -61.3072608)
(-255.1661491 203.2712776 180.2433026)
(-388.1739859 -127.2806855 269.0688713)
(374.5195983 417.7317191 288.1002418)
(-204.1682866 -71.50106944 157.3743082)
(-285.9592689 209.0851725 -65.97529758)
(142.2815294 -6.700212551 -469.4659703)
(-172.384803 48.01094709 204.0910089)
(318.5591493 -160.7159207 122.5082763)
(-47.84655133 -67.82117942 -96.69507078)
(256.3314772 -310.9195599 -309.1498488)
(-158.5678141 -369.5601637 -446.8555967)
(350.6282086 89.65071072 5.515856479)
(186.6629734 123.9857961 -214.5384915)
(-245.2878151 183.0697297 139.1912137)
(-283.6668134 -228.12671 137.6470892)
(-283.847046 -212.8703487 -328.0271642)
(12.79834466 -79.05245585 -70.3127662)
(347.5160423 367.4594519 -153.2961556)
(283.6036862 -435.1680271 -17.59123932)
(224.0670968 -211.9475565 273.6934649)
(-300.7950859 60.15562195 -359.3411173)
(-342.9434073 142.9576594 -348.8879364)
(-59.26699092 -356.2115594 413.0486552)
(-232.3289523 368.3355188 -99.74543714)
(-13.29816875 161.0797275 41.60169035)
(-109.1938538 -240.333934 107.7401121)
(-122.3808575 424.9953926 259.5672234)
(3.770408923 167.3604716 27.3478749)
(-85.87032113 160.8817929 -76.6000588)
(237.6429053 -293.7322975 233.6818343)
(153.0856758 48.24834332 -43.06084125)
(118.1729805 -183.3604623 158.1781879)
(-64.47765572 -223.3080251 357.5447579)
(-191.6464259 -94.53738145 -192.1080703)
(-25.9799362 -96.14132276 397.6905155)
(-510.9703621 -93.72179612 -89.42233346)
(17.73860961 272.719794 274.823832)
(-272.6020543 -287.6305536 325.5080808)
(-50.33415361 223.4567646 -468.7076899)
(31.85113025 -19.96412687 256.0585782)
(603.7677397 -216.5887592 346.3388853)
(-295.3742897 -285.6499778 -58.34555272)
(-269.3674727 -45.22414876 100.4099698)
(20.98436982 -506.070458 -24.4091039)
(-184.7149209 -224.8902644 -220.2061872)
(81.08306903 415.1761702 -96.77911983)
(-304.4838809 -173.6153821 35.69481021)
(-104.6776333 -242.2511949 430.2188293)
(-175.0324098 86.3916078 -123.566627)
(121.1763189 -1.925063963 496.0501303)
(-73.46899852 -35.83972193 268.305868)
(226.5745018 -138.8054056 -194.9718846)
(225.6451622 -226.8057187 -104.4802174)
(-215.7171158 -180.275254 -43.92231093)
(-52.10536608 -273.1112519 177.2703468)
(223.6817806 260.6426974 -67.39506759)
(266.4194153 -530.0432728 -69.59263511)
(-61.35528402 -8.075687141 -111.6729254)
(50.28955388 -33.23171989 27.23599573)
(182.6904874 -62.54573276 161.4131257)
(231.6147629 -2.325511092 -336.2859403)
(-176.7705745 177.9951452 -169.5664753)
(159.3090182 -261.2530299 -347.7696287)
(208.8208024 -285.7942064 -105.7842007)
(17.05239768 42.47601478 -214.0468161)
(141.2913901 375.1181723 101.3316267)
(337.8961205 -7.069922778 157.7532668)
(424.5622525 31.47747749 26.95530248)
(19.73785804 213.2254458 -180.9763393)
(205.3284362 124.0553958 455.8575207)
(378.7946257 21.32167452 270.4628881)
(-197.2510425 -10.93506776 249.3166919)
(362.7031586 -157.5361559 -278.5020675)
(-374.5467082 131.5293472 29.38256277)
(118.246194 181.8142346 0.6688706709)
(134.0175158 271.0090688 -144.5561737)
(548.4142067 -221.7738911 -55.13749564)
(214.333484 -472.0563913 78.87250664)
(124.9773832 43.35669326 327.1083923)
(-315.6790743 103.5391035 143.5132115)
(-283.6523807 -298.5359435 220.5574807)
(-2.339850587 -152.2470521 -179.5526561)
(-215.7853069 13.96592947 -374.7890244)
(-181.6302195 80.58937901 283.6744292)
(213.8698549 -115.2588496 671.043929)
(-141.2729972 -23.84493654 -255.7522291)
(90.92391896 56.24114999 -108.3029641)
(-448.7748757 73.12891994 40.89471696)
(242.954054 -369.2666267 2.346985868)
(4.377023464 -201.0846314 66.15970353)
(-1.36735604 -208.990557 181.4258426)
(-85.48988445 392.5137345 206.8950105)
(-43.97111283 648.9526354 18.37857278)
(-131.8567484 -381.228845 114.0587031)
(48.81167804 239.1260111 108.4490096)
(-527.3111509 196.435625 -16.28392224)
(-146.2985168 -103.0072557 -41.45685818)
(191.911226 40.58947778 -39.42328165)
(-118.6370427 -310.4777559 -98.00709712)
(174.9855597 -186.8474134 -3.43921652)
(370.2030339 143.1408802 356.9096716)
(-297.5595961 -508.3201209 -280.19897)
(-17.23047425 59.42027457 -54.02934098)
(-209.9585185 218.8869644 -199.7409707)
(339.6565338 157.742721 -2.496694044)
(-385.0183664 -177.6908358 -62.45044403)
(186.9131976 93.43422464 84.97722657)
(212.8232253 -19.64320319 -45.90395125)
(-208.4363989 110.8329363 124.6441315)
(110.3994789 -201.4605167 -94.44212237)
(80.76354908 -334.971149 247.1567849)
(-22.02849749 20.63958126 650.2164042)
(5.869752523 455.2411733 358.8566112)
(-72.17744848 62.65934534 -108.6079544)
(141.2372968 -122.9293357 -37.35169277)
(335.7940443 -530.1116111 -75.56924414)
(-177.5153664 9.498744914 -0.4498580834)
(34.51273382 -281.0310217 401.455831)
(-21.22465671 79.51377659 -110.2770316)
(-121.6460008 -251.2248452 183.6131169)
(283.9901167 -266.4976027 103.8870155)
(163.7129796 194.774919 -119.033768)
(192.828431 -97.81387368 225.8913865)
(55.71062699 244.9676758 -56.50349414)
(79.64021706 400.522383 -160.1227816)
(-115.182429 -261.8879639 -141.146294)
(203.1694696 -401.2582622 434.8096859)
(-206.4850116 -83.44551183 -389.3160213)
(318.1399503 -46.21524931 -121.6246809)
(395.4311651 69.72591259 99.52256681)
(-14.22507858 -75.31576659 226.6602057)
(-372.1245605 -177.0917525 -135.2953146)
(168.753247 -115.1737404 290.4741224)
(261.5210897 103.1530848 -413.2701751)
(-749.9585703 -84.45378531 261.6102429)
(-252.4499056 -71.0388248 473.7301985)
(-352.4146761 -145.3814386 96.69293236)
(315.2923082 -193.9903524 -41.2642495)
(-234.3545739 262.7054509 184.5522877)
(52.49690708 19.38334629 40.4736363)
(-44.75164381 -143.7913453 -119.0798183)
(-128.1019213 -171.9048617 249.7871594)
(35.04399344 -53.03106998 -17.8502155)
(274.570622 -345.3644447 -221.3176287)
(-63.65476651 -226.4115384 65.31090379)
(539.5131439 -282.8857695 24.44268307)
(-183.177961 136.6301499 139.2286591)
(-286.0650559 374.5570919 293.7143101)
(-139.0955301 -97.67432054 272.6791481)
(-152.9980327 98.20881314 283.4473813)
(0.8188661455 -44.17905269 -63.04367876)
(286.4746941 -70.37031512 -210.8799419)
(-194.3222547 -348.5599282 593.8407547)
(293.4298288 -198.4213506 -15.89766172)
(36.38647343 -25.96984761 85.72089497)
(-108.9255265 47.49174684 20.03055164)
(192.154069 -291.3268416 109.8997136)
(325.684912 -8.953580621 -367.1075461)
(141.4709636 -5.292433319 363.8245419)
(7.734872163 12.33858013 29.29125858)
(-87.00516413 62.0496026 266.1724115)
(-65.78365215 251.2161896 -397.8968992)
(-407.5389555 124.6149643 -272.2152018)
(-52.32204197 -17.03072095 -214.655423)
(376.8189289 14.41203387 -150.8419108)
(121.4135529 -58.92875339 162.8399051)
(-95.96833343 -243.754696 24.1915235)
(248.2090514 -80.65751247 -198.5791276)
(-370.2223447 -311.2686437 62.27938414)
(-25.41167116 -213.1523324 208.4977316)
(-129.2954653 197.8608702 -166.6084199)
(141.5089874 -98.7146485 258.4971602)
(-140.7586195 -232.1057728 -50.63228437)
(-365.2293624 287.3563711 415.758158)
(42.40214882 -145.2963509 -167.9315387)
(158.4668927 237.8503603 198.3723652)
(39.17977726 -22.19890607 -171.8262025)
(705.8465822 -102.4485065 -318.7409531)
(-97.85518461 -250.1824669 -57.97961423)
(4.426024252 297.8191541 92.49540632)
(-299.7928007 197.9663764 186.9634228)
(156.9259832 275.3369842 -455.9394649)
(114.7822214 207.9867122 -151.6790279)
(189.0404587 -32.83872573 -211.3091321)
(-253.3771844 217.7064235 -258.7561834)
(-127.7200025 -10.97307929 170.0626211)
(597.8341275 -165.9693537 331.3432897)
(25.42917517 -549.8375928 50.97057408)
(-381.1529321 233.3924979 255.1374272)
(-109.7268199 -87.63093826 68.71446688)
(-63.25032822 -159.5840389 -18.04031172)
(-609.8354937 480.7507655 485.3847251)
(-264.5773343 -425.6326806 -172.4861912)
(113.6736287 209.2865154 28.61006866)
(-220.908229 -247.5619043 1.161051543)
(22.66036993 -225.3146955 77.43116135)
(825.7935955 -78.37883319 317.7868853)
(175.6342759 213.1614454 -72.70946844)
(75.38922282 -130.1238589 60.9691079)
(-171.2610783 -482.7230851 187.7593893)
(-323.8404842 64.24430464 473.9634416)
(-155.5380107 -456.918168 -158.1806078)
(-259.2878772 76.84663901 -16.38501742)
(223.6826522 320.1833672 217.1635593)
(-53.14330185 153.8693173 -335.0877751)
(-290.3240674 481.4703201 -440.3609308)
(-143.7636444 709.6883817 191.1069554)
(53.20032683 123.4369518 -107.1477135)
(90.17951424 -59.26470588 -185.8367274)
(265.8239268 290.4928781 -407.5628239)
(-168.6674639 205.9792146 -26.13216217)
(289.4881332 -68.1688438 -375.9264124)
(-206.3474406 402.0723219 -394.3395937)
(-99.65450004 427.8383705 -49.94797837)
(-57.26065404 313.0338215 309.2052349)
(-20.819087 -144.0087886 -175.2960918)
(40.94595313 193.4565753 -166.1578282)
(-32.92593605 -99.3293304 265.5556237)
(-136.7192155 -18.11204585 74.5702597)
(33.62973854 -136.7528348 240.3427948)
(464.3858265 354.3497459 -307.8035541)
(466.1459156 -60.28972544 7.133399068)
(-36.39858258 -41.32591595 -265.0545515)
(104.2693751 -31.13074909 21.19530104)
(433.8254427 232.93317 -103.4949867)
(-215.2094905 164.8980793 -71.43226852)
(-88.76586892 -196.0514083 -108.2395721)
(8.670279453 -5.969850072 -312.1417609)
(214.4908379 359.5643992 361.1241491)
(153.2970882 -512.0243953 280.9380776)
(104.3042493 143.1562234 -220.6855079)
(-52.61575311 275.4829866 -181.6468827)
(-511.6578261 400.2137233 -334.1146796)
(-0.6580577725 -565.6442305 35.5019214)
(-29.4423878 -65.05881808 105.30792)
(-43.79554829 241.5167068 161.0136464)
(-139.2062618 2.213438689 92.49883714)
(-301.3884285 192.8898679 -98.12890635)
(-59.97424639 -676.1810628 488.6741695)
(453.0793963 308.152133 -310.2875322)
(-409.2773715 -416.1006995 -224.2528338)
(-65.51944316 -109.0483538 73.93296205)
(66.77913319 226.9893161 472.903461)
(278.2230769 131.783793 -41.37354816)
(43.43815744 -181.108457 -15.54623626)
(30.44058745 -384.6713251 114.6488054)
(85.69567428 -10.57263672 -51.00924887)
(219.5496689 6.420016066 -421.227749)
(152.3323159 140.3741658 -98.8109208)
(293.4942012 362.7088951 70.53789145)
(-63.00793467 196.0634536 -265.3255876)
(113.1865304 192.3831008 -14.9138724)
(-46.22012548 -109.7599337 -78.71934539)
(-83.35352593 551.6181616 -235.8075135)
(-17.21756646 -209.6539583 290.1456554)
(365.9812132 112.2991003 547.4001363)
(-4.069422653 92.97447581 143.0043759)
(-98.36121154 43.69557333 -121.2491708)
(23.12736621 -707.9313271 145.9634535)
(-583.997371 106.7251829 -154.6614148)
(134.7326273 -371.4461995 -111.3265509)
(304.2919741 603.045976 107.6792506)
(25.87398695 522.1425417 179.3992145)
(52.53724852 -1.361761492 289.2703903)
(-211.9175838 -9.971419838 149.9551248)
(-50.38302556 -162.5889263 8.03573226)
(-255.2853644 -161.7911922 182.6230611)
(194.0332572 -87.11990502 -102.6920911)
(-22.27226791 -231.9470917 115.8154591)
(5.719104036 -230.9377591 290.4306023)
(-574.5165676 -24.28561614 235.1556006)
(-305.6290641 109.2555013 -151.0871821)
(165.9742356 -29.71986455 247.6641274)
(-8.051405748 232.9786558 -459.4284912)
(79.49713451 270.2904632 -256.7713128)
(53.07917837 -316.9833892 100.2411319)
(87.95038868 -157.136894 5.124090956)
(-217.2980703 -351.7027305 -96.62448937)
(-324.848922 -108.164917 -375.6826637)
(-519.0861495 542.0791237 91.74851068)
(-237.7701678 -72.77675414 7.994410002)
(199.2240229 205.5077402 -43.61146937)
(-34.01659829 159.0422355 -151.8735805)
(-322.7849697 448.7367104 134.2414033)
(-52.64438654 -34.57831813 -246.6281064)
(51.79291386 -221.6721023 359.799864)
(-253.4374565 -61.69630185 94.86683915)
(217.164594 -173.1644711 -246.7252456)
(-374.9897389 122.962925 112.0115866)
(624.4399892 334.6062327 92.71743865)
(-30.25541586 9.099777685 132.5729672)
(536.2949176 144.6819198 -75.6114278)
(-23.64577904 191.9680735 -389.5988331)
(-116.3617895 108.2503612 223.6763101)
(-208.0051345 316.3041728 -222.4863531)
(-182.0404102 -210.5903009 -260.3406055)
(66.11537613 -171.9353807 434.2903807)
(-116.7451047 -14.83009331 404.9251121)
(20.3992278 -105.2045101 -470.1119604)
(259.2511842 -364.3623983 -140.0378023)
(-88.76088608 -232.041806 17.31098308)
(-23.17597376 151.3766107 218.5740168)
(125.7551787 346.8440052 -425.346104)
(-338.3311272 -551.5772959 550.0536791)
(-532.8090948 151.4259606 -397.6696562)
(-252.7440208 -113.0800596 -25.25300047)
(187.5595824 -106.7972624 270.5598444)
(147.3350555 403.0670861 51.15058709)
(-115.6470009 -218.4594923 188.0165983)
(35.69032685 446.5800137 120.1981795)
(68.63147813 -489.9576278 -44.98397946)
(491.9133723 -282.3575516 -160.0488867)
(275.7074163 -47.91612696 -10.58020864)
(-208.1104851 -211.5115764 11.1281999)
(84.09842864 -199.6614757 112.9831876)
(215.6966749 87.20701791 -127.2498651)
(-220.1084611 -142.1020683 -54.28648573)
(308.7292675 233.0292863 133.444526)
(-84.9044669 -38.43589066 -37.2059055)
(-225.9638776 51.11484193 256.5380792)
(349.2751646 -176.2414424 -280.3411732)
(-157.9995398 -191.876257 -105.6601482)
(59.26912631 -253.2049942 -41.64925254)
(-32.09959815 -487.3986866 58.60362769)
(-74.71471667 254.5889925 -221.0217698)
(184.9884392 -208.3505528 -365.9748147)
(219.0737574 109.0314721 84.03888519)
(88.04157876 -45.36657318 98.51279286)
(156.6503723 135.3217281 91.36870266)
(77.12755703 -350.9782126 -194.1732169)
(245.7515276 -235.9092893 -146.1412457)
(-282.1294822 -392.1230711 79.73163995)
(-234.0983332 369.1808706 -421.0774997)
(409.3668626 320.7214897 -430.7689496)
(49.07156554 -362.0797678 476.9938599)
(352.4805463 -139.7159919 149.6654665)
(274.039891 677.5314429 -216.5489831)
(-4.528914596 -8.442437829 165.0031006)
(-44.82802817 68.76474033 14.8918055)
(173.7889402 -58.10429391 40.52689701)
(-219.5232586 -109.0882097 415.9280077)
(32.72988683 185.9809822 151.1560515)
(-84.64023684 143.5954331 89.35825311)
(25.23803152 12.01287433 200.1974594)
(-107.2387753 -264.0794557 -172.0748259)
(274.0205408 322.5013084 -161.5666428)
(-490.9492387 -280.3787466 168.1473268)
(-8.887924746 -475.7261182 -25.49930693)
(-153.341503 -9.496192398 213.3901979)
(217.6577481 136.8704851 318.7325854)
(-93.99673784 210.9526656 -271.4819012)
(153.4589169 568.2060378 -59.17504635)
(197.3908388 14.9880738 473.1162135)
(-205.5997861 206.8211752 4.790141197)
(238.879024 150.7298582 -672.7783772)
(-21.51651583 -11.74825122 -23.12168579)
(1.93372924 -150.8038997 -63.15587512)
(195.2733483 45.60244276 618.122088)
(-116.8179836 36.96531581 -223.5390735)
(-271.9238729 207.2215488 -119.6687173)
(177.1806887 534.9495271 -285.7690602)
(-897.9959463 137.1982192 319.9098702)
(-447.9127136 135.9785011 -281.0157805)
(165.6314771 86.40861601 -30.6417018)
(125.9339071 120.7109651 -253.4837335)
(183.1138181 249.7823339 229.6513585)
(191.3487916 -301.4166131 -256.3440607)
(-125.9921459 -144.152956 -412.8500042)
(173.3411408 -438.7247076 463.6347172)
(28.4706011 78.04905819 -557.4697596)
(98.75806281 -64.59989405 345.5652773)
(211.7349019 69.88266901 79.26728887)
(-24.28176568 -157.0978922 -295.1495354)
(-162.9235903 374.0224887 -426.7788381)
(242.8549137 172.699886 -172.7155013)
(82.86210365 116.8182711 121.8616444)
(-276.4240883 -142.410548 -321.8394152)
(195.8062207 -48.86645373 -144.7129932)
(278.9649247 -437.8485233 -93.94918265)
(167.0940762 236.1863873 -15.71139923)
(152.5575566 156.0798598 -70.55375476)
(180.0182503 -203.3574515 130.5184439)
(-628.8709646 -55.85798311 -22.84378573)
(170.4217207 83.11134329 280.2511849)
(333.4465405 160.288157 199.2689913)
(-69.13750454 160.0852727 157.7137094)
(-136.5584112 354.4782848 -141.1921673)
(-174.1483261 346.6628305 35.36571425)
(-269.9461571 197.4304076 317.8809937)
(38.96435876 -189.889728 40.53090423)
(261.2480685 -358.6900819 -396.1917677)
(-190.2843646 263.5072979 -173.2048633)
(209.356078 95.27912301 -15.21769681)
(348.6675717 134.9278245 -248.3078546)
(74.38050561 -263.8600018 -106.9116347)
(-146.5538678 -156.8287813 108.3021469)
(284.2140511 -186.3160574 28.63199352)
(105.9319093 -198.241244 -503.0286025)
(120.439644 -91.48678198 -22.99344195)
(-148.5039556 115.5360255 -164.2981892)
(-126.7930564 -304.8621643 26.7031292)
(-533.9606695 40.34237832 -42.06082105)
(-278.6028779 46.08615238 -59.60180079)
(219.7934375 156.0743462 -169.1925077)
(-11.59273771 -17.28265708 116.4118116)
(723.4779945 -162.3571942 -66.41816684)
(258.0841684 308.2605712 -54.288434)
(202.3172648 598.2579595 4.105098411)
(-77.85305489 -98.73482885 239.0127774)
(272.9320393 38.16730728 -201.2175449)
(-28.73674298 184.6201341 26.68834342)
(-2.291254218 -371.9077334 121.8308031)
(153.4041292 488.4105499 -308.9992223)
(-129.9093381 -198.8675824 -2.277372553)
(-133.0105663 -245.5346426 432.4758041)
(-38.27351318 -203.1407653 -368.7786038)
(-305.2463866 76.06877344 -272.2248678)
(485.0583701 344.0669376 416.7438865)
(225.262115 283.353024 154.8583623)
(-484.6687222 -145.5199436 324.2004718)
(46.85263094 64.83778369 19.79076456)
(317.2796087 -146.5217966 21.52277425)
(-150.4765406 -88.29303057 2.773151035)
(314.9612945 -372.9203297 -50.77906241)
(398.6286607 295.7333526 67.77336191)
(-288.5817457 630.7423871 -315.9412402)
(90.37478851 -155.3225007 174.0737481)
(172.5864395 -91.84877671 71.20072161)
(-137.0078198 -36.60797805 66.04309985)
(-59.23424033 -75.30490679 -58.87797788)
(-66.838287 -342.3428165 -211.0663005)
(268.3384843 446.3586123 107.3819782)
(313.4077458 -423.0793795 -169.5744959)
(133.6078261 221.3353605 -99.37381371)
(-488.1715938 -255.5698593 -94.32201549)
(-99.77199632 -221.1665211 80.20078028)
(-366.0171229 -11.67123705 -179.0603886)
(-195.5847841 -45.88794545 88.27572109)
(237.0212806 -179.9480245 -495.4451139)
(-299.8717851 156.0087522 24.8696676)
(17.08070774 1.552101487 204.143228)
(-216.3336811 243.3277196 301.9319396)
(382.7599784 320.0615573 231.1436471)
(379.1379083 -21.9013484 305.6072236)
(-262.8955697 193.8008802 438.0035788)
(504.5663596 -13.51893805 22.89581431)
(32.49905947 37.28539904 -596.8875137)
(108.599469 -133.7060619 332.6728525)
(16.12557248 -488.5216263 -59.82664269)
(111.9196022 -407.9156614 62.91255939)
(512.2601299 -0.6726546822 110.284646)
(-340.4483085 69.2169842 84.9855182)
(175.7841783 -184.5450733 -192.1745631)
(-109.7789189 201.2101362 -326.2340944)
(-183.0523961 4.594205089 -186.7796738)
(164.7562782 106.2495612 15.96971822)
(-72.66543692 415.0066945 77.00051294)
(267.0587775 -541.0376673 21.0858882)
(324.5215863 -142.9580683 260.5357441)
(-250.4190854 166.4952267 -484.4665983)
(-291.9973465 69.20585278 -58.73866016)
(-525.2981441 -283.1040012 -408.6532938)
(48.44678035 43.75389514 341.9336778)
(282.1121215 -146.3574167 168.9342828)
(-67.4834007 241.471361 -189.6968445)
(600.3044943 -187.1407486 75.54895852)
(169.9960541 290.0257128 -255.2239839)
(57.53237931 423.9135726 -55.5281869)
(102.4219893 168.309873 32.59707442)
(-157.1295657 20.38047955 -91.00315636)
(122.1087104 95.71319233 -139.9334408)
(184.4389366 336.5024775 -133.311972)
(336.4476868 214.3380831 3.901829871)
(16.97900781 247.7050912 -67.96710736)
(-2.995595372 312.734244 -188.2585406)
(107.0717541 227.9382111 309.2601593)
(1.151774774 -114.8421372 447.6586729)
(-3.005533233 231.9593676 -259.0545769)
(67.05772309 -262.7919249 -132.5929995)
(349.7657775 -217.827845 308.2967056)
(-273.1020087 209.745585 -248.6553865)
(-73.38464393 377.4517683 283.1102003)
(195.8504579 -318.4381048 -60.47129702)
(483.675821 -58.43834805 -443.3116617)
(105.8488791 -300.566222 -132.1255202)
(-79.9458536 -120.1374821 53.2817868)
(-158.8777747 -453.2148445 28.3854414)
(100.8254541 123.4051968 -76.55268435)
(-77.7208639 211.813136 -22.48537264)
(-2.869834116 194.0127527 67.60247864)
(-182.909577 300.5896201 189.5812437)
(-189.4847973 -212.5081603 -194.7505036)
(-698.053417 300.3372171 -31.5714744)
(-581.5012158 314.421392 -233.0295169)
(-193.8928355 -122.0088163 -950.1503527)
(-27.34718259 114.467115 -398.1076291)
(-168.8089781 -582.0975234 41.19823389)
(-219.6207206 -10.01931461 -663.9968244)
(-228.9557925 -236.000949 -35.6986863)
(-65.43101467 -49.49463605 -241.2182824)
(-268.3232126 295.344606 166.114853)
(-465.1704278 364.6568623 339.384971)
(-399.7572455 -94.10143194 -13.73525608)
(237.7537169 -423.7515809 -177.4799542)
(-206.3369308 -274.8467748 360.61066)
(661.18941 158.6996355 111.4396393)
(-464.5934746 -162.2342476 -204.5348869)
(-314.2154138 17.03994215 -333.5846451)
(-79.69615409 -23.44839824 -185.9007468)
(44.80734252 59.04959312 -9.941681734)
(184.1042274 259.3248736 -250.5507025)
(197.5075297 112.594001 151.7491877)
(334.5755429 33.73744987 -183.4755846)
(11.82743487 355.496058 123.9056729)
(-189.0107029 87.62989954 194.8745837)
(539.8539741 227.0796351 -89.32993973)
(431.9439739 -68.17206475 194.8606691)
(36.30859463 -96.65762207 266.5720639)
(481.794806 63.08623669 -249.5060331)
(-54.62822365 32.89347873 96.3310972)
(-66.94097442 41.6758288 -141.4154161)
(442.2623459 64.29246608 -421.8919553)
(-158.2821147 135.8753567 -246.2873379)
(228.3989997 209.4953517 59.90190313)
(145.2668037 312.6584574 14.82328159)
(-200.7286363 46.41205822 -196.022672)
(-67.45387733 -297.4939808 30.43728733)
(49.80434624 84.80269228 181.7308735)