# Probe 0 (5e-06 5e-06 5e-06)
#           Probe                 0
#            Time
            1e-08       9873.311847
            2e-08       9761.240596
            3e-08       9658.469383
            4e-08       9561.618135
            5e-08       9481.826971
            6e-08       9408.246065
            7e-08       9343.652116
            8e-08       9294.096517
            9e-08       9246.165502
            1e-07       9192.305827
          1.1e-07       9147.479697
          1.2e-07       9108.182088
          1.3e-07       9067.458554
          1.4e-07       9028.934707
          1.5e-07        8991.38214
          1.6e-07       8958.911955
          1.7e-07       8924.221816
          1.8e-07       8892.142575
          1.9e-07       8865.948493
            2e-07       8834.197452
          2.1e-07       8803.978386
          2.2e-07       8780.904529
          2.3e-07       8752.531561
          2.4e-07       8727.779278
          2.5e-07       8708.823235
          2.6e-07       8687.181967
          2.7e-07       8669.547141
          2.8e-07       8649.108548
          2.9e-07       8628.895205
            3e-07        8608.99413
          3.1e-07       8590.059075
          3.2e-07       8573.390713
          3.3e-07       8555.727222
          3.4e-07       8541.101654
          3.5e-07       8523.342472
          3.6e-07       8506.765253
          3.7e-07       8491.063656
          3.8e-07       8476.329271
          3.9e-07       8461.246263
            4e-07       8448.091646
          4.1e-07       8432.954515
          4.2e-07        8420.97213
          4.3e-07       8407.685069
          4.4e-07       8395.371399
          4.5e-07       8382.629487
          4.6e-07       8370.983996
          4.7e-07       8356.930705
          4.8e-07       8343.696316
          4.9e-07       8332.784373
            5e-07       8322.146017
          5.1e-07       8313.186396
          5.2e-07       8300.084463
          5.3e-07       8289.902225
          5.4e-07         8279.6896
          5.5e-07       8269.503276
          5.6e-07       8259.869252
          5.7e-07       8252.201736
          5.8e-07       8243.371454
          5.9e-07       8233.960565
            6e-07        8227.45592
          6.1e-07       8218.900045
          6.2e-07       8209.229635
          6.3e-07       8201.021057
          6.4e-07       8193.561191
          6.5e-07        8186.40909
          6.6e-07       8178.215505
          6.7e-07         8171.2604
          6.8e-07       8163.556888
          6.9e-07       8157.409383
            7e-07       8150.275554
          7.1e-07       8143.152563
          7.2e-07       8137.087429
          7.3e-07       8130.609794
          7.4e-07       8121.923876
          7.5e-07       8115.238047
          7.6e-07       8109.717183
          7.7e-07       8104.101323
          7.8e-07       8096.314984
          7.9e-07       8090.203687
            8e-07       8084.000813
          8.1e-07       8078.630015
          8.2e-07       8073.328563
          8.3e-07       8067.149022
          8.4e-07       8060.598746
          8.5e-07       8055.164705
          8.6e-07       8050.239076
          8.7e-07       8045.220541
          8.8e-07       8039.835346
          8.9e-07       8034.544827
            9e-07        8030.32882
          9.1e-07       8024.545493
          9.2e-07        8020.03656
          9.3e-07        8014.04783
          9.4e-07       8009.178165
          9.5e-07       8005.572992
          9.6e-07       8000.626966
          9.7e-07       7996.273653
          9.8e-07       7991.231643
          9.9e-07        7986.43833
            1e-06       7981.763485
         1.01e-06       7977.154494
         1.02e-06       7972.809453
         1.03e-06       7968.816018
         1.04e-06       7965.061628
         1.05e-06       7960.682971
         1.06e-06        7955.80017
         1.07e-06       7952.200761
         1.08e-06        7947.71716
         1.09e-06       7944.356744
          1.1e-06        7940.22555
         1.11e-06       7936.579962
         1.12e-06       7932.336445
         1.13e-06       7929.274726
         1.14e-06       7925.659029
         1.15e-06       7922.535656
         1.16e-06       7919.274938
         1.17e-06       7915.329288
         1.18e-06       7912.197714
         1.19e-06       7909.153444
          1.2e-06       7906.438532
         1.21e-06       7902.453788
         1.22e-06       7899.522848
         1.23e-06       7896.325714
         1.24e-06       7893.304988
         1.25e-06       7890.794655
         1.26e-06       7887.667016
         1.27e-06       7884.535551
         1.28e-06       7881.235921
         1.29e-06       7878.212839
          1.3e-06       7874.948992
         1.31e-06       7871.641393
         1.32e-06       7869.592648
         1.33e-06       7866.945713
         1.34e-06       7863.785851
         1.35e-06       7861.583074
         1.36e-06       7859.136521
         1.37e-06       7856.575762
         1.38e-06       7853.956604
         1.39e-06       7851.278831
          1.4e-06       7848.776121
         1.41e-06       7846.282416
         1.42e-06       7843.832559
         1.43e-06       7840.920054
         1.44e-06       7838.170301
         1.45e-06       7836.414041
         1.46e-06       7832.787797
         1.47e-06       7829.751727
         1.48e-06       7826.669712
         1.49e-06       7824.137888
          1.5e-06       7821.712529
         1.51e-06       7819.581799
         1.52e-06       7816.943505
         1.53e-06        7814.44167
         1.54e-06       7811.758606
         1.55e-06       7809.682614
         1.56e-06       7807.944277
         1.57e-06       7805.536091
         1.58e-06        7803.49383
         1.59e-06       7801.686733
          1.6e-06       7799.319423
         1.61e-06       7796.912713
         1.62e-06       7794.945755
         1.63e-06       7792.614202
         1.64e-06       7790.502695
         1.65e-06       7788.727573
         1.66e-06       7786.679408
         1.67e-06       7784.778489
         1.68e-06       7782.712658
         1.69e-06       7780.309647
          1.7e-06       7778.005911
         1.71e-06       7776.397525
         1.72e-06       7774.266843
         1.73e-06       7772.580626
         1.74e-06       7770.968125
         1.75e-06       7769.286362
         1.76e-06       7767.477662
         1.77e-06        7765.03732
         1.78e-06       7763.231075
         1.79e-06       7761.501777
          1.8e-06        7759.73585
         1.81e-06       7758.367949
         1.82e-06       7756.320814
         1.83e-06       7754.395207
         1.84e-06       7752.912731
         1.85e-06       7751.148333
         1.86e-06       7749.479432
         1.87e-06       7747.697992
         1.88e-06       7746.084978
         1.89e-06       7744.426658
          1.9e-06       7743.056968
         1.91e-06       7741.411549
         1.92e-06       7739.640104
         1.93e-06       7737.957849
         1.94e-06       7736.350937
         1.95e-06       7734.905201
         1.96e-06       7733.624124
         1.97e-06       7732.224348
         1.98e-06       7730.673122
         1.99e-06       7729.314864
            2e-06       7727.216243
         2.01e-06       7725.524123
         2.02e-06       7724.003483
         2.03e-06       7722.760271
         2.04e-06       7721.368023
         2.05e-06        7719.73556
         2.06e-06       7718.706949
         2.07e-06       7717.216135
         2.08e-06       7716.042717
         2.09e-06       7714.832423
          2.1e-06        7713.40764
         2.11e-06       7711.692998
         2.12e-06       7710.778921
         2.13e-06       7709.130873
         2.14e-06       7707.631819
         2.15e-06       7706.642792
         2.16e-06       7705.347509
         2.17e-06       7703.668485
         2.18e-06       7702.042221
         2.19e-06       7700.704266
          2.2e-06       7699.408725
         2.21e-06       7698.010005
         2.22e-06       7696.914867
         2.23e-06       7695.246321
         2.24e-06        7693.77033
         2.25e-06        7692.91854
         2.26e-06       7691.875082
         2.27e-06       7690.887479
         2.28e-06        7689.53781
         2.29e-06        7688.19331
          2.3e-06        7687.07443
         2.31e-06       7685.859689
         2.32e-06       7685.029483
         2.33e-06       7684.071436
         2.34e-06       7682.789085
         2.35e-06       7681.969128
         2.36e-06       7680.547634
         2.37e-06       7679.305172
         2.38e-06       7678.502939
         2.39e-06       7677.328339
          2.4e-06       7676.031632
         2.41e-06       7674.836492
         2.42e-06       7673.757861
         2.43e-06       7673.013605
         2.44e-06       7672.052396
         2.45e-06       7670.704428
         2.46e-06       7669.531538
         2.47e-06       7668.358894
         2.48e-06       7667.317538
         2.49e-06       7666.456098
          2.5e-06       7665.230692
         2.51e-06       7664.205104
         2.52e-06       7663.106403
         2.53e-06       7662.153369
         2.54e-06       7661.138134
         2.55e-06       7660.315106
         2.56e-06       7659.197467
         2.57e-06       7658.348041
         2.58e-06       7657.343779
         2.59e-06       7656.679027
          2.6e-06       7656.026631
         2.61e-06       7654.823593
         2.62e-06       7654.342118
         2.63e-06       7653.735552
         2.64e-06       7653.020762
         2.65e-06       7652.179054
         2.66e-06       7650.906502
         2.67e-06       7650.166049
         2.68e-06        7649.31628
         2.69e-06       7648.384511
          2.7e-06       7647.591702
         2.71e-06       7646.947061
         2.72e-06       7645.998699
         2.73e-06       7645.183334
         2.74e-06         7644.4005
         2.75e-06       7643.476968
         2.76e-06       7642.559896
         2.77e-06       7641.376401
         2.78e-06       7640.658017
         2.79e-06       7639.824311
          2.8e-06       7638.831856
         2.81e-06       7637.825756
         2.82e-06       7636.865613
         2.83e-06       7636.343976
         2.84e-06       7635.423716
         2.85e-06       7634.630615
         2.86e-06       7634.079134
         2.87e-06       7633.205358
         2.88e-06       7632.493104
         2.89e-06        7631.64244
          2.9e-06       7630.870644
         2.91e-06       7630.144998
         2.92e-06       7629.499683
         2.93e-06       7628.714337
         2.94e-06       7627.929699
         2.95e-06       7627.307527
         2.96e-06       7626.371956
         2.97e-06       7625.666901
         2.98e-06       7624.669445
         2.99e-06       7623.863323
            3e-06       7622.837963
         3.01e-06       7621.934118
         3.02e-06       7621.288233
         3.03e-06       7620.490721
         3.04e-06       7619.857165
         3.05e-06       7619.174723
         3.06e-06       7618.569509
         3.07e-06       7617.835825
         3.08e-06       7617.351884
         3.09e-06       7616.787237
          3.1e-06       7616.112188
         3.11e-06       7615.173627
         3.12e-06       7614.490558
         3.13e-06       7613.892198
         3.14e-06       7613.050115
         3.15e-06       7612.324728
         3.16e-06       7611.718751
         3.17e-06       7610.888297
         3.18e-06       7609.953845
         3.19e-06       7608.989471
          3.2e-06       7608.343341
         3.21e-06       7607.800804
         3.22e-06       7607.370137
         3.23e-06        7606.53114
         3.24e-06       7605.898059
         3.25e-06       7605.076469
         3.26e-06       7604.280164
         3.27e-06        7603.78664
         3.28e-06       7603.140118
         3.29e-06       7602.363132
          3.3e-06       7601.801791
         3.31e-06       7601.333844
         3.32e-06       7600.859807
         3.33e-06       7600.219045
         3.34e-06       7599.892353
         3.35e-06       7599.393609
         3.36e-06       7598.741286
         3.37e-06       7598.369442
         3.38e-06       7598.119298
         3.39e-06       7597.479948
          3.4e-06       7597.176498
         3.41e-06       7596.501905
         3.42e-06       7596.035131
         3.43e-06       7595.420797
         3.44e-06       7594.832842
         3.45e-06       7594.197864
         3.46e-06       7593.656504
         3.47e-06       7593.189273
         3.48e-06       7592.671987
         3.49e-06       7592.071326
          3.5e-06       7591.324335
         3.51e-06       7590.623963
         3.52e-06       7589.963439
         3.53e-06       7589.614956
         3.54e-06       7589.105228
         3.55e-06       7588.703761
         3.56e-06       7588.089109
         3.57e-06        7587.56192
         3.58e-06       7586.996482
         3.59e-06       7586.557703
          3.6e-06       7585.961977
         3.61e-06       7585.254529
         3.62e-06        7584.59705
         3.63e-06       7584.054164
         3.64e-06       7583.820668
         3.65e-06       7583.296888
         3.66e-06       7582.654965
         3.67e-06       7582.344667
         3.68e-06       7581.738145
         3.69e-06       7581.274589
          3.7e-06       7580.944337
         3.71e-06       7580.489585
         3.72e-06       7579.998155
         3.73e-06       7579.201371
         3.74e-06       7578.810687
         3.75e-06       7578.474244
         3.76e-06       7577.955264
         3.77e-06       7577.569739
         3.78e-06       7577.162008
         3.79e-06       7576.678845
          3.8e-06        7576.43687
         3.81e-06        7576.01658
         3.82e-06       7575.508102
         3.83e-06       7575.304474
         3.84e-06        7574.84907
         3.85e-06        7574.58526
         3.86e-06       7574.232935
         3.87e-06       7573.768772
         3.88e-06       7573.277636
         3.89e-06        7572.71283
          3.9e-06       7572.160283
         3.91e-06       7571.504483
         3.92e-06       7571.159294
         3.93e-06       7570.599025
         3.94e-06       7570.227925
         3.95e-06       7569.870888
         3.96e-06       7569.538325
         3.97e-06       7569.034589
         3.98e-06        7568.67288
         3.99e-06       7568.341936
            4e-06        7567.95504
         4.01e-06       7567.592156
         4.02e-06       7567.260003
         4.03e-06       7566.894056
         4.04e-06       7566.281236
         4.05e-06        7565.84543
         4.06e-06       7565.646116
         4.07e-06       7565.531593
         4.08e-06       7565.220748
         4.09e-06       7564.804334
          4.1e-06       7564.328515
         4.11e-06       7563.966809
         4.12e-06       7563.606464
         4.13e-06        7563.20002
         4.14e-06       7562.744405
         4.15e-06       7562.339138
         4.16e-06        7561.92989
         4.17e-06       7561.492068
         4.18e-06       7561.095048
         4.19e-06       7560.710117
          4.2e-06       7560.225243
         4.21e-06       7559.888485
         4.22e-06       7559.568108
         4.23e-06       7559.307375
         4.24e-06       7558.945439
         4.25e-06       7558.748472
         4.26e-06       7558.371647
         4.27e-06       7557.860608
         4.28e-06       7557.502441
         4.29e-06        7557.17282
          4.3e-06       7556.737108
         4.31e-06       7556.372112
         4.32e-06       7556.097455
         4.33e-06       7555.680439
         4.34e-06       7555.293528
         4.35e-06       7555.055395
         4.36e-06       7554.472301
         4.37e-06       7554.163448
         4.38e-06       7553.815848
         4.39e-06       7553.405863
          4.4e-06       7553.040022
         4.41e-06       7552.760628
         4.42e-06       7552.476787
         4.43e-06       7552.069073
         4.44e-06       7551.795772
         4.45e-06       7551.526483
         4.46e-06       7551.285517
         4.47e-06       7550.873539
         4.48e-06        7550.62351
         4.49e-06        7550.26584
          4.5e-06       7549.919091
         4.51e-06       7549.585007
         4.52e-06       7549.478783
         4.53e-06       7549.213848
         4.54e-06       7548.864664
         4.55e-06       7548.571274
         4.56e-06       7548.305249
         4.57e-06       7548.171213
         4.58e-06       7547.930583
         4.59e-06       7547.568583
          4.6e-06       7547.106884
         4.61e-06       7546.868636
         4.62e-06       7546.682639
         4.63e-06       7546.526698
         4.64e-06       7546.307953
         4.65e-06       7545.903173
         4.66e-06       7545.461793
         4.67e-06       7545.119701
         4.68e-06       7544.851691
         4.69e-06       7544.635116
          4.7e-06       7544.378456
         4.71e-06       7544.116828
         4.72e-06        7543.77662
         4.73e-06       7543.347934
         4.74e-06       7542.957626
         4.75e-06       7542.564977
         4.76e-06       7542.183781
         4.77e-06       7541.857652
         4.78e-06       7541.438239
         4.79e-06        7541.12458
          4.8e-06       7541.040572
         4.81e-06        7540.72609
         4.82e-06       7540.409315
         4.83e-06       7540.053515
         4.84e-06       7539.609242
         4.85e-06       7539.165057
         4.86e-06       7538.905381
         4.87e-06       7538.542877
         4.88e-06       7538.284021
         4.89e-06       7537.975408
          4.9e-06       7537.758153
         4.91e-06       7537.628439
         4.92e-06       7537.479786
         4.93e-06       7537.201185
         4.94e-06       7537.080866
         4.95e-06       7536.661289
         4.96e-06       7536.227225
         4.97e-06       7535.886079
         4.98e-06       7535.636368
         4.99e-06       7535.435463
            5e-06       7535.181645
         5.01e-06       7535.023709
         5.02e-06       7534.910696
         5.03e-06       7534.760486
         5.04e-06       7534.457991
         5.05e-06       7534.013716
         5.06e-06       7533.831481
         5.07e-06        7533.56123
         5.08e-06        7533.35604
         5.09e-06       7533.174692
          5.1e-06       7532.812398
         5.11e-06       7532.636875
         5.12e-06       7532.198513
         5.13e-06       7531.817854
         5.14e-06       7531.496945
         5.15e-06       7531.334013
         5.16e-06       7530.986964
         5.17e-06       7530.701384
         5.18e-06        7530.52417
         5.19e-06       7530.140968
          5.2e-06       7530.009748
         5.21e-06       7529.757173
         5.22e-06       7529.500865
         5.23e-06        7529.20132
         5.24e-06       7528.969113
         5.25e-06       7528.854222
         5.26e-06       7528.515604
         5.27e-06       7528.463115
         5.28e-06       7528.341637
         5.29e-06       7528.191651
          5.3e-06       7527.877267
         5.31e-06        7527.59393
         5.32e-06        7527.35584
         5.33e-06       7527.161101
         5.34e-06       7526.807772
         5.35e-06       7526.535898
         5.36e-06        7526.29312
         5.37e-06       7525.976268
         5.38e-06        7525.85045
         5.39e-06       7525.443369
          5.4e-06       7525.240593
         5.41e-06       7525.032146
         5.42e-06       7524.680504
         5.43e-06       7524.378091
         5.44e-06       7524.067645
         5.45e-06       7524.030708
         5.46e-06       7523.862471
         5.47e-06        7523.60103
         5.48e-06       7523.582573
         5.49e-06       7523.536121
          5.5e-06       7523.258529
         5.51e-06       7522.935006
         5.52e-06       7522.659496
         5.53e-06       7522.524568
         5.54e-06       7522.134234
         5.55e-06       7521.731663
         5.56e-06       7521.465081
         5.57e-06       7521.240488
         5.58e-06       7521.126166
         5.59e-06       7520.764736
          5.6e-06       7520.565393
         5.61e-06       7520.351374
         5.62e-06       7520.258877
         5.63e-06       7519.969986
         5.64e-06       7519.789174
         5.65e-06       7519.444626
         5.66e-06       7519.061538
         5.67e-06       7518.861373
         5.68e-06       7518.891714
         5.69e-06       7518.724495
          5.7e-06       7518.473329
         5.71e-06       7518.420142
         5.72e-06       7518.214237
         5.73e-06       7518.094593
         5.74e-06       7518.093655
         5.75e-06       7517.870588
         5.76e-06       7517.681302
         5.77e-06       7517.503094
         5.78e-06       7517.342763
         5.79e-06       7517.136262
          5.8e-06       7517.038825
         5.81e-06       7516.784014
         5.82e-06        7516.70252
         5.83e-06         7516.5055
         5.84e-06       7516.246762
         5.85e-06        7516.03773
         5.86e-06       7515.963973
         5.87e-06       7515.832253
         5.88e-06       7515.730628
         5.89e-06       7515.510436
          5.9e-06       7515.269755
         5.91e-06       7514.922909
         5.92e-06       7514.949131
         5.93e-06       7514.809257
         5.94e-06       7514.646274
         5.95e-06       7514.488795
         5.96e-06       7514.543042
         5.97e-06       7514.447674
         5.98e-06       7514.227774
         5.99e-06       7514.099879
            6e-06       7514.011536
         6.01e-06       7513.878653
         6.02e-06        7513.68124
         6.03e-06       7513.563586
         6.04e-06       7513.363257
         6.05e-06       7513.155689
         6.06e-06       7512.867961
         6.07e-06        7512.66514
         6.08e-06       7512.533826
         6.09e-06       7512.279675
          6.1e-06       7511.987196
         6.11e-06       7511.814723
         6.12e-06       7511.798343
         6.13e-06       7511.721776
         6.14e-06       7511.391387
         6.15e-06       7511.337526
         6.16e-06       7511.335619
         6.17e-06       7511.355867
         6.18e-06       7511.186481
         6.19e-06       7510.936735
          6.2e-06       7510.714619
         6.21e-06       7510.598291
         6.22e-06       7510.298003
         6.23e-06       7510.031756
         6.24e-06       7509.957644
         6.25e-06       7509.817294
         6.26e-06       7509.703623
         6.27e-06       7509.509086
         6.28e-06       7509.430811
         6.29e-06       7509.260844
          6.3e-06       7509.206652
         6.31e-06       7509.143148
         6.32e-06       7508.998363
         6.33e-06       7508.804066
         6.34e-06       7508.594521
         6.35e-06       7508.421062
         6.36e-06       7508.351112
         6.37e-06       7508.186313
         6.38e-06       7507.943371
         6.39e-06       7507.819449
          6.4e-06       7507.456704
         6.41e-06       7507.524041
         6.42e-06        7507.53866
         6.43e-06       7507.353591
         6.44e-06       7507.261736
         6.45e-06       7507.027426
         6.46e-06        7507.02764
         6.47e-06       7506.770333
         6.48e-06       7506.802748
         6.49e-06       7506.584111
          6.5e-06       7506.451441
         6.51e-06       7506.231948
         6.52e-06       7506.019016
         6.53e-06       7505.933243
         6.54e-06       7505.816094
         6.55e-06       7505.773933
         6.56e-06       7505.603213
         6.57e-06       7505.505781
         6.58e-06       7505.455525
         6.59e-06       7505.172504
          6.6e-06       7504.977571
         6.61e-06       7504.919611
         6.62e-06       7504.630003
         6.63e-06       7504.718873
         6.64e-06        7504.59112
         6.65e-06       7504.334644
         6.66e-06        7504.18323
         6.67e-06       7504.057375
         6.68e-06       7503.946905
         6.69e-06       7503.861343
          6.7e-06       7503.816956
         6.71e-06       7503.816565
         6.72e-06       7503.625564
         6.73e-06       7503.558145
         6.74e-06        7503.39616
         6.75e-06       7503.245436
         6.76e-06       7503.135403
         6.77e-06        7502.90985
         6.78e-06       7502.874105
         6.79e-06       7502.534689
          6.8e-06        7502.61002
         6.81e-06       7502.469036
         6.82e-06       7502.295896
         6.83e-06       7502.327239
         6.84e-06       7502.166656
         6.85e-06       7501.832237
         6.86e-06       7501.719531
         6.87e-06       7501.645676
         6.88e-06       7501.524386
         6.89e-06       7501.369987
          6.9e-06       7501.110872
         6.91e-06       7500.978043
         6.92e-06       7500.828679
         6.93e-06       7500.705964
         6.94e-06       7500.732506
         6.95e-06       7500.602146
         6.96e-06       7500.366895
         6.97e-06       7500.214173
         6.98e-06       7500.065311
         6.99e-06       7499.918425
            7e-06       7499.761547
         7.01e-06       7499.621133
         7.02e-06       7499.466808
         7.03e-06       7499.330401
         7.04e-06       7499.252426
         7.05e-06       7499.050092
         7.06e-06        7498.80993
         7.07e-06       7498.696274
         7.08e-06       7498.671382
         7.09e-06       7498.701937
          7.1e-06       7498.683494
         7.11e-06       7498.545996
         7.12e-06       7498.397848
         7.13e-06       7498.447563
         7.14e-06       7498.273145
         7.15e-06       7498.194456
         7.16e-06       7497.960081
         7.17e-06       7497.786486
         7.18e-06       7497.795569
         7.19e-06       7497.512028
          7.2e-06        7497.40503
         7.21e-06        7497.28164
         7.22e-06       7496.877866
         7.23e-06       7496.831334
         7.24e-06       7496.554985
         7.25e-06        7496.49053
         7.26e-06       7496.452257
         7.27e-06       7496.302549
         7.28e-06       7496.095475
         7.29e-06       7495.945596
          7.3e-06       7495.864925
         7.31e-06       7495.694574
         7.32e-06       7495.476458
         7.33e-06       7495.262112
         7.34e-06        7495.19177
         7.35e-06       7495.098172
         7.36e-06       7495.036098
         7.37e-06       7494.937373
         7.38e-06       7494.980299
         7.39e-06       7494.737628
          7.4e-06       7494.624814
         7.41e-06       7494.576754
         7.42e-06       7494.401973
         7.43e-06       7494.343551
         7.44e-06       7494.204868
         7.45e-06       7494.010885
         7.46e-06       7493.953436
         7.47e-06       7493.867747
         7.48e-06       7493.806032
         7.49e-06       7493.643082
          7.5e-06       7493.766273
         7.51e-06       7493.774959
         7.52e-06       7493.651469
         7.53e-06       7493.627334
         7.54e-06       7493.491908
         7.55e-06       7493.445521
         7.56e-06       7493.291521
         7.57e-06       7493.351141
         7.58e-06       7493.281236
         7.59e-06       7493.178816
          7.6e-06       7493.303736
         7.61e-06       7493.223313
         7.62e-06       7493.041742
         7.63e-06       7492.966393
         7.64e-06       7492.882351
         7.65e-06       7492.713348
         7.66e-06       7492.815025
         7.67e-06       7492.780965
         7.68e-06       7492.710142
         7.69e-06       7492.603009
          7.7e-06       7492.618405
         7.71e-06       7492.627592
         7.72e-06       7492.429941
         7.73e-06       7492.342798
         7.74e-06       7492.336517
         7.75e-06       7492.060592
         7.76e-06       7492.065496
         7.77e-06       7491.862518
         7.78e-06       7491.748253
         7.79e-06       7491.775298
          7.8e-06       7491.797984
         7.81e-06       7491.706493
         7.82e-06       7491.507921
         7.83e-06       7491.421064
         7.84e-06       7491.345674
         7.85e-06       7491.319293
         7.86e-06       7491.078484
         7.87e-06       7491.056971
         7.88e-06       7490.937929
         7.89e-06       7490.838051
          7.9e-06       7490.667952
         7.91e-06       7490.485765
         7.92e-06       7490.571768
         7.93e-06       7490.395918
         7.94e-06        7490.15008
         7.95e-06         7490.1774
         7.96e-06       7490.125878
         7.97e-06       7490.013061
         7.98e-06       7489.950419
         7.99e-06       7489.904821
            8e-06       7489.754697
         8.01e-06         7489.8807
         8.02e-06       7489.854363
         8.03e-06       7489.640351
         8.04e-06       7489.563635
         8.05e-06       7489.551701
         8.06e-06       7489.557892
         8.07e-06       7489.519279
         8.08e-06       7489.490103
         8.09e-06       7489.433887
          8.1e-06       7489.221266
         8.11e-06       7489.190386
         8.12e-06       7489.053613
         8.13e-06       7488.985635
         8.14e-06       7488.859411
         8.15e-06       7488.725359
         8.16e-06       7488.720219
         8.17e-06       7488.797059
         8.18e-06       7488.666171
         8.19e-06       7488.543227
          8.2e-06        7488.47821
         8.21e-06       7488.319699
         8.22e-06       7488.176657
         8.23e-06       7487.984612
         8.24e-06       7487.777094
         8.25e-06       7487.616026
         8.26e-06       7487.394926
         8.27e-06        7487.20263
         8.28e-06       7487.125083
         8.29e-06       7487.033769
          8.3e-06       7487.061458
         8.31e-06       7486.959834