# Probe 0 (5e-06 5e-06 5e-06)
#           Probe                 0
#            Time
            1e-08       10019.74896
            2e-08       10025.27502
            3e-08       10009.50532
            4e-08       10016.81955
            5e-08       10017.09544
            6e-08       10002.70772
            7e-08       9978.255761
            8e-08       9973.712305
            9e-08       9954.252067
            1e-07       9953.656477
          1.1e-07       9954.919871
          1.2e-07       9947.610168
          1.3e-07       9955.374735
          1.4e-07       9947.935545
          1.5e-07       9929.210525
          1.6e-07       9936.325394
          1.7e-07       9936.457729
          1.8e-07       9924.034022
          1.9e-07       9913.928975
            2e-07       9891.329032
          2.1e-07       9872.267387
          2.2e-07       9857.353768
          2.3e-07        9860.52498
          2.4e-07       9855.593655
          2.5e-07       9863.362324
          2.6e-07       9853.039473
          2.7e-07       9854.146016
          2.8e-07       9860.127791
          2.9e-07       9841.572004
            3e-07        9812.26519
          3.1e-07       9806.613425
          3.2e-07       9814.913219
          3.3e-07       9813.853819
          3.4e-07       9810.797767
          3.5e-07       9797.119421
          3.6e-07       9802.146116
          3.7e-07       9786.226419
          3.8e-07       9773.253002
          3.9e-07       9767.060364
            4e-07       9768.454031
          4.1e-07       9760.765257
          4.2e-07       9758.923998
          4.3e-07       9753.628895
          4.4e-07       9751.086826
          4.5e-07       9738.680074
          4.6e-07       9720.650695
          4.7e-07       9699.528398
          4.8e-07       9692.346751
          4.9e-07       9684.842145
            5e-07       9679.612294
          5.1e-07       9659.477318
          5.2e-07       9643.372713
          5.3e-07       9650.539138
          5.4e-07       9634.964346
          5.5e-07       9622.990499
          5.6e-07       9594.433082
          5.7e-07       9577.264291
          5.8e-07       9556.510547
          5.9e-07       9558.574299
            6e-07       9555.039567
          6.1e-07       9560.019703
          6.2e-07       9565.188157
          6.3e-07        9561.38292
          6.4e-07       9567.028492
          6.5e-07       9563.088769
          6.6e-07       9538.904242
          6.7e-07       9535.238775
          6.8e-07       9503.540675
          6.9e-07         9497.9648
            7e-07       9497.208424
          7.1e-07       9506.940654
          7.2e-07       9518.226995
          7.3e-07       9509.948064
          7.4e-07        9493.56933
          7.5e-07       9486.862178
          7.6e-07       9500.904452
          7.7e-07       9504.788905
          7.8e-07       9492.998135
          7.9e-07        9496.20434
            8e-07        9503.40047
          8.1e-07       9496.502078
          8.2e-07       9468.986513
          8.3e-07       9466.056987
          8.4e-07       9458.469214
          8.5e-07       9453.394107
          8.6e-07       9461.543444
          8.7e-07       9460.272026
          8.8e-07       9466.084866
          8.9e-07        9455.56919
            9e-07       9449.772352
          9.1e-07        9452.88194
          9.2e-07       9449.070772
          9.3e-07       9415.009513
          9.4e-07       9411.743866
          9.5e-07        9394.79546
          9.6e-07       9364.283553
          9.7e-07       9375.712412
          9.8e-07       9351.654548
          9.9e-07       9337.464555
            1e-06       9315.012866
         1.01e-06       9320.244939
         1.02e-06       9310.745618
         1.03e-06       9317.668699
         1.04e-06       9314.760725
         1.05e-06       9317.480338
         1.06e-06       9304.825703
         1.07e-06       9300.861504
         1.08e-06       9315.108187
         1.09e-06       9296.556404
          1.1e-06       9304.058537
         1.11e-06       9299.886088
         1.12e-06       9295.996923
         1.13e-06        9290.48593
         1.14e-06       9281.624554
         1.15e-06       9261.828413
         1.16e-06       9271.625199
         1.17e-06       9279.202349
         1.18e-06       9270.700463
         1.19e-06       9270.218531
          1.2e-06       9271.291799
         1.21e-06         9257.8898
         1.22e-06       9232.540177
         1.23e-06       9235.072318
         1.24e-06       9231.328736
         1.25e-06       9226.754535
         1.26e-06        9219.77615
         1.27e-06       9204.813747
         1.28e-06       9197.384041
         1.29e-06       9194.341825
          1.3e-06       9198.104106
         1.31e-06       9210.435012
         1.32e-06       9206.167721
         1.33e-06       9190.094544
         1.34e-06       9195.461398
         1.35e-06       9189.942229
         1.36e-06       9184.171483
         1.37e-06       9199.370442
         1.38e-06       9190.655168
         1.39e-06       9195.471145
          1.4e-06       9196.798659
         1.41e-06       9193.714038
         1.42e-06       9191.431361
         1.43e-06       9195.743529
         1.44e-06       9169.973196
         1.45e-06       9161.706816
         1.46e-06       9141.111356
         1.47e-06       9146.094708
         1.48e-06       9136.194587
         1.49e-06       9138.781541
          1.5e-06       9119.717873
         1.51e-06        9115.75323
         1.52e-06       9122.036459
         1.53e-06       9096.398963
         1.54e-06       9109.359717
         1.55e-06       9099.138967
         1.56e-06       9087.965868
         1.57e-06        9070.20962
         1.58e-06       9059.581737
         1.59e-06       9049.693161
          1.6e-06       9049.551003
         1.61e-06       9052.939445
         1.62e-06       9042.017423
         1.63e-06        9050.02614
         1.64e-06       9063.509249
         1.65e-06       9050.052176
         1.66e-06       9033.363303
         1.67e-06       9037.052043
         1.68e-06       9033.910393
         1.69e-06       9042.137638
          1.7e-06       9020.193625
         1.71e-06       9027.950998
         1.72e-06       9021.303503
         1.73e-06         9003.4646
         1.74e-06       8996.339009
         1.75e-06       8995.516125
         1.76e-06        9000.12103
         1.77e-06       9006.232792
         1.78e-06       8980.583551
         1.79e-06         8965.4183
          1.8e-06       8962.577106
         1.81e-06       8958.069142
         1.82e-06       8971.626159
         1.83e-06       8985.402741
         1.84e-06       8974.675273
         1.85e-06       8986.200843
         1.86e-06       8964.098863
         1.87e-06       8944.574142
         1.88e-06       8927.415855
         1.89e-06       8933.533337
          1.9e-06       8937.427418
         1.91e-06       8949.352394
         1.92e-06       8936.332299
         1.93e-06       8923.570462
         1.94e-06       8904.117032
         1.95e-06        8897.97243
         1.96e-06       8887.381675
         1.97e-06       8891.957874
         1.98e-06       8890.812588
         1.99e-06       8884.770703
            2e-06       8885.416716
         2.01e-06       8875.807237
         2.02e-06       8862.421761
         2.03e-06       8852.727241
         2.04e-06       8861.405516
         2.05e-06       8869.953677
         2.06e-06       8864.981961
         2.07e-06       8858.461842
         2.08e-06       8851.338526
         2.09e-06       8830.528061
          2.1e-06       8832.998685
         2.11e-06       8824.521165
         2.12e-06       8828.230489
         2.13e-06       8826.920597
         2.14e-06        8829.66829
         2.15e-06       8820.465887
         2.16e-06       8807.685383
         2.17e-06       8804.274232
         2.18e-06       8809.236109
         2.19e-06       8815.082475
          2.2e-06        8806.84062
         2.21e-06       8796.725311
         2.22e-06       8778.314229
         2.23e-06       8778.652761
         2.24e-06        8775.94227
         2.25e-06       8762.611435
         2.26e-06       8758.664771
         2.27e-06       8766.123369
         2.28e-06       8741.045134
         2.29e-06       8735.014443
          2.3e-06       8745.507989
         2.31e-06       8748.057051
         2.32e-06        8755.16281
         2.33e-06       8744.066378
         2.34e-06       8741.897913
         2.35e-06       8728.664614
         2.36e-06       8728.542179
         2.37e-06       8727.196556
         2.38e-06       8729.936458
         2.39e-06       8707.191657
          2.4e-06       8730.759801
         2.41e-06       8728.697466
         2.42e-06       8727.600485
         2.43e-06       8722.848038
         2.44e-06       8732.690806
         2.45e-06       8716.696061
         2.46e-06       8721.109613
         2.47e-06       8702.217024
         2.48e-06       8685.666157
         2.49e-06       8682.072808
          2.5e-06       8666.143546
         2.51e-06       8673.966929
         2.52e-06       8670.190237
         2.53e-06       8675.209475
         2.54e-06       8682.425304
         2.55e-06       8656.027227
         2.56e-06       8646.587995
         2.57e-06       8642.039187
         2.58e-06       8650.213683
         2.59e-06       8649.421095
          2.6e-06       8647.855265
         2.61e-06       8650.511003
         2.62e-06       8651.862461
         2.63e-06       8652.962293
         2.64e-06       8639.676103
         2.65e-06       8641.359304
         2.66e-06       8638.910243
         2.67e-06       8637.815402
         2.68e-06       8644.015877
         2.69e-06       8615.389588
          2.7e-06       8613.648435
         2.71e-06        8608.62043
         2.72e-06       8601.280498
         2.73e-06       8584.956044
         2.74e-06       8605.977879
         2.75e-06       8591.504439
         2.76e-06        8559.84712
         2.77e-06       8566.663511
         2.78e-06       8562.737088
         2.79e-06       8561.096621
          2.8e-06       8556.517253
         2.81e-06       8553.106763
         2.82e-06       8556.900264
         2.83e-06       8556.910544
         2.84e-06       8554.612799
         2.85e-06       8537.740576
         2.86e-06       8550.340344
         2.87e-06       8552.272559
         2.88e-06       8557.436389
         2.89e-06       8556.930303
          2.9e-06       8546.932762
         2.91e-06       8538.969406
         2.92e-06       8531.827296
         2.93e-06       8520.344738
         2.94e-06       8536.665903
         2.95e-06       8521.922301
         2.96e-06       8506.277588
         2.97e-06       8505.215363
         2.98e-06       8492.342732
         2.99e-06       8492.591359
            3e-06       8499.457144
         3.01e-06       8508.451215
         3.02e-06       8498.660959
         3.03e-06       8520.461724
         3.04e-06       8527.497748
         3.05e-06       8546.266784
         3.06e-06       8537.785288
         3.07e-06       8544.620365
         3.08e-06       8533.251339
         3.09e-06       8532.616238
          3.1e-06        8519.43329
         3.11e-06       8504.970094
         3.12e-06       8499.377108
         3.13e-06       8480.854118
         3.14e-06       8477.406077
         3.15e-06       8476.432424
         3.16e-06       8460.211079
         3.17e-06       8454.898082
         3.18e-06       8436.902014
         3.19e-06       8427.922738
          3.2e-06       8417.272888
         3.21e-06       8435.880355
         3.22e-06       8447.318084
         3.23e-06       8452.629087
         3.24e-06       8439.858586
         3.25e-06       8433.855423
         3.26e-06       8423.569585
         3.27e-06       8412.758426
         3.28e-06       8418.573152
         3.29e-06       8427.177108
          3.3e-06       8400.423407
         3.31e-06       8405.125453
         3.32e-06       8412.581488
         3.33e-06       8408.712603
         3.34e-06       8398.815302
         3.35e-06       8399.458604
         3.36e-06        8391.33568
         3.37e-06       8395.765987
         3.38e-06       8383.667153
         3.39e-06       8403.189065
          3.4e-06       8399.691048
         3.41e-06       8403.730637
         3.42e-06       8385.434353
         3.43e-06       8361.788224
         3.44e-06       8351.328368
         3.45e-06       8347.488573
         3.46e-06       8349.377605
         3.47e-06       8352.566424
         3.48e-06       8347.051905
         3.49e-06       8339.861318
          3.5e-06       8364.388131
         3.51e-06       8354.178087
         3.52e-06         8349.8498
         3.53e-06       8342.458926
         3.54e-06       8326.800568
         3.55e-06       8339.394857
         3.56e-06       8323.901938
         3.57e-06       8325.862756
         3.58e-06       8330.316481
         3.59e-06       8309.578192
          3.6e-06       8305.362882
         3.61e-06       8301.688386
         3.62e-06       8312.811646
         3.63e-06       8295.547408
         3.64e-06       8299.546379
         3.65e-06       8309.080738
         3.66e-06       8328.549539
         3.67e-06       8314.435694
         3.68e-06       8291.992568
         3.69e-06       8287.575747
          3.7e-06       8283.547466
         3.71e-06       8280.395462
         3.72e-06       8271.623355
         3.73e-06       8277.999578
         3.74e-06       8268.710192
         3.75e-06       8269.047294
         3.76e-06       8261.707705
         3.77e-06       8260.655936
         3.78e-06       8255.534871
         3.79e-06       8259.167919
          3.8e-06       8272.848081
         3.81e-06       8264.677749
         3.82e-06       8275.233152
         3.83e-06        8270.35365
         3.84e-06       8283.296117
         3.85e-06       8266.564657
         3.86e-06       8260.527631
         3.87e-06       8251.935481
         3.88e-06       8242.666092
         3.89e-06       8238.373809
          3.9e-06       8232.560301
         3.91e-06       8252.774685
         3.92e-06       8260.974708
         3.93e-06       8251.749039
         3.94e-06       8246.625369
         3.95e-06       8260.807545
         3.96e-06       8260.573492
         3.97e-06       8258.740972
         3.98e-06       8249.778607
         3.99e-06       8253.222929
            4e-06       8242.247335
         4.01e-06       8246.182139
         4.02e-06       8250.404725
         4.03e-06       8257.997075
         4.04e-06       8235.942905
         4.05e-06       8232.781861
         4.06e-06       8225.370769
         4.07e-06       8207.865352
         4.08e-06       8202.088149
         4.09e-06       8192.171114
          4.1e-06       8205.417607
         4.11e-06       8201.046985
         4.12e-06        8191.16104
         4.13e-06       8181.738411
         4.14e-06        8190.53598
         4.15e-06       8175.009011
         4.16e-06       8180.611168
         4.17e-06       8187.112569
         4.18e-06       8183.253092
         4.19e-06       8186.854587
          4.2e-06       8185.323725
         4.21e-06       8169.215597
         4.22e-06       8178.567991
         4.23e-06       8174.418022
         4.24e-06       8167.323811
         4.25e-06       8173.186148
         4.26e-06       8180.436455
         4.27e-06       8182.846784
         4.28e-06       8178.464923
         4.29e-06       8169.282389
          4.3e-06       8170.700592
         4.31e-06       8153.343117
         4.32e-06       8170.696713
         4.33e-06       8181.375646
         4.34e-06       8180.504691
         4.35e-06       8178.697841
         4.36e-06       8165.227379
         4.37e-06       8150.868483
         4.38e-06       8148.492194
         4.39e-06       8136.583109
          4.4e-06       8136.191254
         4.41e-06       8133.288437
         4.42e-06       8135.059989
         4.43e-06       8128.143671
         4.44e-06       8147.231751
         4.45e-06       8151.239822
         4.46e-06       8149.138506
         4.47e-06       8153.775678
         4.48e-06       8164.423781
         4.49e-06       8150.685832
          4.5e-06       8134.389776
         4.51e-06       8126.331456
         4.52e-06       8131.398168
         4.53e-06       8141.959438
         4.54e-06       8141.769945
         4.55e-06       8132.176819
         4.56e-06       8124.107306
         4.57e-06       8128.361601
         4.58e-06        8121.38225
         4.59e-06       8135.904363
          4.6e-06       8119.820862
         4.61e-06       8120.762568
         4.62e-06       8113.901107
         4.63e-06       8119.099114
         4.64e-06       8127.810661
         4.65e-06       8115.483505
         4.66e-06       8118.358494
         4.67e-06       8100.348547
         4.68e-06       8090.785404
         4.69e-06       8074.826715
          4.7e-06       8087.809144
         4.71e-06       8081.217668
         4.72e-06       8080.103192
         4.73e-06       8092.773336
         4.74e-06        8082.13874
         4.75e-06       8090.858638
         4.76e-06       8095.149854
         4.77e-06       8095.248404
         4.78e-06       8086.397773
         4.79e-06       8079.317894
          4.8e-06       8061.453522
         4.81e-06       8048.004157
         4.82e-06        8044.96898
         4.83e-06       8050.345198
         4.84e-06       8037.345221
         4.85e-06       8046.802081
         4.86e-06       8052.033951
         4.87e-06       8059.837817
         4.88e-06       8060.654518
         4.89e-06       8070.141917
          4.9e-06       8071.436171
         4.91e-06        8069.41174
         4.92e-06       8064.174145
         4.93e-06       8063.060398
         4.94e-06       8066.887962
         4.95e-06       8067.546916
         4.96e-06       8043.732011
         4.97e-06       8030.525019
         4.98e-06       8041.648444
         4.99e-06       8039.482586
            5e-06       8025.933827
         5.01e-06       8020.917725
         5.02e-06       8023.445922
         5.03e-06       8006.874855
         5.04e-06       8017.620967
         5.05e-06       7993.648786
         5.06e-06       7999.831061
         5.07e-06       7990.489604
         5.08e-06       8005.542273
         5.09e-06       8025.935315
          5.1e-06       8038.515195
         5.11e-06       8043.177649
         5.12e-06       8053.234895
         5.13e-06       8038.838089
         5.14e-06       8041.126184
         5.15e-06       8042.156656
         5.16e-06       8028.929676
         5.17e-06       8031.782018
         5.18e-06       8026.522196
         5.19e-06       8015.899404
          5.2e-06       8002.400587
         5.21e-06       8008.890532
         5.22e-06       7989.315816
         5.23e-06       7991.064097
         5.24e-06       7989.548814
         5.25e-06       7993.279846
         5.26e-06       7998.250357
         5.27e-06       7977.195609
         5.28e-06       7975.662258
         5.29e-06       7980.001511
          5.3e-06       7967.746121
         5.31e-06       7951.401188
         5.32e-06       7956.401697
         5.33e-06       7964.671628
         5.34e-06       7962.623652
         5.35e-06       7980.957886
         5.36e-06        7974.82423
         5.37e-06       7973.825964
         5.38e-06       7983.130313
         5.39e-06       7973.664276
          5.4e-06       7960.196897
         5.41e-06       7959.998369
         5.42e-06       7961.894109
         5.43e-06       7952.272692
         5.44e-06       7943.882537
         5.45e-06       7950.333014
         5.46e-06        7934.87502
         5.47e-06       7939.784639
         5.48e-06       7948.973563
         5.49e-06       7961.135872
          5.5e-06       7962.987248
         5.51e-06       7971.151657
         5.52e-06       7962.485616
         5.53e-06       7953.906447
         5.54e-06       7947.315296
         5.55e-06       7942.304939
         5.56e-06       7939.471985
         5.57e-06       7942.382848
         5.58e-06       7953.829726
         5.59e-06        7938.77228
          5.6e-06        7934.02981
         5.61e-06       7930.914025
         5.62e-06       7921.547745
         5.63e-06       7915.635944
         5.64e-06        7906.17445
         5.65e-06       7916.344655
         5.66e-06       7920.349754
         5.67e-06       7917.484668
         5.68e-06       7908.194155
         5.69e-06       7894.443075
          5.7e-06       7898.242403
         5.71e-06       7900.967612
         5.72e-06         7891.3454
         5.73e-06       7894.491118
         5.74e-06       7905.191817
         5.75e-06         7917.2231
         5.76e-06       7905.763337
         5.77e-06       7901.785802
         5.78e-06       7900.873854
         5.79e-06       7896.502166
          5.8e-06       7906.595871
         5.81e-06       7889.097592
         5.82e-06        7901.65743
         5.83e-06        7909.57628
         5.84e-06        7916.96161
         5.85e-06       7906.422397
         5.86e-06        7927.09728
         5.87e-06       7917.882754
         5.88e-06       7907.965524
         5.89e-06       7905.415594
          5.9e-06        7909.98911
         5.91e-06       7894.218042
         5.92e-06       7892.044153
         5.93e-06       7906.000343
         5.94e-06       7897.707959
         5.95e-06       7895.050626
         5.96e-06       7902.428373
         5.97e-06       7902.583888
         5.98e-06       7905.140052
         5.99e-06       7910.830244
            6e-06       7925.737782
         6.01e-06       7918.416447
         6.02e-06        7904.74599
         6.03e-06       7907.205607
         6.04e-06       7892.506687
         6.05e-06       7887.252086
         6.06e-06       7888.340549
         6.07e-06       7876.786977
         6.08e-06       7875.959217
         6.09e-06       7876.421098
          6.1e-06       7867.293526
         6.11e-06       7859.352705
         6.12e-06       7861.808221
         6.13e-06       7877.289614
         6.14e-06       7864.873814
         6.15e-06       7851.305985
         6.16e-06       7850.841533
         6.17e-06       7853.656082
         6.18e-06       7858.061393
         6.19e-06        7863.30181
          6.2e-06        7857.37632
         6.21e-06       7866.277237
         6.22e-06       7853.561201
         6.23e-06       7857.435896
         6.24e-06       7858.679355
         6.25e-06       7839.971161
         6.26e-06        7830.82706
         6.27e-06       7856.921054
         6.28e-06       7858.461688
         6.29e-06       7859.107525
          6.3e-06       7852.192007
         6.31e-06       7849.843179
         6.32e-06       7840.096532
         6.33e-06       7827.651507
         6.34e-06       7828.596798
         6.35e-06       7820.558326
         6.36e-06       7809.742357
         6.37e-06       7819.101983
         6.38e-06       7833.075346
         6.39e-06       7833.842164
          6.4e-06       7842.228131
         6.41e-06       7824.721936
         6.42e-06       7826.320077
         6.43e-06        7824.53535
         6.44e-06       7813.809161
         6.45e-06        7818.40309
         6.46e-06       7822.144536
         6.47e-06       7832.885664
         6.48e-06       7808.704062
         6.49e-06       7806.733908
          6.5e-06       7795.129092
         6.51e-06       7798.034372
         6.52e-06       7809.714284
         6.53e-06       7811.911266
         6.54e-06       7816.592491
         6.55e-06       7841.685895
         6.56e-06       7832.497702
         6.57e-06        7829.34281
         6.58e-06       7819.837213
         6.59e-06       7803.485601
          6.6e-06       7795.786924
         6.61e-06       7793.447512
         6.62e-06       7800.915136
         6.63e-06       7800.173506
         6.64e-06        7789.83346
         6.65e-06       7799.143728
         6.66e-06       7802.524072
         6.67e-06       7793.726687
         6.68e-06       7790.975472
         6.69e-06       7792.600889
          6.7e-06       7791.592326
         6.71e-06       7796.238356
         6.72e-06        7800.38033
         6.73e-06       7794.028662
         6.74e-06       7811.115637
         6.75e-06       7810.412763
         6.76e-06       7812.216275
         6.77e-06       7805.282891
         6.78e-06       7804.669255
         6.79e-06       7798.250654
          6.8e-06        7802.99374
         6.81e-06       7797.972113
         6.82e-06       7796.252836
         6.83e-06       7797.214701
         6.84e-06       7805.116535
         6.85e-06       7805.574052
         6.86e-06       7811.430671
         6.87e-06       7817.476916
         6.88e-06       7817.849234
         6.89e-06       7809.601507
          6.9e-06       7794.815618
         6.91e-06        7787.20264
         6.92e-06       7785.592142
         6.93e-06       7792.258731
         6.94e-06       7792.726321
         6.95e-06       7780.486263
         6.96e-06       7782.753789
         6.97e-06       7775.880398
         6.98e-06       7783.463412
         6.99e-06       7775.423387
            7e-06       7766.675989
         7.01e-06       7789.246543
         7.02e-06       7789.354288
         7.03e-06       7783.801414
         7.04e-06       7783.012499
         7.05e-06       7759.361264
         7.06e-06       7756.091532
         7.07e-06       7757.450263
         7.08e-06       7760.332615
         7.09e-06       7753.869949
          7.1e-06       7741.945035
         7.11e-06       7740.616027
         7.12e-06       7738.913001
         7.13e-06        7748.87621
         7.14e-06       7750.522019
         7.15e-06       7761.756966
         7.16e-06       7747.884251
         7.17e-06       7745.310113
         7.18e-06       7753.067213
         7.19e-06       7740.952285
          7.2e-06       7755.561592
         7.21e-06       7754.376221
         7.22e-06       7755.991384
         7.23e-06       7756.902282
         7.24e-06       7748.089585
         7.25e-06       7750.008557
         7.26e-06       7750.867208
         7.27e-06       7758.220152
         7.28e-06       7739.948699
         7.29e-06       7753.236549
          7.3e-06       7763.715435
         7.31e-06       7754.972426
         7.32e-06       7750.406203
         7.33e-06       7749.816476
         7.34e-06       7758.069742
         7.35e-06       7753.960012
         7.36e-06       7748.226546
         7.37e-06       7740.541803
         7.38e-06       7751.408859
         7.39e-06       7752.427579
          7.4e-06       7758.702012
         7.41e-06       7742.914533
         7.42e-06       7735.762514
         7.43e-06       7728.051086
         7.44e-06       7726.376139
         7.45e-06       7722.648544
         7.46e-06       7718.531563
         7.47e-06        7723.55102
         7.48e-06       7714.183202
         7.49e-06       7713.691518
          7.5e-06       7712.909367
         7.51e-06        7725.84106
         7.52e-06       7715.384771
         7.53e-06       7729.288619
         7.54e-06       7742.589411
         7.55e-06       7741.861735
         7.56e-06       7732.487568
         7.57e-06       7714.250775
         7.58e-06       7721.214582
         7.59e-06       7729.892086
          7.6e-06       7727.158107
         7.61e-06       7702.391322
         7.62e-06       7698.163607
         7.63e-06       7698.458601
         7.64e-06        7700.09114
         7.65e-06       7724.319989
         7.66e-06       7713.613372
         7.67e-06       7708.470241
         7.68e-06       7715.140033
         7.69e-06       7713.904627
          7.7e-06       7729.207664
         7.71e-06       7720.656159
         7.72e-06       7719.420923
         7.73e-06       7703.501438
         7.74e-06       7712.196295
         7.75e-06       7723.077815
         7.76e-06       7716.332513
         7.77e-06       7706.089436
         7.78e-06       7701.218861
         7.79e-06       7692.876016
          7.8e-06       7702.634921
         7.81e-06       7694.793748
         7.82e-06       7695.042658
         7.83e-06       7691.251779
         7.84e-06       7674.485606
         7.85e-06       7677.972008
         7.86e-06       7673.922452
         7.87e-06       7682.049149
         7.88e-06       7692.416116
         7.89e-06       7698.417842
          7.9e-06       7698.152095
         7.91e-06       7700.338701
         7.92e-06       7697.832076
         7.93e-06       7716.464131
         7.94e-06       7701.655516
         7.95e-06       7703.183678
         7.96e-06       7707.705336
         7.97e-06       7722.338198
         7.98e-06       7711.523236
         7.99e-06        7705.58068
            8e-06       7704.409433
         8.01e-06       7700.165764
         8.02e-06       7702.322707
         8.03e-06       7700.324038
         8.04e-06       7706.218826
         8.05e-06       7700.674344
         8.06e-06       7697.352784
         8.07e-06       7711.425756
         8.08e-06       7700.647034
         8.09e-06       7702.605086
          8.1e-06       7687.120824
         8.11e-06       7689.130765
         8.12e-06       7708.859793
         8.13e-06       7712.466661
         8.14e-06       7709.481293
         8.15e-06       7712.881516
         8.16e-06       7702.670478
         8.17e-06       7686.452917
         8.18e-06       7694.639776
         8.19e-06       7694.214535
          8.2e-06       7682.721765
         8.21e-06       7695.538781
         8.22e-06       7696.397782
         8.23e-06       7690.455104
         8.24e-06       7693.120855
         8.25e-06       7690.171379
         8.26e-06       7679.921263
         8.27e-06       7671.356915
         8.28e-06       7691.681241
         8.29e-06        7686.52775
          8.3e-06       7669.882436
         8.31e-06       7680.017168