# Probe 0 (5e-06 5e-06 5e-06)
#           Probe                 0
#            Time
            1e-08       10013.54992
            2e-08       9997.178593
            3e-08       9993.636212
            4e-08       9973.184292
            5e-08       9958.592461
            6e-08       9953.231218
            7e-08        9955.15245
            8e-08       9946.289975
            9e-08       9946.938487
            1e-07       9932.560643
          1.1e-07       9918.612038
          1.2e-07       9911.295976
          1.3e-07       9892.815493
          1.4e-07       9884.299534
          1.5e-07       9883.316492
          1.6e-07       9866.093621
          1.7e-07       9852.233599
          1.8e-07       9846.911613
          1.9e-07       9842.470661
            2e-07       9843.092282
          2.1e-07       9841.436503
          2.2e-07       9839.888421
          2.3e-07       9823.430102
          2.4e-07       9813.503829
          2.5e-07        9797.93616
          2.6e-07       9792.394565
          2.7e-07       9781.584585
          2.8e-07       9765.293781
          2.9e-07       9765.065855
            3e-07       9771.906267
          3.1e-07       9763.140584
          3.2e-07       9746.465525
          3.3e-07       9734.857166
          3.4e-07        9726.34815
          3.5e-07       9722.468316
          3.6e-07       9706.510844
          3.7e-07       9705.131144
          3.8e-07       9702.064117
          3.9e-07       9693.904469
            4e-07       9681.963087
          4.1e-07       9674.183613
          4.2e-07       9664.793649
          4.3e-07       9656.585637
          4.4e-07       9647.018909
          4.5e-07       9643.369802
          4.6e-07       9644.276557
          4.7e-07       9644.600991
          4.8e-07       9636.061915
          4.9e-07       9629.947789
            5e-07       9622.280743
          5.1e-07       9626.112795
          5.2e-07       9622.693824
          5.3e-07       9606.545162
          5.4e-07       9605.421358
          5.5e-07       9601.626597
          5.6e-07        9609.26019
          5.7e-07       9611.567044
          5.8e-07       9614.697239
          5.9e-07       9601.625885
            6e-07        9595.82319
          6.1e-07        9581.54156
          6.2e-07        9565.54453
          6.3e-07       9557.190647
          6.4e-07       9543.342906
          6.5e-07       9536.229452
          6.6e-07       9540.983681
          6.7e-07       9533.644815
          6.8e-07       9543.735095
          6.9e-07       9538.459726
            7e-07       9528.505672
          7.1e-07       9511.378705
          7.2e-07       9494.639873
          7.3e-07       9490.202838
          7.4e-07       9487.529767
          7.5e-07       9481.353001
          7.6e-07       9463.112579
          7.7e-07       9451.362872
          7.8e-07       9446.326459
          7.9e-07        9433.91407
            8e-07       9418.507812
          8.1e-07       9413.823883
          8.2e-07       9422.912816
          8.3e-07       9413.896326
          8.4e-07       9407.201122
          8.5e-07       9400.673861
          8.6e-07       9386.147304
          8.7e-07       9377.621934
          8.8e-07       9363.566649
          8.9e-07       9360.441715
            9e-07       9356.142669
          9.1e-07       9342.728844
          9.2e-07       9336.323487
          9.3e-07        9347.00595
          9.4e-07          9339.266
          9.5e-07       9343.146515
          9.6e-07       9353.203846
          9.7e-07       9336.433895
          9.8e-07       9341.738236
          9.9e-07       9340.878553
            1e-06       9345.653657
         1.01e-06       9331.992437
         1.02e-06        9328.63333
         1.03e-06       9315.016952
         1.04e-06       9308.403352
         1.05e-06       9296.513018
         1.06e-06       9293.584475
         1.07e-06       9287.753302
         1.08e-06       9267.576627
         1.09e-06       9271.865535
          1.1e-06       9256.889118
         1.11e-06        9250.67267
         1.12e-06       9242.786253
         1.13e-06        9238.75995
         1.14e-06       9235.530431
         1.15e-06       9240.823191
         1.16e-06       9225.862465
         1.17e-06       9210.559158
         1.18e-06       9208.017357
         1.19e-06        9200.29086
          1.2e-06       9192.344106
         1.21e-06       9190.567166
         1.22e-06       9199.542863
         1.23e-06       9189.052253
         1.24e-06        9183.21678
         1.25e-06       9179.276487
         1.26e-06       9175.172988
         1.27e-06       9176.323224
         1.28e-06        9171.83446
         1.29e-06       9165.086117
          1.3e-06       9153.084529
         1.31e-06       9135.217608
         1.32e-06       9132.026674
         1.33e-06       9134.793445
         1.34e-06       9121.727321
         1.35e-06       9118.707339
         1.36e-06       9115.104198
         1.37e-06       9097.092342
         1.38e-06       9094.786736
         1.39e-06       9083.321391
          1.4e-06       9074.512466
         1.41e-06       9068.652791
         1.42e-06       9062.417805
         1.43e-06       9050.115065
         1.44e-06       9058.361067
         1.45e-06       9058.169898
         1.46e-06       9059.939392
         1.47e-06       9046.543423
         1.48e-06       9042.763794
         1.49e-06       9032.488427
          1.5e-06       9036.946133
         1.51e-06       9032.226878
         1.52e-06        9019.04545
         1.53e-06       9027.381986
         1.54e-06       9009.230428
         1.55e-06        9008.76602
         1.56e-06       9009.897447
         1.57e-06       9013.205974
         1.58e-06       9012.946499
         1.59e-06       9012.831625
          1.6e-06       9004.242933
         1.61e-06       8993.145984
         1.62e-06       8993.119818
         1.63e-06       8979.130013
         1.64e-06        8962.06316
         1.65e-06       8964.301133
         1.66e-06       8967.669832
         1.67e-06       8957.954347
         1.68e-06       8951.997858
         1.69e-06       8937.307708
          1.7e-06       8942.777292
         1.71e-06       8931.277777
         1.72e-06       8927.216129
         1.73e-06       8932.376024
         1.74e-06       8930.651382
         1.75e-06       8924.359836
         1.76e-06       8913.942805
         1.77e-06       8899.871235
         1.78e-06       8909.638958
         1.79e-06        8912.51004
          1.8e-06       8906.961494
         1.81e-06       8904.224375
         1.82e-06       8886.719858
         1.83e-06       8869.302501
         1.84e-06       8869.993619
         1.85e-06        8854.93119
         1.86e-06       8862.268173
         1.87e-06       8867.614057
         1.88e-06       8872.005816
         1.89e-06       8860.625037
          1.9e-06       8851.884774
         1.91e-06       8836.653195
         1.92e-06       8837.416354
         1.93e-06       8838.325422
         1.94e-06       8843.994286
         1.95e-06       8841.610034
         1.96e-06       8842.800898
         1.97e-06        8833.37991
         1.98e-06       8826.958375
         1.99e-06       8824.578361
            2e-06       8814.521173
         2.01e-06       8812.840912
         2.02e-06       8814.647435
         2.03e-06       8815.274308
         2.04e-06       8802.634625
         2.05e-06       8789.222132
         2.06e-06       8787.440399
         2.07e-06       8784.622434
         2.08e-06       8783.655602
         2.09e-06       8791.521281
          2.1e-06       8782.951196
         2.11e-06       8780.105058
         2.12e-06       8773.141084
         2.13e-06       8765.744603
         2.14e-06       8756.380969
         2.15e-06       8757.481325
         2.16e-06       8759.407545
         2.17e-06       8753.255192
         2.18e-06       8741.639771
         2.19e-06       8730.780968
          2.2e-06       8729.531475
         2.21e-06       8729.143828
         2.22e-06       8735.530147
         2.23e-06       8726.613531
         2.24e-06        8720.56988
         2.25e-06       8724.850551
         2.26e-06        8722.04199
         2.27e-06       8711.680257
         2.28e-06       8721.218357
         2.29e-06       8717.982687
          2.3e-06       8705.073662
         2.31e-06       8696.645197
         2.32e-06       8687.246392
         2.33e-06       8689.407014
         2.34e-06        8683.69835
         2.35e-06       8687.995931
         2.36e-06       8680.156904
         2.37e-06       8674.085863
         2.38e-06       8667.896947
         2.39e-06       8676.459027
          2.4e-06       8653.265517
         2.41e-06       8647.895365
         2.42e-06       8642.375309
         2.43e-06       8641.561507
         2.44e-06       8629.174659
         2.45e-06        8632.21285
         2.46e-06        8622.53039
         2.47e-06       8628.213917
         2.48e-06       8633.045664
         2.49e-06       8630.247475
          2.5e-06       8633.703566
         2.51e-06       8622.395932
         2.52e-06       8618.318654
         2.53e-06       8609.354825
         2.54e-06       8598.303483
         2.55e-06       8611.023232
         2.56e-06        8610.55536
         2.57e-06       8608.473705
         2.58e-06       8597.256248
         2.59e-06       8593.225262
          2.6e-06        8590.25558
         2.61e-06        8581.64191
         2.62e-06       8577.178135
         2.63e-06       8572.732465
         2.64e-06       8577.139854
         2.65e-06       8570.708571
         2.66e-06       8564.485808
         2.67e-06       8560.524534
         2.68e-06       8550.983313
         2.69e-06       8564.188064
          2.7e-06       8560.318764
         2.71e-06       8559.562548
         2.72e-06       8558.599811
         2.73e-06       8563.919966
         2.74e-06       8545.252265
         2.75e-06       8548.521079
         2.76e-06       8564.179394
         2.77e-06       8551.618974
         2.78e-06       8549.440016
         2.79e-06       8544.997883
          2.8e-06       8541.617932
         2.81e-06       8537.037089
         2.82e-06       8528.431085
         2.83e-06       8524.715596
         2.84e-06       8520.012551
         2.85e-06       8526.158697
         2.86e-06       8513.922216
         2.87e-06       8506.847747
         2.88e-06       8498.465131
         2.89e-06       8493.044054
          2.9e-06       8494.535815
         2.91e-06        8494.67504
         2.92e-06       8494.980565
         2.93e-06       8497.253121
         2.94e-06       8481.078244
         2.95e-06       8486.499062
         2.96e-06       8490.469178
         2.97e-06       8486.206235
         2.98e-06        8487.72308
         2.99e-06       8481.938562
            3e-06       8470.674813
         3.01e-06       8458.229755
         3.02e-06       8459.677544
         3.03e-06       8439.977306
         3.04e-06       8430.266204
         3.05e-06       8412.704474
         3.06e-06       8414.228006
         3.07e-06       8404.333484
         3.08e-06       8408.282285
         3.09e-06       8404.538557
          3.1e-06       8408.441495
         3.11e-06       8411.372841
         3.12e-06       8409.934846
         3.13e-06       8417.878588
         3.14e-06       8414.515177
         3.15e-06       8409.625883
         3.16e-06       8415.645865
         3.17e-06        8413.19607
         3.18e-06       8417.978302
         3.19e-06       8416.983237
          3.2e-06       8419.125824
         3.21e-06       8403.257065
         3.22e-06       8391.546667
         3.23e-06       8381.983061
         3.24e-06       8385.412894
         3.25e-06       8383.118773
         3.26e-06       8383.889717
         3.27e-06       8387.164815
         3.28e-06       8378.618937
         3.29e-06       8366.554725
          3.3e-06       8380.018641
         3.31e-06       8373.243321
         3.32e-06       8364.573201
         3.33e-06       8362.489341
         3.34e-06          8366.205
         3.35e-06       8361.918042
         3.36e-06        8362.23501
         3.37e-06       8356.293838
         3.38e-06       8362.333255
         3.39e-06       8344.566617
          3.4e-06       8344.404721
         3.41e-06       8336.386818
         3.42e-06       8344.594877
         3.43e-06       8355.595067
         3.44e-06       8357.695096
         3.45e-06       8355.165151
         3.46e-06       8349.641609
         3.47e-06       8343.882702
         3.48e-06       8343.265927
         3.49e-06       8343.327839
          3.5e-06       8320.700285
         3.51e-06        8321.70098
         3.52e-06       8319.193299
         3.53e-06        8321.27201
         3.54e-06       8327.822731
         3.55e-06       8315.708291
         3.56e-06       8321.195545
         3.57e-06       8315.302441
         3.58e-06       8307.991842
         3.59e-06       8317.785359
          3.6e-06       8315.772072
         3.61e-06       8312.283417
         3.62e-06        8299.48986
         3.63e-06       8306.114131
         3.64e-06       8301.543801
         3.65e-06       8290.851494
         3.66e-06       8272.515608
         3.67e-06       8279.012017
         3.68e-06       8288.811738
         3.69e-06       8287.899195
          3.7e-06       8287.712128
         3.71e-06       8285.904994
         3.72e-06       8287.437029
         3.73e-06       8276.592481
         3.74e-06       8279.301455
         3.75e-06       8276.148127
         3.76e-06       8276.822169
         3.77e-06        8273.89948
         3.78e-06       8273.807403
         3.79e-06        8267.35126
          3.8e-06       8255.773477
         3.81e-06       8257.974476
         3.82e-06       8246.876076
         3.83e-06       8247.481962
         3.84e-06       8234.803962
         3.85e-06       8243.864227
         3.86e-06       8244.740854
         3.87e-06       8246.281781
         3.88e-06       8247.952135
         3.89e-06       8246.025888
          3.9e-06       8244.752591
         3.91e-06       8226.054673
         3.92e-06       8216.763302
         3.93e-06       8218.055783
         3.94e-06       8218.130466
         3.95e-06       8205.341394
         3.96e-06       8202.443199
         3.97e-06       8199.070406
         3.98e-06       8201.786949
         3.99e-06       8196.766195
            4e-06        8200.34483
         4.01e-06       8194.376662
         4.02e-06       8188.408604
         4.03e-06       8180.015301
         4.04e-06         8189.3995
         4.05e-06       8187.879924
         4.06e-06       8190.366708
         4.07e-06       8200.994353
         4.08e-06       8201.961133
         4.09e-06       8204.949448
          4.1e-06       8191.651684
         4.11e-06       8190.990722
         4.12e-06       8194.294985
         4.13e-06        8196.72773
         4.14e-06       8187.029617
         4.15e-06       8193.139775
         4.16e-06       8185.451925
         4.17e-06       8176.984299
         4.18e-06       8175.880712
         4.19e-06       8169.966552
          4.2e-06       8166.767086
         4.21e-06       8173.980416
         4.22e-06       8164.531857
         4.23e-06       8164.839345
         4.24e-06       8166.341984
         4.25e-06       8160.356683
         4.26e-06       8152.041531
         4.27e-06       8145.821391
         4.28e-06       8145.009301
         4.29e-06       8148.084907
          4.3e-06       8142.663271
         4.31e-06       8150.655335
         4.32e-06       8136.471111
         4.33e-06       8125.410634
         4.34e-06       8122.068325
         4.35e-06       8120.932894
         4.36e-06        8124.78559
         4.37e-06       8130.905239
         4.38e-06        8129.03083
         4.39e-06       8133.034264
          4.4e-06       8129.723581
         4.41e-06       8129.116516
         4.42e-06       8124.834175
         4.43e-06       8125.776668
         4.44e-06       8109.853977
         4.45e-06       8104.751859
         4.46e-06       8103.609321
         4.47e-06       8097.349764
         4.48e-06       8087.592324
         4.49e-06       8092.390021
          4.5e-06       8100.144854
         4.51e-06       8102.399694
         4.52e-06       8097.521193
         4.53e-06       8088.417144
         4.54e-06       8084.311255
         4.55e-06       8087.769418
         4.56e-06       8090.482753
         4.57e-06       8086.398889
         4.58e-06       8088.499222
         4.59e-06       8075.267278
          4.6e-06       8081.617322
         4.61e-06        8078.15688
         4.62e-06       8080.942911
         4.63e-06       8075.908493
         4.64e-06       8067.980375
         4.65e-06       8072.346639
         4.66e-06       8066.012314
         4.67e-06       8074.337853
         4.68e-06       8077.678393
         4.69e-06       8086.079944
          4.7e-06       8075.605674
         4.71e-06       8076.728883
         4.72e-06       8073.517442
         4.73e-06       8060.764832
         4.74e-06       8063.868302
         4.75e-06       8054.334077
         4.76e-06       8046.959233
         4.77e-06       8043.636539
         4.78e-06       8045.195128
         4.79e-06       8047.169248
          4.8e-06       8057.552684
         4.81e-06        8063.35484
         4.82e-06       8061.851975
         4.83e-06       8054.713077
         4.84e-06       8058.581986
         4.85e-06       8047.477415
         4.86e-06       8041.475568
         4.87e-06       8032.304891
         4.88e-06       8029.056171
         4.89e-06       8019.856415
          4.9e-06       8016.189366
         4.91e-06       8016.131522
         4.92e-06       8018.197443
         4.93e-06       8015.807273
         4.94e-06       8011.963447
         4.95e-06       8006.967995
         4.96e-06       8018.588459
         4.97e-06        8023.41284
         4.98e-06       8013.795179
         4.99e-06       8012.583103
            5e-06       8018.985005
         5.01e-06       8020.591978
         5.02e-06       8017.507913
         5.03e-06       8027.121856
         5.04e-06         8016.7028
         5.05e-06       8027.689055
         5.06e-06       8021.678482
         5.07e-06       8025.366296
         5.08e-06        8013.30653
         5.09e-06       7997.067717
          5.1e-06       7984.628237
         5.11e-06       7979.775257
         5.12e-06         7968.4504
         5.13e-06       7974.382745
         5.14e-06       7968.770474
         5.15e-06       7966.364368
         5.16e-06         7971.3356
         5.17e-06       7966.083001
         5.18e-06       7967.741006
         5.19e-06       7970.495308
          5.2e-06       7977.939524
         5.21e-06       7970.825126
         5.22e-06       7981.126318
         5.23e-06       7976.645562
         5.24e-06        7975.65814
         5.25e-06       7971.071449
         5.26e-06       7964.823826
         5.27e-06       7977.356757
         5.28e-06       7977.059881
         5.29e-06       7972.627643
          5.3e-06       7977.686458
         5.31e-06       7985.261918
         5.32e-06       7978.839311
         5.33e-06       7971.335302
         5.34e-06       7969.716986
         5.35e-06       7953.553965
         5.36e-06       7955.362651
         5.37e-06       7952.772213
         5.38e-06       7943.966429
         5.39e-06       7945.571778
          5.4e-06       7952.234611
         5.41e-06        7949.96575
         5.42e-06       7944.951957
         5.43e-06        7947.79705
         5.44e-06       7949.959981
         5.45e-06       7944.983172
         5.46e-06       7953.786532
         5.47e-06       7947.505618
         5.48e-06       7940.719581
         5.49e-06       7932.144031
          5.5e-06       7927.779895
         5.51e-06       7918.496713
         5.52e-06       7921.037417
         5.53e-06       7925.460513
         5.54e-06       7925.048186
         5.55e-06       7924.063736
         5.56e-06        7923.04798
         5.57e-06       7918.465987
         5.58e-06       7909.022177
         5.59e-06       7914.993225
          5.6e-06        7915.67716
         5.61e-06       7915.816386
         5.62e-06       7920.648273
         5.63e-06       7920.935899
         5.64e-06       7925.097647
         5.65e-06       7914.623764
         5.66e-06       7907.416193
         5.67e-06       7906.878885
         5.68e-06        7913.50635
         5.69e-06       7920.433499
          5.7e-06       7915.387862
         5.71e-06       7912.768615
         5.72e-06       7916.538305
         5.73e-06        7912.87956
         5.74e-06       7905.780352
         5.75e-06         7895.4054
         5.76e-06       7901.181588
         5.77e-06       7901.174327
         5.78e-06       7899.921084
         5.79e-06       7900.283951
          5.8e-06       7892.224392
         5.81e-06       7900.972924
         5.82e-06       7891.892028
         5.83e-06       7884.325571
         5.84e-06       7876.045979
         5.85e-06       7880.438405
         5.86e-06       7865.768039
         5.87e-06       7870.331116
         5.88e-06       7875.735878
         5.89e-06        7875.35227
          5.9e-06       7868.799866
         5.91e-06       7877.156463
         5.92e-06       7876.995027
         5.93e-06       7866.140275
         5.94e-06       7870.189107
         5.95e-06       7869.486398
         5.96e-06       7865.130568
         5.97e-06       7863.746497
         5.98e-06       7860.153359
         5.99e-06       7854.073141
            6e-06       7843.152014
         6.01e-06       7846.311989
         6.02e-06       7853.179929
         6.03e-06       7850.159904
         6.04e-06       7857.448081
         6.05e-06         7858.2758
         6.06e-06        7854.41295
         6.07e-06       7859.646141
         6.08e-06       7858.281215
         6.09e-06       7854.773354
          6.1e-06       7857.670897
         6.11e-06       7860.523874
         6.12e-06       7858.702582
         6.13e-06       7847.447426
         6.14e-06       7851.822392
         6.15e-06       7860.427314
         6.16e-06       7860.325884
         6.17e-06       7858.654814
         6.18e-06       7853.590459
         6.19e-06       7847.333916
          6.2e-06       7848.656176
         6.21e-06       7840.760798
         6.22e-06       7845.583502
         6.23e-06       7840.222957
         6.24e-06       7838.093099
         6.25e-06       7848.783368
         6.26e-06       7853.675484
         6.27e-06       7833.820669
         6.28e-06       7831.606236
         6.29e-06       7829.759514
          6.3e-06       7833.470676
         6.31e-06         7833.6345
         6.32e-06       7838.413192
         6.33e-06       7844.200273
         6.34e-06       7841.310531
         6.35e-06       7844.316647
         6.36e-06       7850.555062
         6.37e-06       7842.327587
         6.38e-06       7830.132143
         6.39e-06       7827.772911
          6.4e-06       7818.861339
         6.41e-06       7830.236094
         6.42e-06       7829.388979
         6.43e-06         7828.4948
         6.44e-06        7834.36339
         6.45e-06       7828.796851
         6.46e-06       7825.609036
         6.47e-06       7815.830575
         6.48e-06        7831.73866
         6.49e-06       7830.160279
          6.5e-06       7836.572316
         6.51e-06       7831.616715
         6.52e-06       7821.259507
         6.53e-06       7818.449931
         6.54e-06       7814.298949
         6.55e-06       7796.830793
         6.56e-06       7800.875714
         6.57e-06       7801.917919
         6.58e-06       7807.249177
         6.59e-06       7814.887595
          6.6e-06       7817.474446
         6.61e-06       7818.134763
         6.62e-06       7810.536002
         6.63e-06       7811.240668
         6.64e-06       7816.171833
         6.65e-06       7807.703493
         6.66e-06       7802.452044
         6.67e-06       7807.178701
         6.68e-06        7806.97584
         6.69e-06       7805.229045
          6.7e-06       7805.715526
         6.71e-06        7802.05748
         6.72e-06       7796.892632
         6.73e-06        7799.93166
         6.74e-06       7786.549258
         6.75e-06       7785.263167
         6.76e-06       7782.458772
         6.77e-06        7785.04722
         6.78e-06       7784.604587
         6.79e-06       7786.010443
          6.8e-06       7782.081766
         6.81e-06       7783.346313
         6.82e-06       7782.387196
         6.83e-06       7782.040081
         6.84e-06       7774.594834
         6.85e-06       7770.478112
         6.86e-06       7764.863645
         6.87e-06       7760.156994
         6.88e-06       7757.755151
         6.89e-06        7761.13818
          6.9e-06       7767.897611
         6.91e-06       7771.578735
         6.92e-06       7770.147573
         6.93e-06       7765.080287
         6.94e-06       7764.203362
         6.95e-06       7770.699442
         6.96e-06       7766.902769
         6.97e-06       7768.783812
         6.98e-06       7761.485132
         6.99e-06        7765.13076
            7e-06       7768.825484
         7.01e-06       7751.952961
         7.02e-06        7749.89936
         7.03e-06       7751.996813
         7.04e-06       7751.035759
         7.05e-06       7764.350956
         7.06e-06       7763.205372
         7.07e-06       7760.995049
         7.08e-06       7758.817767
         7.09e-06       7763.382026
          7.1e-06       7771.228299
         7.11e-06       7770.255836
         7.12e-06       7769.734096
         7.13e-06       7763.277833
         7.14e-06       7759.838719
         7.15e-06       7751.359437
         7.16e-06       7757.868788
         7.17e-06       7757.481809
         7.18e-06        7751.67912
         7.19e-06       7757.081429
          7.2e-06       7744.834847
         7.21e-06        7743.89595
         7.22e-06       7737.818905
         7.23e-06       7736.142121
         7.24e-06       7738.641404
         7.25e-06       7736.628708
         7.26e-06       7735.192964
         7.27e-06       7728.827889
         7.28e-06       7737.697968
         7.29e-06       7726.948522
          7.3e-06       7718.928943
         7.31e-06       7722.607203
         7.32e-06       7722.703216
         7.33e-06       7719.917245
         7.34e-06       7713.868725
         7.35e-06        7714.89179
         7.36e-06       7717.947288
         7.37e-06       7722.209334
         7.38e-06       7715.035165
         7.39e-06       7711.413881
          7.4e-06       7705.621433
         7.41e-06       7715.070954
         7.42e-06       7718.279698
         7.43e-06       7721.969648
         7.44e-06       7721.141656
         7.45e-06       7721.017433
         7.46e-06       7723.029951
         7.47e-06       7718.536107
         7.48e-06       7724.026989
         7.49e-06       7722.556479
          7.5e-06       7723.994555
         7.51e-06       7715.531258
         7.52e-06       7720.879816
         7.53e-06       7711.393114
         7.54e-06       7701.178997
         7.55e-06       7700.628907
         7.56e-06       7705.212741
         7.57e-06       7717.402763
         7.58e-06       7712.453249
         7.59e-06       7704.739523
          7.6e-06       7708.490683
         7.61e-06         7723.7268
         7.62e-06       7724.162737
         7.63e-06       7722.638974
         7.64e-06       7720.569429
         7.65e-06       7702.237999
         7.66e-06        7710.71144
         7.67e-06       7714.152468
         7.68e-06       7708.010534
         7.69e-06       7707.687792
          7.7e-06       7697.772182
         7.71e-06       7703.493668
         7.72e-06       7701.304881
         7.73e-06       7710.891447
         7.74e-06       7704.778263
         7.75e-06       7694.701899
         7.76e-06       7698.364687
         7.77e-06       7702.356742
         7.78e-06       7704.528957
         7.79e-06        7710.13854
          7.8e-06        7703.72104
         7.81e-06       7707.785573
         7.82e-06       7704.905392
         7.83e-06       7706.405971
         7.84e-06       7716.456018
         7.85e-06        7713.84571
         7.86e-06       7713.837017
         7.87e-06       7707.664177
         7.88e-06       7698.593231
         7.89e-06       7693.801029
          7.9e-06       7691.830555
         7.91e-06       7687.957862
         7.92e-06       7689.909185
         7.93e-06       7675.175069
         7.94e-06       7683.159647
         7.95e-06        7681.24126
         7.96e-06       7677.328247
         7.97e-06       7666.221632
         7.98e-06       7672.217302
         7.99e-06       7675.698014
            8e-06       7674.525538
         8.01e-06       7678.824278
         8.02e-06       7676.948252
         8.03e-06       7676.045656
         8.04e-06       7670.654668
         8.05e-06       7674.046111
         8.06e-06       7676.464016
         8.07e-06       7666.135805
         8.08e-06       7673.307138
         8.09e-06       7670.915006
          8.1e-06       7679.371971
         8.11e-06       7676.406826
         8.12e-06       7662.253073
         8.13e-06       7658.140227
         8.14e-06       7658.190776
         8.15e-06       7654.270385
         8.16e-06       7660.787751
         8.17e-06        7672.83429
         8.18e-06       7665.615845
         8.19e-06       7664.257609
          8.2e-06       7670.710707
         8.21e-06       7659.976004
         8.22e-06       7657.285501
         8.23e-06       7658.804419
         8.24e-06       7653.751044
         8.25e-06       7653.697602
         8.26e-06       7657.464205
         8.27e-06       7660.487643
         8.28e-06         7645.5983
         8.29e-06       7647.739427
          8.3e-06       7659.329339
         8.31e-06        7650.87469