/*--------------------------------*- C++ -*----------------------------------*\
| =========                 |                                                 |
| \\      /  F ield         | OpenFOAM: The Open Source CFD Toolbox           |
|  \\    /   O peration     | Version:  v1706                                 |
|   \\  /    A nd           | Web:      www.OpenFOAM.com                      |
|    \\/     M anipulation  |                                                 |
\*---------------------------------------------------------------------------*/
FoamFile
{
    version     2.0;
    format      ascii;
    class       volScalarField;
    location    "5";
    object      dsmcSigmaTcRMax;
}
// * * * * * * * * * * * * * * * * * * * * * * * * * * * * * * * * * * * * * //

dimensions      [0 3 -1 0 0 0 0];


internalField   nonuniform List<scalar> 
500
(
1.233015734e-15
1.193269746e-15
1.196335339e-15
1.253028793e-15
1.225788306e-15
1.238673981e-15
1.250304741e-15
1.211638506e-15
1.256135669e-15
1.202469661e-15
1.202303808e-15
1.211627722e-15
1.268729624e-15
1.193111955e-15
1.230234675e-15
1.19984146e-15
1.22266965e-15
1.22304682e-15
1.230984743e-15
1.334819021e-15
1.195865867e-15
1.212791858e-15
1.25882619e-15
1.218421383e-15
1.242397486e-15
1.272367079e-15
1.247518317e-15
1.205313019e-15
1.278312191e-15
1.270538282e-15
1.209672081e-15
1.218554996e-15
1.214843146e-15
1.232304832e-15
1.290508457e-15
1.238746789e-15
1.217273716e-15
1.230271913e-15
1.264426162e-15
1.249850805e-15
1.268284926e-15
1.251173469e-15
1.240006215e-15
1.339761163e-15
1.207152803e-15
1.262709516e-15
1.260394472e-15
1.220301172e-15
1.234432574e-15
1.212253356e-15
1.236082733e-15
1.268721206e-15
1.25649592e-15
1.218417166e-15
1.294586954e-15
1.219146485e-15
1.23336098e-15
1.215376473e-15
1.220915495e-15
1.205150687e-15
1.206487735e-15
1.233121526e-15
1.261739476e-15
1.2070453e-15
1.230051007e-15
1.245422678e-15
1.23812662e-15
1.238204076e-15
1.213143207e-15
1.214348135e-15
1.271134992e-15
1.256173965e-15
1.237241523e-15
1.238675124e-15
1.204505478e-15
1.22882546e-15
1.261891082e-15
1.265536436e-15
1.23302152e-15
1.249716648e-15
1.241274006e-15
1.234323661e-15
1.255841305e-15
1.276008655e-15
1.307634976e-15
1.225019731e-15
1.254371863e-15
1.239508733e-15
1.286380388e-15
1.253768961e-15
1.30470866e-15
1.238350889e-15
1.21818087e-15
1.229178601e-15
1.222197725e-15
1.329108051e-15
1.237541228e-15
1.210897821e-15
1.301942312e-15
1.244103826e-15
1.208181867e-15
1.247025763e-15
1.238153289e-15
1.260851202e-15
1.258671711e-15
1.240532329e-15
1.242563039e-15
1.263100249e-15
1.262926064e-15
1.227468189e-15
1.219414591e-15
1.252010788e-15
1.262487382e-15
1.252154767e-15
1.243981518e-15
1.243975057e-15
1.267895029e-15
1.248033478e-15
1.247896471e-15
1.218363511e-15
1.28579027e-15
1.276053437e-15
1.25804996e-15
1.249577431e-15
1.273992031e-15
1.255919221e-15
1.263121144e-15
1.253749291e-15
1.263465689e-15
1.231554442e-15
1.227205199e-15
1.238731665e-15
1.248627861e-15
1.240197597e-15
1.246819217e-15
1.22903193e-15
1.299596787e-15
1.239744983e-15
1.234506104e-15
1.21954479e-15
1.280406719e-15
1.265062969e-15
1.25246325e-15
1.265806232e-15
1.234747466e-15
1.275573792e-15
1.241029334e-15
1.249317788e-15
1.262705905e-15
1.273347709e-15
1.273546161e-15
1.237680192e-15
1.267647047e-15
1.246116028e-15
1.28152236e-15
1.2436368e-15
1.269644501e-15
1.255198604e-15
1.282897508e-15
1.290110942e-15
1.295422003e-15
1.229855594e-15
1.259387448e-15
1.257150482e-15
1.245030636e-15
1.274530916e-15
1.286463897e-15
1.276751058e-15
1.242255554e-15
1.26419528e-15
1.243277651e-15
1.267876116e-15
1.252121456e-15
1.248285559e-15
1.247177817e-15
1.279208053e-15
1.236311901e-15
1.226824225e-15
1.273574687e-15
1.259267635e-15
1.247392409e-15
1.308744619e-15
1.314141473e-15
1.278761651e-15
1.261253285e-15
1.257579168e-15
1.232417214e-15
1.229681952e-15
1.274472546e-15
1.235633431e-15
1.264232065e-15
1.254128194e-15
1.348368351e-15
1.259399767e-15
1.284996976e-15
1.246442181e-15
1.260882541e-15
1.235096841e-15
1.273021066e-15
1.293696336e-15
1.262704102e-15
1.362288548e-15
1.250921004e-15
1.286552193e-15
1.243663406e-15
1.280094499e-15
1.28288094e-15
1.27313504e-15
1.238943005e-15
1.264118562e-15
1.241357002e-15
1.269982015e-15
1.278054928e-15
1.258415479e-15
1.265312709e-15
1.266440634e-15
1.279902648e-15
1.287927942e-15
1.268198837e-15
1.249799368e-15
1.268808365e-15
1.244648845e-15
1.336422993e-15
1.277114811e-15
1.282686128e-15
1.255896867e-15
1.288753854e-15
1.26524549e-15
1.251698448e-15
1.283259253e-15
1.242638387e-15
1.247598405e-15
1.302117815e-15
1.28588143e-15
1.234342349e-15
1.247409764e-15
1.297112795e-15
1.271604311e-15
1.269648309e-15
1.254778828e-15
1.249024386e-15
1.293869974e-15
1.345329945e-15
1.264175098e-15
1.250011342e-15
1.287271707e-15
1.299681678e-15
1.263289377e-15
1.237410896e-15
1.272824213e-15
1.271000651e-15
1.302875487e-15
1.25796707e-15
1.24462581e-15
1.321068421e-15
1.278675544e-15
1.260638086e-15
1.309871666e-15
1.277037998e-15
1.25452998e-15
1.308300375e-15
1.272869783e-15
1.23730858e-15
1.255088538e-15
1.28047646e-15
1.317068323e-15
1.266941299e-15
1.326476277e-15
1.287526848e-15
1.257377365e-15
1.290868529e-15
1.320732329e-15
1.297597443e-15
1.248101203e-15
1.283977945e-15
1.285915222e-15
1.272455036e-15
1.29973799e-15
1.276386396e-15
1.255513428e-15
1.256269772e-15
1.281239909e-15
1.255002716e-15
1.309390844e-15
1.252671451e-15
1.275183458e-15
1.316472981e-15
1.270798619e-15
1.264235213e-15
1.25956881e-15
1.308071311e-15
1.252740047e-15
1.305552616e-15
1.27224721e-15
1.274817469e-15
1.303214152e-15
1.263064537e-15
1.268706302e-15
1.314927489e-15
1.262342383e-15
1.286046353e-15
1.25363021e-15
1.288786684e-15
1.251589075e-15
1.294515245e-15
1.254891544e-15
1.288491736e-15
1.299724203e-15
1.242607543e-15
1.295260669e-15
1.281176752e-15
1.284018247e-15
1.285516133e-15
1.29720753e-15
1.299577644e-15
1.283228953e-15
1.289640204e-15
1.300272081e-15
1.287932151e-15
1.314601383e-15
1.291058678e-15
1.312727892e-15
1.312171743e-15
1.342451613e-15
1.275509717e-15
1.289690986e-15
1.273810614e-15
1.304439813e-15
1.28617126e-15
1.284546616e-15
1.262031609e-15
1.282457088e-15
1.263474854e-15
1.285283484e-15
1.30990956e-15
1.289321201e-15
1.252290739e-15
1.287838924e-15
1.336554694e-15
1.258763978e-15
1.327103748e-15
1.302399897e-15
1.296429103e-15
1.307927777e-15
1.311806465e-15
1.329417436e-15
1.290602182e-15
1.315405405e-15
1.289236977e-15
1.29806115e-15
1.275850805e-15
1.290666327e-15
1.358576225e-15
1.27345085e-15
1.278652111e-15
1.287366772e-15
1.29652809e-15
1.284314668e-15
1.278416579e-15
1.316948126e-15
1.313521185e-15
1.331590246e-15
1.292136755e-15
1.275135586e-15
1.321551121e-15
1.296870265e-15
1.308005124e-15
1.277736204e-15
1.262184921e-15
1.281326742e-15
1.281415741e-15
1.333214155e-15
1.276321744e-15
1.274868947e-15
1.301556939e-15
1.308219346e-15
1.388368587e-15
1.31779078e-15
1.279963917e-15
1.276010776e-15
1.270558518e-15
1.342377223e-15
1.340946688e-15
1.278263967e-15
1.286249585e-15
1.323438086e-15
1.271351479e-15
1.288921626e-15
1.35109827e-15
1.311459454e-15
1.338958477e-15
1.343818636e-15
1.316541203e-15
1.298665077e-15
1.279760281e-15
1.327355477e-15
1.296609397e-15
1.338171926e-15
1.296820561e-15
1.302517353e-15
1.278960672e-15
1.297009229e-15
1.334829921e-15
1.325961057e-15
1.28949667e-15
1.306023195e-15
1.33325707e-15
1.292604926e-15
1.290495693e-15
1.275399491e-15
1.275053664e-15
1.29274483e-15
1.291071404e-15
1.289679143e-15
1.323191612e-15
1.278412445e-15
1.287865362e-15
1.296264868e-15
1.304073225e-15
1.304620689e-15
1.301096789e-15
1.293855007e-15
1.282329072e-15
1.313375062e-15
1.306421318e-15
1.299640161e-15
1.352626545e-15
1.337333544e-15
1.285513787e-15
1.284298599e-15
1.350663154e-15
1.320137395e-15
1.293988893e-15
1.293124496e-15
1.309824259e-15
1.310959041e-15
1.296341804e-15
1.298107563e-15
1.331783785e-15
1.289837058e-15
1.283833876e-15
1.306955804e-15
1.327433784e-15
1.308850935e-15
1.337239238e-15
1.355472889e-15
1.304051526e-15
1.308981277e-15
1.281199073e-15
1.293535035e-15
1.344217174e-15
1.320041987e-15
1.286872837e-15
1.33666817e-15
1.280957764e-15
1.27426623e-15
1.334036078e-15
1.284859187e-15
1.336124024e-15
1.310857896e-15
1.343292254e-15
1.278587413e-15
1.288000068e-15
1.300386637e-15
1.31180221e-15
1.287531961e-15
1.301365401e-15
1.309214756e-15
1.296313955e-15
1.299815956e-15
1.324735649e-15
1.354170182e-15
1.31221116e-15
1.305261618e-15
1.314010952e-15
1.29722344e-15
1.292937723e-15
1.285074658e-15
1.297485327e-15
1.284089047e-15
1.294267782e-15
1.26774021e-15
1.303962112e-15
1.291088056e-15
1.351715053e-15
1.302171886e-15
1.291699123e-15
1.354417739e-15
1.311978049e-15
1.326637116e-15
1.299376318e-15
1.325263735e-15
1.334453236e-15
1.323196121e-15
1.307159133e-15
1.377980682e-15
1.309920039e-15
1.31705887e-15
1.302949537e-15
1.328315776e-15
)
;

boundaryField
{
    upperWall
    {
        type            zeroGradient;
    }
    lowerWall
    {
        type            zeroGradient;
    }
    periodicX_half0
    {
        type            cyclic;
    }
    periodicX_half1
    {
        type            cyclic;
    }
    frontAndBack
    {
        type            empty;
    }
}


// ************************************************************************* //
