/*--------------------------------*- C++ -*----------------------------------*\
| =========                 |                                                 |
| \\      /  F ield         | OpenFOAM: The Open Source CFD Toolbox           |
|  \\    /   O peration     | Version:  v1706                                 |
|   \\  /    A nd           | Web:      www.OpenFOAM.com                      |
|    \\/     M anipulation  |                                                 |
\*---------------------------------------------------------------------------*/
FoamFile
{
    version     2.0;
    format      ascii;
    class       volScalarField;
    location    "5";
    object      dsmcNMean_mixture;
}
// * * * * * * * * * * * * * * * * * * * * * * * * * * * * * * * * * * * * * //

dimensions      [0 0 0 0 0 0 0];


internalField   nonuniform List<scalar> 
500
(
113.7614025
113.8144325
113.81946
113.77216
113.7666275
113.0123375
113.0618325
113.0525925
113.0504175
113.0849825
112.4456425
112.4307375
112.4413525
112.4544375
112.404215
111.9027675
111.875805
111.8697625
111.9160875
111.8359675
111.338455
111.3396125
111.355525
111.3444775
111.32173
110.83571
110.8450875
110.8376975
110.83169
110.8374475
110.323205
110.311205
110.302265
110.289615
110.333515
109.8118725
109.83889
109.782795
109.8219775
109.8186675
109.31308
109.3375675
109.3415225
109.31155
109.33221
108.8700975
108.8465325
108.8492925
108.8740775
108.8604175
108.4156025
108.3857875
108.3923525
108.4273325
108.4103875
107.96527
107.96609
107.9640025
107.966115
107.944115
107.5119
107.5082625
107.5394025
107.5047375
107.49321
107.073865
107.0749825
107.0464975
107.0860125
107.0477575
106.6334525
106.6282125
106.61148
106.62345
106.62091
106.2116075
106.18198
106.19407
106.21863
106.18276
105.7499575
105.8060475
105.75684
105.782025
105.77649
105.36745
105.3514
105.3793375
105.3306125
105.3581875
105.00861
104.9550675
104.9631725
104.9590275
104.9918725
104.5476825
104.569585
104.535925
104.51155
104.5586725
104.134555
104.1625725
104.1340925
104.122615
104.13243
103.7736275
103.7983925
103.7498125
103.733395
103.7717475
103.35163
103.35754
103.34201
103.321795
103.3670625
102.9522025
102.94867
102.9538
102.9490425
102.9525925
102.5381125
102.5520975
102.55912
102.56178
102.5561025
102.1441175
102.1574075
102.1696375
102.206465
102.1433625
101.7969725
101.7714725
101.817895
101.806435
101.8384875
101.427795
101.4215875
101.44553
101.4394775
101.4620825
101.06876
101.0754675
101.099315
101.04691
101.078625
100.7137675
100.7324675
100.7273275
100.72166
100.73152
100.372895
100.365535
100.3278825
100.3160525
100.345445
100.02581
99.9887725
100.005305
100.000815
99.9753475
99.6690075
99.631625
99.6631275
99.6320375
99.6361075
99.297075
99.2586675
99.280355
99.2483
99.31356
98.9676425
98.9375825
98.9096825
98.91012
98.91783
98.5775125
98.619165
98.56547
98.5739125
98.58699
98.23806
98.230365
98.2615475
98.2214
98.2595875
97.8830625
97.9291075
97.9230725
97.91399
97.9302525
97.5845725
97.5769525
97.592055
97.6185975
97.60492
97.234495
97.2435375
97.2654575
97.2557725
97.2755575
96.8987175
96.92571
96.9178425
96.9149625
96.909845
96.5959525
96.6249425
96.59944
96.62179
96.59848
96.2925325
96.2937925
96.29768
96.3048425
96.270145
95.980975
95.97185
95.97102
95.9725525
95.98287
95.67528
95.6616725
95.659515
95.6695825
95.689635
95.3742775
95.34002
95.37468
95.3614
95.3545
94.9957525
95.03068
95.03481
95.0711875
95.025905
94.7437325
94.721295
94.727275
94.6998175
94.723105
94.4495475
94.4087575
94.4478575
94.440555
94.4358975
94.1559275
94.1202425
94.11747
94.14348
94.130565
93.8132875
93.8120825
93.8355575
93.858085
93.8811125
93.55218
93.5341325
93.50517
93.526315
93.524245
93.2188875
93.20474
93.2249775
93.24026
93.2412
92.9663025
92.9436825
92.95869
92.9575
92.9436425
92.6895875
92.6629475
92.635155
92.67536
92.66692
92.401035
92.3984975
92.3800725
92.3837825
92.34634
92.1366375
92.0902275
92.1170175
92.1080125
92.134955
91.81601
91.8226975
91.851195
91.8339925
91.8157675
91.55108
91.553855
91.5427075
91.57647
91.5377675
91.29567
91.2857625
91.267155
91.27989
91.25506
91.01207
90.9824325
91.029955
91.0012225
90.976945
90.73042
90.7253875
90.7336975
90.73944
90.7534325
90.481245
90.4821575
90.443635
90.4988775
90.474375
90.198075
90.214405
90.194515
90.2059625
90.212515
89.97012
89.92907
89.9380275
89.92561
89.9313675
89.68266
89.6784625
89.6774375
89.686675
89.66742
89.3982075
89.44009
89.4215325
89.3888275
89.40828
89.1404975
89.1695575
89.1583425
89.171825
89.1551625
88.89994
88.92881
88.92252
88.880705
88.923655
88.6812775
88.6505525
88.664285
88.6325525
88.640875
88.4309075
88.42096
88.378425
88.370765
88.3801625
88.154535
88.1713675
88.14449
88.1293625
88.13677
87.915365
87.883865
87.9016325
87.9016375
87.8961125
87.67022
87.67338
87.66834
87.6562475
87.6565575
87.42417
87.41544
87.4448625
87.43146
87.4183025
87.2211575
87.2361425
87.2171925
87.18712
87.209695
86.9619625
86.9922125
86.9532725
86.9549275
86.959225
86.7228575
86.7339275
86.7189725
86.696315
86.717705
86.471765
86.4738525
86.50106
86.47428
86.505915
86.2389425
86.2282075
86.25689
86.23427
86.24353
86.0052625
86.012185
85.9855475
86.014685
86.03081
85.7591175
85.770525
85.76689
85.7723675
85.764455
85.5851825
85.5723675
85.5623475
85.56624
85.56139
85.326625
85.3220125
85.32716
85.32889
85.322345
85.0961375
85.0870875
85.1151425
85.113835
85.0889325
84.879495
84.885915
84.8624475
84.8539125
84.9032725
84.6297225
84.6272825
84.6242325
84.6473
84.642825
84.4348825
84.38759
84.4118125
84.421235
84.4189225
84.2022125
84.1622125
84.2064675
84.23348
84.213915
83.9653025
83.9716025
83.9689075
83.9919275
83.9743425
83.723045
83.749145
83.7745925
83.7422275
83.726265
83.5435725
83.5553175
83.51675
83.5426225
83.5376175
83.3326975
83.31196
83.315855
83.3184275
83.3257775
83.094105
83.1012325
83.0886925
83.1117025
83.078855
82.85706
82.8673825
82.872105
82.857485
82.8489525
82.6252975
82.6176025
82.5798475
82.6432275
82.6163675
82.3588275
82.3635525
82.37979
82.3707025
82.3773625
82.1243425
82.1421425
82.1315675
82.1123
82.12379
81.8557925
81.8354725
81.85449
81.858295
81.85818
81.537865
81.52323
81.5521175
81.5309025
81.524955
)
;

boundaryField
{
    upperWall
    {
        type            calculated;
        value           nonuniform List<scalar> 5(81.537865 81.52323 81.5521175 81.5309025 81.524955);
    }
    lowerWall
    {
        type            calculated;
        value           nonuniform List<scalar> 5(113.7614025 113.8144325 113.81946 113.77216 113.7666275);
    }
    periodicX_half0
    {
        type            cyclic;
    }
    periodicX_half1
    {
        type            cyclic;
    }
    frontAndBack
    {
        type            empty;
    }
}


// ************************************************************************* //
