/*--------------------------------*- C++ -*----------------------------------*\
| =========                 |                                                 |
| \\      /  F ield         | OpenFOAM: The Open Source CFD Toolbox           |
|  \\    /   O peration     | Version:  v1706                                 |
|   \\  /    A nd           | Web:      www.OpenFOAM.com                      |
|    \\/     M anipulation  |                                                 |
\*---------------------------------------------------------------------------*/
FoamFile
{
    version     2.0;
    format      ascii;
    class       volScalarField;
    location    "5";
    object      dsmcSigmaTcRMax;
}
// * * * * * * * * * * * * * * * * * * * * * * * * * * * * * * * * * * * * * //

dimensions      [0 3 -1 0 0 0 0];


internalField   nonuniform List<scalar> 
500
(
1.201289733e-15
1.246299868e-15
1.226990283e-15
1.261536618e-15
1.220527e-15
1.231300013e-15
1.204086522e-15
1.228227821e-15
1.204814261e-15
1.307816222e-15
1.218358119e-15
1.245757542e-15
1.223114302e-15
1.222809359e-15
1.219800973e-15
1.240023249e-15
1.216534892e-15
1.227992982e-15
1.212214901e-15
1.273005745e-15
1.194079847e-15
1.197461661e-15
1.198681835e-15
1.242524548e-15
1.219349116e-15
1.226481214e-15
1.211417435e-15
1.232861209e-15
1.22244691e-15
1.208039485e-15
1.215784018e-15
1.22659362e-15
1.23609875e-15
1.189828881e-15
1.254240069e-15
1.231531066e-15
1.207519248e-15
1.24824142e-15
1.218705166e-15
1.2060465e-15
1.205974998e-15
1.246178591e-15
1.247100435e-15
1.237716077e-15
1.240864819e-15
1.213675955e-15
1.237076172e-15
1.250042551e-15
1.22265047e-15
1.211612173e-15
1.208946291e-15
1.2362315e-15
1.247120867e-15
1.261802503e-15
1.240530174e-15
1.227293236e-15
1.249870955e-15
1.231882607e-15
1.20612561e-15
1.204428865e-15
1.221114547e-15
1.228462284e-15
1.226787994e-15
1.224862808e-15
1.248116206e-15
1.266644253e-15
1.240627757e-15
1.254447779e-15
1.268657748e-15
1.224241972e-15
1.206064331e-15
1.238917604e-15
1.244277069e-15
1.213445084e-15
1.242676804e-15
1.240048675e-15
1.289962531e-15
1.243467041e-15
1.225201724e-15
1.275260219e-15
1.240027564e-15
1.243169395e-15
1.266027829e-15
1.266182838e-15
1.219331081e-15
1.255396781e-15
1.234765334e-15
1.268526957e-15
1.225570007e-15
1.222151173e-15
1.243122229e-15
1.262198325e-15
1.232988919e-15
1.229510154e-15
1.24806529e-15
1.29195182e-15
1.259048637e-15
1.271403675e-15
1.264954503e-15
1.224257639e-15
1.226992931e-15
1.233143742e-15
1.244155501e-15
1.220536707e-15
1.217844904e-15
1.242410596e-15
1.248566342e-15
1.224069415e-15
1.273816724e-15
1.245811816e-15
1.226579361e-15
1.259142868e-15
1.227062066e-15
1.221265452e-15
1.262292688e-15
1.307966665e-15
1.274470352e-15
1.222080092e-15
1.215799738e-15
1.26467682e-15
1.197685406e-15
1.256738886e-15
1.244062537e-15
1.234120827e-15
1.257299848e-15
1.259186437e-15
1.252324383e-15
1.281217231e-15
1.235461461e-15
1.231107592e-15
1.222976247e-15
1.241003645e-15
1.243860188e-15
1.258341656e-15
1.226375331e-15
1.284588235e-15
1.288811084e-15
1.225007224e-15
1.261300695e-15
1.257646025e-15
1.260374078e-15
1.246988662e-15
1.278809244e-15
1.24665715e-15
1.276643044e-15
1.257321072e-15
1.272941469e-15
1.256187824e-15
1.287106778e-15
1.306026698e-15
1.313454576e-15
1.237679203e-15
1.277012489e-15
1.242529536e-15
1.24097863e-15
1.210955468e-15
1.228303313e-15
1.276316577e-15
1.29648343e-15
1.269195299e-15
1.31191739e-15
1.309003175e-15
1.244655467e-15
1.290613799e-15
1.251711161e-15
1.248424288e-15
1.249976543e-15
1.256094698e-15
1.294604326e-15
1.237930602e-15
1.226291211e-15
1.241577788e-15
1.23810905e-15
1.253125269e-15
1.246203201e-15
1.278969864e-15
1.237162802e-15
1.231778332e-15
1.245977678e-15
1.307944297e-15
1.278546395e-15
1.258263378e-15
1.258583164e-15
1.251214133e-15
1.243680334e-15
1.270454939e-15
1.255006123e-15
1.264194718e-15
1.301331637e-15
1.285292988e-15
1.249420219e-15
1.275167576e-15
1.260292259e-15
1.285788701e-15
1.277092587e-15
1.273977298e-15
1.234567428e-15
1.238328427e-15
1.302004849e-15
1.266297664e-15
1.280546364e-15
1.284933104e-15
1.243437754e-15
1.266930103e-15
1.269664815e-15
1.253590591e-15
1.260344088e-15
1.282159983e-15
1.250967565e-15
1.306595554e-15
1.281629777e-15
1.257945585e-15
1.282204151e-15
1.266744245e-15
1.301827986e-15
1.288151855e-15
1.321368145e-15
1.261647039e-15
1.28964246e-15
1.262822266e-15
1.264782615e-15
1.243018884e-15
1.272121621e-15
1.262017351e-15
1.251610243e-15
1.26052448e-15
1.278249268e-15
1.252371313e-15
1.292161412e-15
1.237249017e-15
1.250904092e-15
1.259193652e-15
1.248065258e-15
1.268288783e-15
1.267861057e-15
1.300487157e-15
1.292793741e-15
1.265022737e-15
1.279058286e-15
1.407407823e-15
1.288334958e-15
1.27921965e-15
1.270080421e-15
1.270237729e-15
1.236713584e-15
1.257937107e-15
1.286270561e-15
1.267313687e-15
1.335588441e-15
1.276927912e-15
1.24774271e-15
1.288877064e-15
1.252351904e-15
1.26809294e-15
1.280566067e-15
1.284641785e-15
1.282818085e-15
1.275424622e-15
1.274755931e-15
1.2984715e-15
1.298132589e-15
1.303927831e-15
1.306625873e-15
1.299088795e-15
1.324713505e-15
1.294718123e-15
1.302933737e-15
1.254831737e-15
1.305785228e-15
1.317288938e-15
1.304084519e-15
1.288132592e-15
1.307356244e-15
1.281668671e-15
1.234625858e-15
1.279991506e-15
1.316832208e-15
1.277924085e-15
1.256482865e-15
1.297417193e-15
1.28558975e-15
1.268744522e-15
1.295618998e-15
1.275584432e-15
1.274555308e-15
1.329712944e-15
1.267420608e-15
1.272987312e-15
1.279480895e-15
1.245750687e-15
1.289735358e-15
1.324396312e-15
1.267575507e-15
1.308528929e-15
1.303784117e-15
1.301958167e-15
1.298737296e-15
1.289072491e-15
1.304809936e-15
1.283855723e-15
1.2877827e-15
1.321304432e-15
1.306322131e-15
1.307431715e-15
1.25040446e-15
1.251327207e-15
1.287928351e-15
1.291093693e-15
1.291965592e-15
1.314008435e-15
1.287138398e-15
1.34488344e-15
1.274370034e-15
1.247614025e-15
1.292041339e-15
1.290730511e-15
1.25326226e-15
1.284123531e-15
1.304742384e-15
1.284152497e-15
1.312950904e-15
1.335780447e-15
1.305954524e-15
1.265547271e-15
1.270850281e-15
1.281469318e-15
1.313335969e-15
1.354698493e-15
1.32026258e-15
1.24321447e-15
1.310811223e-15
1.285047988e-15
1.331659696e-15
1.29861046e-15
1.280684368e-15
1.316993527e-15
1.249715406e-15
1.266144689e-15
1.277589862e-15
1.266881162e-15
1.273738565e-15
1.263737139e-15
1.294691049e-15
1.301335247e-15
1.285616182e-15
1.286988371e-15
1.248355659e-15
1.278460866e-15
1.311439963e-15
1.306059932e-15
1.285771246e-15
1.263433758e-15
1.278011111e-15
1.298350414e-15
1.294319116e-15
1.259393079e-15
1.358739654e-15
1.286243426e-15
1.278987583e-15
1.368036157e-15
1.312855458e-15
1.327277839e-15
1.324196385e-15
1.306845554e-15
1.288459806e-15
1.28557035e-15
1.333016264e-15
1.281681485e-15
1.266130239e-15
1.30211189e-15
1.272977704e-15
1.309358478e-15
1.269537715e-15
1.279326407e-15
1.305924672e-15
1.291088902e-15
1.283423782e-15
1.283408041e-15
1.282437339e-15
1.313641548e-15
1.313433456e-15
1.320146939e-15
1.287026001e-15
1.274114174e-15
1.367277557e-15
1.280568747e-15
1.299796264e-15
1.316526131e-15
1.302460164e-15
1.324240314e-15
1.318416692e-15
1.292431686e-15
1.312255044e-15
1.297797216e-15
1.273469308e-15
1.332787698e-15
1.266552432e-15
1.276575399e-15
1.309529906e-15
1.31672855e-15
1.306993297e-15
1.309800484e-15
1.296570118e-15
1.293449047e-15
1.27978508e-15
1.329158203e-15
1.275950017e-15
1.305821021e-15
1.369337305e-15
1.310341509e-15
1.28136985e-15
1.341917732e-15
1.302502991e-15
1.29589368e-15
1.287958306e-15
1.279631777e-15
1.291273907e-15
1.288668427e-15
1.297976238e-15
1.316555803e-15
1.318517166e-15
1.272237796e-15
1.274974414e-15
1.331552576e-15
1.3404346e-15
1.329639686e-15
1.281700196e-15
1.313079974e-15
1.300148627e-15
1.284873715e-15
1.344775205e-15
1.313955715e-15
1.279381345e-15
1.269832787e-15
1.327807531e-15
1.29906255e-15
1.300165366e-15
1.321194753e-15
1.340615111e-15
1.289113602e-15
1.297830828e-15
1.322112745e-15
1.322272465e-15
1.303533256e-15
1.308644286e-15
1.333805516e-15
1.335553653e-15
1.309728894e-15
1.318869738e-15
1.295745179e-15
1.286175055e-15
1.348077956e-15
1.30689301e-15
1.304790285e-15
1.346647503e-15
1.297004685e-15
1.306148026e-15
1.326145047e-15
1.304852154e-15
1.297117162e-15
1.277049307e-15
1.289243399e-15
1.323723329e-15
1.278496622e-15
1.313457676e-15
1.325631829e-15
1.272664351e-15
1.310817046e-15
1.350172615e-15
1.414958869e-15
1.337944608e-15
1.326459658e-15
1.322883616e-15
1.330822216e-15
1.294892679e-15
1.320943254e-15
1.273941395e-15
1.318814807e-15
1.300150645e-15
1.299826873e-15
1.293184059e-15
1.279757597e-15
1.311353258e-15
1.316126881e-15
1.324563672e-15
1.279952417e-15
1.319183667e-15
1.298335481e-15
1.290188546e-15
1.320120277e-15
1.328159901e-15
1.273074239e-15
1.290325963e-15
1.339502402e-15
1.276650096e-15
1.371075013e-15
1.312925688e-15
1.29934904e-15
1.317503705e-15
1.304682725e-15
)
;

boundaryField
{
    upperWall
    {
        type            zeroGradient;
    }
    lowerWall
    {
        type            zeroGradient;
    }
    periodicX_half0
    {
        type            cyclic;
    }
    periodicX_half1
    {
        type            cyclic;
    }
    frontAndBack
    {
        type            empty;
    }
}


// ************************************************************************* //
