/*--------------------------------*- C++ -*----------------------------------*\
| =========                 |                                                 |
| \\      /  F ield         | OpenFOAM: The Open Source CFD Toolbox           |
|  \\    /   O peration     | Version:  v1706                                 |
|   \\  /    A nd           | Web:      www.OpenFOAM.com                      |
|    \\/     M anipulation  |                                                 |
\*---------------------------------------------------------------------------*/
FoamFile
{
    version     2.0;
    format      ascii;
    class       volScalarField;
    location    "5";
    object      dsmcNMean_N2;
}
// * * * * * * * * * * * * * * * * * * * * * * * * * * * * * * * * * * * * * //

dimensions      [0 0 0 0 0 0 0];


internalField   nonuniform List<scalar> 
500
(
89.7045325
89.69641
89.7302275
89.746085
89.6902175
89.150805
89.12397
89.1099425
89.1466225
89.1430125
88.6649025
88.640675
88.651535
88.6549075
88.6732975
88.2121475
88.2309725
88.21678
88.21438
88.2024
87.7984725
87.79859
87.781425
87.7824
87.7912575
87.368535
87.372445
87.3782325
87.36652
87.3692175
86.9762
86.93947
86.9557075
86.9694225
86.9771475
86.608245
86.5862275
86.5671075
86.57701
86.5708
86.2191
86.207375
86.2154425
86.1972675
86.2177825
85.83192
85.860175
85.82362
85.8352725
85.8700075
85.507585
85.4767925
85.480755
85.497125
85.4939775
85.105395
85.1498825
85.1288575
85.105635
85.136405
84.7627625
84.7798825
84.7846125
84.7724125
84.77061
84.4477375
84.435185
84.43022
84.446645
84.43012
84.0958325
84.1152125
84.1117475
84.107665
84.1020975
83.7375825
83.775815
83.7838575
83.7617875
83.7459875
83.4219525
83.439135
83.4139625
83.4264625
83.43595
83.11277
83.0817025
83.1045625
83.0998775
83.105755
82.7771
82.7618225
82.76081
82.753305
82.73541
82.4553775
82.44307
82.4586225
82.4561
82.4309425
82.11088
82.0889975
82.1167475
82.1099175
82.1372925
81.80923
81.8129175
81.82481
81.7975325
81.8111275
81.4816675
81.5092675
81.5066525
81.5020475
81.4439925
81.17176
81.1877825
81.1698625
81.199115
81.2108175
80.91515
80.8677875
80.8908925
80.8650225
80.9145875
80.57908
80.6032475
80.6030575
80.6151925
80.589635
80.260805
80.28114
80.2976675
80.293615
80.27807
79.97911
80.0176175
80.033515
80.0390075
79.98393
79.7166525
79.70496
79.7108925
79.742175
79.7051575
79.4366625
79.4242175
79.40926
79.4086525
79.415355
79.1327875
79.122255
79.123155
79.105715
79.097415
78.8299975
78.812305
78.8317225
78.83348
78.8320925
78.5747325
78.5363325
78.58464
78.5545875
78.568185
78.2985875
78.2666075
78.266905
78.3023425
78.2772
78.0239925
78.00407
78.0225325
78.02489
78.0372625
77.7710575
77.76258
77.7594825
77.74924
77.7599925
77.5056625
77.4788175
77.4924525
77.4871125
77.4664775
77.210915
77.236755
77.21661
77.2139975
77.1952475
76.9608575
76.9641125
76.982365
76.95744
76.92925
76.710385
76.703425
76.71238
76.708215
76.6737875
76.4338725
76.4475325
76.4834375
76.464035
76.4346075
76.2128225
76.228965
76.2243025
76.2072925
76.20376
75.9393825
75.96771
75.9538275
75.92202
75.9127975
75.7017225
75.7129275
75.716815
75.70443
75.706325
75.4336625
75.448105
75.44087
75.436025
75.4303625
75.2106525
75.237515
75.2300675
75.2058625
75.2155775
74.95357
74.987515
74.9866325
74.9980125
74.9822025
74.7389875
74.750285
74.7660725
74.7602475
74.726805
74.50797
74.5137075
74.5388225
74.5422475
74.52029
74.26345
74.265525
74.27164
74.28753
74.26918
74.0328175
74.0140775
74.0229
74.027545
74.007585
73.80325
73.79338
73.785905
73.8022525
73.7936075
73.586385
73.5529875
73.56484
73.5812925
73.559195
73.3336375
73.3241875
73.3177925
73.3355225
73.3432075
73.1126325
73.092975
73.1092825
73.131835
73.121775
72.9042925
72.902185
72.896255
72.8921375
72.900355
72.672275
72.657435
72.654645
72.671265
72.6469575
72.4849725
72.47246
72.4788075
72.4592725
72.47358
72.2594825
72.269235
72.2597975
72.2547375
72.245155
72.03802
72.03006
72.009535
72.02383
72.0380975
71.8257375
71.8526575
71.79499
71.824875
71.8188425
71.63586
71.62058
71.629295
71.6151175
71.6253075
71.4333125
71.4044275
71.4128275
71.401045
71.40751
71.2007075
71.195725
71.1830375
71.230245
71.16922
70.9984
70.99525
70.976455
70.998715
70.966975
70.7914825
70.783125
70.7894775
70.76369
70.7720975
70.5970325
70.554745
70.576995
70.5928275
70.56912
70.3594375
70.338915
70.4079125
70.37386
70.3931125
70.185855
70.1774075
70.16983
70.174925
70.204285
69.978055
69.961455
69.94581
69.978235
69.997815
69.8224975
69.77971
69.7827975
69.79294
69.7910975
69.624945
69.62478
69.6169075
69.5822125
69.59877
69.4175675
69.4065175
69.4184875
69.42705
69.400815
69.23519
69.2268975
69.2306625
69.193485
69.1887275
69.020375
69.016825
69.01847
69.0426975
69.00559
68.84026
68.8264925
68.8137575
68.82486
68.81747
68.645125
68.6468225
68.62328
68.626675
68.67761
68.45042
68.43749
68.4487425
68.4637725
68.4545025
68.23504
68.2530475
68.2459175
68.26256
68.258575
68.083255
68.0883225
68.0710425
68.0790825
68.088545
67.9082725
67.909835
67.90617
67.9365225
67.8908325
67.71057
67.732125
67.7203825
67.7171075
67.70523
67.5266275
67.5218825
67.536375
67.52983
67.512275
67.3504625
67.353335
67.33417
67.33577
67.37284
67.1711875
67.1834125
67.1691725
67.1865775
67.17388
66.9788225
67.00814
67.00593
67.01246
66.9736475
66.833925
66.7869925
66.8081275
66.79018
66.8073325
66.640545
66.6423575
66.61036
66.6388475
66.6364025
66.44713
66.4297825
66.4851875
66.46563
66.4279275
66.290285
66.2983525
66.256895
66.2741725
66.274635
66.10194
66.10087
66.10111
66.0928325
66.10933
65.93276
65.943265
65.9415025
65.935985
65.9256325
65.7527625
65.75804
65.7366725
65.753845
65.76482
65.56734
65.54003
65.5800075
65.5474575
65.55689
65.37732
65.3975175
65.400145
65.4081275
65.37025
65.20804
65.2155
65.2066725
65.1964025
65.20374
65.001815
65.0156075
65.00516
65.0073075
65.0294175
64.789515
64.80007
64.814695
64.807465
64.8030175
64.59026
64.58504
64.5977475
64.600055
64.6022325
64.3472525
64.3446425
64.35547
64.3512775
64.35121
)
;

boundaryField
{
    upperWall
    {
        type            calculated;
        value           nonuniform List<scalar> 5(64.3472525 64.3446425 64.35547 64.3512775 64.35121);
    }
    lowerWall
    {
        type            calculated;
        value           nonuniform List<scalar> 5(89.7045325 89.69641 89.7302275 89.746085 89.6902175);
    }
    periodicX_half0
    {
        type            cyclic;
    }
    periodicX_half1
    {
        type            cyclic;
    }
    frontAndBack
    {
        type            empty;
    }
}


// ************************************************************************* //
