/*--------------------------------*- C++ -*----------------------------------*\
| =========                 |                                                 |
| \\      /  F ield         | OpenFOAM: The Open Source CFD Toolbox           |
|  \\    /   O peration     | Version:  v1706                                 |
|   \\  /    A nd           | Web:      www.OpenFOAM.com                      |
|    \\/     M anipulation  |                                                 |
\*---------------------------------------------------------------------------*/
FoamFile
{
    version     2.0;
    format      ascii;
    class       volVectorField;
    location    "5";
    object      fD_mixture;
}
// * * * * * * * * * * * * * * * * * * * * * * * * * * * * * * * * * * * * * //

dimensions      [1 -1 -2 0 0 0 0];


internalField   uniform (0 0 0);

boundaryField
{
    upperWall
    {
        type            calculated;
        value           nonuniform List<vector> 5((-0.02317511617 1.405212221 0.0002207221384) (-0.02313289212 1.405995958 0.0001890229225) (-0.02345215972 1.405565015 -0.0003630453342) (-0.02331729621 1.405751986 9.900119068e-06) (-0.02343938953 1.405201618 -3.904973529e-05));
    }
    lowerWall
    {
        type            calculated;
        value           nonuniform List<vector> 5((0.02311590685 -1.405820303 -6.699601856e-05) (0.02333220122 -1.404658325 -0.000130980679) (0.02345625481 -1.405894495 0.0001630023159) (0.02329126572 -1.405758261 -3.314186064e-05) (0.02332826067 -1.405567808 7.038654216e-05));
    }
    periodicX_half0
    {
        type            cyclic;
    }
    periodicX_half1
    {
        type            cyclic;
    }
    frontAndBack
    {
        type            empty;
    }
}


// ************************************************************************* //
