/*--------------------------------*- C++ -*----------------------------------*\
| =========                 |                                                 |
| \\      /  F ield         | OpenFOAM: The Open Source CFD Toolbox           |
|  \\    /   O peration     | Version:  v1706                                 |
|   \\  /    A nd           | Web:      www.OpenFOAM.com                      |
|    \\/     M anipulation  |                                                 |
\*---------------------------------------------------------------------------*/
FoamFile
{
    version     2.0;
    format      ascii;
    class       volVectorField;
    location    "5";
    object      fD_mixture;
}
// * * * * * * * * * * * * * * * * * * * * * * * * * * * * * * * * * * * * * //

dimensions      [1 -1 -2 0 0 0 0];


internalField   uniform (0 0 0);

boundaryField
{
    upperWall
    {
        type            calculated;
        value           nonuniform List<vector> 5((-0.02318186084 1.405113504 6.143914587e-05) (-0.02311820468 1.405425253 0.000130503153) (-0.0235649316 1.40578369 -0.0001261137659) (-0.02329907921 1.406276844 -0.0003572559486) (-0.02383811854 1.404802915 0.0002067674961));
    }
    lowerWall
    {
        type            calculated;
        value           nonuniform List<vector> 5((0.02327747433 -1.405859665 -0.0001824011771) (0.02297664111 -1.40551818 0.0001099740823) (0.02373855292 -1.405385779 1.953781379e-06) (0.02323334715 -1.405307672 -0.0002211113396) (0.02378772922 -1.405331464 0.0003910452018));
    }
    periodicX_half0
    {
        type            cyclic;
    }
    periodicX_half1
    {
        type            cyclic;
    }
    frontAndBack
    {
        type            empty;
    }
}


// ************************************************************************* //
