/*--------------------------------*- C++ -*----------------------------------*\
| =========                 |                                                 |
| \\      /  F ield         | OpenFOAM: The Open Source CFD Toolbox           |
|  \\    /   O peration     | Version:  v1706                                 |
|   \\  /    A nd           | Web:      www.OpenFOAM.com                      |
|    \\/     M anipulation  |                                                 |
\*---------------------------------------------------------------------------*/
FoamFile
{
    version     2.0;
    format      ascii;
    class       volVectorField;
    location    "5";
    object      fD_N2;
}
// * * * * * * * * * * * * * * * * * * * * * * * * * * * * * * * * * * * * * //

dimensions      [1 -1 -2 0 0 0 0];


internalField   uniform (0 0 0);

boundaryField
{
    upperWall
    {
        type            calculated;
        value           nonuniform List<vector> 5((-0.01793243493 1.109394732 0.000103951865) (-0.01789312713 1.110153606 6.186682626e-05) (-0.0181286513 1.109772559 -0.0001209502612) (-0.01812800599 1.109837591 8.199252222e-05) (-0.01824283483 1.109618389 5.629058045e-05));
    }
    lowerWall
    {
        type            calculated;
        value           nonuniform List<vector> 5((0.01791407953 -1.10824043 -8.830560787e-05) (0.01793635731 -1.107164855 -0.0001067650454) (0.01815966192 -1.108221342 9.839973711e-05) (0.0180372167 -1.108199349 -6.368857324e-06) (0.01788440125 -1.10809926 -5.209160365e-07));
    }
    periodicX_half0
    {
        type            cyclic;
    }
    periodicX_half1
    {
        type            cyclic;
    }
    frontAndBack
    {
        type            empty;
    }
}


// ************************************************************************* //
