/*--------------------------------*- C++ -*----------------------------------*\
| =========                 |                                                 |
| \\      /  F ield         | OpenFOAM: The Open Source CFD Toolbox           |
|  \\    /   O peration     | Version:  v1706                                 |
|   \\  /    A nd           | Web:      www.OpenFOAM.com                      |
|    \\/     M anipulation  |                                                 |
\*---------------------------------------------------------------------------*/
FoamFile
{
    version     2.0;
    format      ascii;
    class       volVectorField;
    location    "5";
    object      fD_N2;
}
// * * * * * * * * * * * * * * * * * * * * * * * * * * * * * * * * * * * * * //

dimensions      [1 -1 -2 0 0 0 0];


internalField   uniform (0 0 0);

boundaryField
{
    upperWall
    {
        type            calculated;
        value           nonuniform List<vector> 5((-0.01791808407 1.111478203 0.000100557011) (-0.01780907883 1.111756024 0.0002653275671) (-0.01823733138 1.112223864 -9.407506396e-05) (-0.01801500641 1.112246833 -0.0001455445272) (-0.018481793 1.111218389 0.0002077441459));
    }
    lowerWall
    {
        type            calculated;
        value           nonuniform List<vector> 5((0.01802336506 -1.109871887 -0.000269168357) (0.01760934163 -1.109597561 0.0001529685358) (0.01857616494 -1.109695231 5.144005724e-06) (0.01797088226 -1.109674016 -5.335328305e-05) (0.01837552554 -1.109719994 0.0002172424296));
    }
    periodicX_half0
    {
        type            cyclic;
    }
    periodicX_half1
    {
        type            cyclic;
    }
    frontAndBack
    {
        type            empty;
    }
}


// ************************************************************************* //
