/*--------------------------------*- C++ -*----------------------------------*\
| =========                 |                                                 |
| \\      /  F ield         | OpenFOAM: The Open Source CFD Toolbox           |
|  \\    /   O peration     | Version:  v1706                                 |
|   \\  /    A nd           | Web:      www.OpenFOAM.com                      |
|    \\/     M anipulation  |                                                 |
\*---------------------------------------------------------------------------*/
FoamFile
{
    version     2.0;
    format      ascii;
    class       volVectorField;
    location    "5";
    object      fD_O2;
}
// * * * * * * * * * * * * * * * * * * * * * * * * * * * * * * * * * * * * * //

dimensions      [1 -1 -2 0 0 0 0];


internalField   uniform (0 0 0);

boundaryField
{
    upperWall
    {
        type            calculated;
        value           nonuniform List<vector> 5((-0.005263776772 0.2936353016 -3.911786511e-05) (-0.005309125847 0.293669229 -0.000134824414) (-0.005327600218 0.2935598268 -3.203870198e-05) (-0.005284072797 0.294030011 -0.0002117114214) (-0.005356325542 0.2935845258 -9.766498075e-07));
    }
    lowerWall
    {
        type            calculated;
        value           nonuniform List<vector> 5((0.005254109269 -0.2959877781 8.676717985e-05) (0.005367299476 -0.2959206185 -4.29944535e-05) (0.00516238798 -0.2956905482 -3.190224345e-06) (0.005262464891 -0.2956336555 -0.0001677580566) (0.00541220368 -0.2956114705 0.0001738027722));
    }
    periodicX_half0
    {
        type            cyclic;
    }
    periodicX_half1
    {
        type            cyclic;
    }
    frontAndBack
    {
        type            empty;
    }
}


// ************************************************************************* //
