/*--------------------------------*- C++ -*----------------------------------*\
| =========                 |                                                 |
| \\      /  F ield         | OpenFOAM: The Open Source CFD Toolbox           |
|  \\    /   O peration     | Version:  v1706                                 |
|   \\  /    A nd           | Web:      www.OpenFOAM.com                      |
|    \\/     M anipulation  |                                                 |
\*---------------------------------------------------------------------------*/
FoamFile
{
    version     2.0;
    format      ascii;
    class       volVectorField;
    location    "5";
    object      fD_O2;
}
// * * * * * * * * * * * * * * * * * * * * * * * * * * * * * * * * * * * * * //

dimensions      [1 -1 -2 0 0 0 0];


internalField   uniform (0 0 0);

boundaryField
{
    upperWall
    {
        type            calculated;
        value           nonuniform List<vector> 5((-0.005242681239 0.2958174894 0.0001167702734) (-0.005239764986 0.2958423519 0.0001271560963) (-0.005323508424 0.2957924557 -0.000242095073) (-0.005189290225 0.2959143958 -7.209240315e-05) (-0.005196554701 0.2955832296 -9.534031574e-05));
    }
    lowerWall
    {
        type            calculated;
        value           nonuniform List<vector> 5((0.005201827319 -0.2975798732 2.130958931e-05) (0.005395843911 -0.2974934701 -2.421563356e-05) (0.005296592886 -0.2976731528 6.460257879e-05) (0.00525404902 -0.2975589118 -2.677300331e-05) (0.005443859415 -0.297468548 7.09074582e-05));
    }
    periodicX_half0
    {
        type            cyclic;
    }
    periodicX_half1
    {
        type            cyclic;
    }
    frontAndBack
    {
        type            empty;
    }
}


// ************************************************************************* //
