/*--------------------------------*- C++ -*----------------------------------*\
| =========                 |                                                 |
| \\      /  F ield         | OpenFOAM: The Open Source CFD Toolbox           |
|  \\    /   O peration     | Version:  v1706                                 |
|   \\  /    A nd           | Web:      www.OpenFOAM.com                      |
|    \\/     M anipulation  |                                                 |
\*---------------------------------------------------------------------------*/
FoamFile
{
    version     2.0;
    format      ascii;
    class       volScalarField;
    location    "5";
    object      Ma_mixture;
}
// * * * * * * * * * * * * * * * * * * * * * * * * * * * * * * * * * * * * * //

dimensions      [0 0 0 0 0 0 0];


internalField   nonuniform List<scalar> 
500
(
0.01684358013
0.01681730708
0.01697133305
0.01702022491
0.01678871259
0.02127775231
0.02163753694
0.02140342766
0.02155369231
0.02151082355
0.02545744899
0.0254816531
0.02532817302
0.02528398977
0.02523498694
0.02881077734
0.02902465541
0.02897739366
0.02889782645
0.02899202411
0.03248235592
0.03233978798
0.03242334274
0.03231747565
0.03234658112
0.0356873755
0.03575675785
0.0357024918
0.03572419991
0.0356235839
0.03876848802
0.03890764849
0.03895284614
0.03888287962
0.03910107796
0.04178753204
0.04206699115
0.04176345492
0.0417772155
0.04177604192
0.04465835468
0.04494795444
0.04479548878
0.04491138346
0.04503445773
0.04800285687
0.0479816254
0.04770819377
0.04792095304
0.04804598174
0.05076699688
0.05081682054
0.05068540103
0.05080640081
0.05086065941
0.05376658544
0.05366277569
0.05370518859
0.0537409117
0.05363756302
0.05645881061
0.05675709608
0.05644329871
0.05665189037
0.05665472654
0.05970691872
0.05944544245
0.05938534384
0.05942656496
0.05951951933
0.06213693683
0.06240173149
0.06250174278
0.0623276326
0.06241314424
0.06549136949
0.06553394084
0.06555704766
0.06541160407
0.06520999831
0.06829127482
0.06825377689
0.06819223518
0.06842840642
0.06821322586
0.07107006202
0.07097352153
0.07103102408
0.07077689955
0.0709071336
0.07373424849
0.07353714993
0.07368513344
0.07382301648
0.07376799661
0.07674994453
0.07665475983
0.07688450704
0.07661521796
0.07659808334
0.07911855734
0.07927577504
0.07954100754
0.07929136064
0.0792302321
0.08247861558
0.08218979467
0.08227168054
0.08225114042
0.08210773499
0.0851271729
0.08489601239
0.08503540359
0.08498270322
0.08496896003
0.0878272211
0.08772886501
0.08762686353
0.08773077337
0.08775914499
0.09041419627
0.09043545302
0.09023227281
0.09049290631
0.09038398676
0.092997768
0.09298033974
0.0931260741
0.09276309193
0.09295775781
0.09576546667
0.09551445748
0.09558844895
0.09587713874
0.0956657769
0.09858183547
0.09870791914
0.0985662433
0.09845487631
0.09838387239
0.1011279393
0.1015600224
0.1010571317
0.1014022369
0.1013084661
0.1039800561
0.103973709
0.1038889151
0.1039929078
0.1037759338
0.1062726032
0.1059891744
0.106231267
0.1062811559
0.1063064939
0.1087991925
0.1089423322
0.1088432746
0.1090052966
0.1091793785
0.1116978831
0.1116329791
0.1115692357
0.1113762048
0.1113717389
0.114032146
0.1140792295
0.1139379278
0.1141313854
0.1142196051
0.1167309822
0.1165657549
0.1163689298
0.1165693761
0.1164811747
0.1191038265
0.1193804032
0.1191588399
0.1192032242
0.1191593508
0.1214552847
0.1214857339
0.1215545063
0.1216526776
0.1214289476
0.1240989686
0.1243304698
0.1240551665
0.1241903426
0.1241883353
0.1267946117
0.1267569221
0.1266414534
0.1266950236
0.1269067435
0.1289854552
0.12892712
0.1291494313
0.1291615471
0.1291004868
0.1313378674
0.1313343574
0.1311751416
0.1310875705
0.1312023084
0.1337453356
0.1338015726
0.1339151641
0.1336126426
0.1338536384
0.1360857558
0.1360507297
0.1358670222
0.1363273043
0.1363807876
0.1385438481
0.1387017031
0.1386775965
0.1386936805
0.1385967408
0.1409462808
0.1411435307
0.1410164184
0.141202536
0.1409860704
0.1435067783
0.1437385999
0.143419978
0.1434841894
0.1438017162
0.1458602194
0.1460173476
0.1459225936
0.1459440337
0.1457722096
0.148085066
0.1482864833
0.1481383616
0.1481101353
0.1481318904
0.1506396476
0.1503032291
0.1505435743
0.150798155
0.1504413843
0.1528687922
0.1527208674
0.1528910154
0.1528078106
0.1527408155
0.1550147971
0.1551612841
0.1550373726
0.1550512414
0.155294495
0.1574463277
0.1575019329
0.1573827198
0.1574418381
0.1574494437
0.1596534009
0.1597123198
0.1595929072
0.1597501659
0.1593168928
0.1620619864
0.1616279853
0.1620657386
0.1619326313
0.1620913431
0.1642769582
0.1642433887
0.164194124
0.1640462887
0.1643985852
0.1664870538
0.1664982789
0.1664822035
0.1664416092
0.1665687773
0.1688992792
0.1689032213
0.16867123
0.168806798
0.1683850131
0.1709458167
0.1707826031
0.1710179555
0.170887578
0.1711484028
0.1729648472
0.173194974
0.1732499046
0.173171789
0.1733568536
0.1753906118
0.1753641562
0.175513287
0.1754133142
0.1753271482
0.1773323377
0.1774529153
0.1775889298
0.1777411873
0.1775584228
0.1799030237
0.1797052392
0.1795766118
0.1797436317
0.1797572129
0.181994273
0.1818451147
0.1818709816
0.181562512
0.1819469001
0.1838699573
0.1842496033
0.1840704855
0.1841239552
0.1840311441
0.1862553967
0.1862617737
0.1862366282
0.1861408326
0.1862749317
0.1882109667
0.1883177536
0.1882384871
0.188256044
0.1882619197
0.1904849399
0.1907373233
0.1904752567
0.1906401963
0.1905591049
0.1923917836
0.1927751828
0.1924305629
0.1925017161
0.1925599203
0.1947555343
0.1946570039
0.1946451433
0.1947190116
0.1946027768
0.1968531425
0.1967868042
0.1966334538
0.1969336389
0.196827889
0.1991261312
0.1986979488
0.1991939613
0.1988915373
0.1992070312
0.2010047976
0.201192039
0.2011486832
0.2011279077
0.2011855183
0.2031446907
0.2033022881
0.2033467718
0.203168236
0.2030058915
0.2053273073
0.2053076936
0.205310742
0.2050481566
0.2053125444
0.2070251023
0.2072582201
0.207169772
0.2072427221
0.2073133054
0.2093187233
0.2092582266
0.2093816333
0.2092120921
0.209447163
0.2113371053
0.2111529318
0.2114191752
0.2113911192
0.2113601693
0.2135479992
0.2136207774
0.2133100501
0.2133879477
0.2133488859
0.2152749045
0.2153954862
0.2156043463
0.2152961676
0.2153709097
0.2177056728
0.2178138023
0.2174952374
0.2176686427
0.2176407721
0.2196324285
0.2196244829
0.2196239526
0.2195346011
0.2197810334
0.2216605274
0.2215078237
0.2218147652
0.2215965892
0.221612628
0.2237192376
0.2234985852
0.223653973
0.2237149101
0.2236419373
0.2259001784
0.2257148978
0.2257551582
0.2255610086
0.2257958358
0.2279043857
0.2277177614
0.2279157917
0.227726335
0.2277541554
0.2295893459
0.2297317984
0.2296875616
0.2295938932
0.230013538
0.2316869111
0.2316684405
0.2314527594
0.2316697515
0.2313580702
0.2335070852
0.233623684
0.2336982409
0.2336046661
0.2336894334
0.2355247028
0.2355024261
0.2355658962
0.23557913
0.2353353314
0.2376101976
0.2377177205
0.2379072054
0.2375813142
0.2379541982
0.2398651066
0.2398541199
0.2396909418
0.2398272081
0.2398406118
0.2420466148
0.2419220239
0.2420837572
0.2419708328
0.2417704095
0.2440289889
0.2439533453
0.2438630723
0.2439505649
0.2440565336
0.2462381591
0.2458516974
0.2461307415
0.2460400016
0.2457094811
0.2480145142
0.248033694
0.2480801225
0.2482944665
0.2481742775
0.2503302584
0.2499604414
0.2502038151
0.2499302992
0.2502092988
0.2522959539
0.2520526132
0.2524590863
0.25234042
0.2523696629
0.254546988
0.2542568304
0.2542659495
0.2545079395
0.254568972
0.2570473251
0.257028174
0.2571179612
0.2568806813
0.2569363384
0.2596435388
0.2598376457
0.2596294985
0.2598908516
0.2596857197
)
;

boundaryField
{
    upperWall
    {
        type            calculated;
        value           nonuniform List<scalar> 5(0.2614181147 0.2609712719 0.2627824839 0.2620894001 0.2612077872);
    }
    lowerWall
    {
        type            calculated;
        value           nonuniform List<scalar> 5(0.0137184761 0.01332568848 0.01390489678 0.01388441241 0.01411416785);
    }
    periodicX_half0
    {
        type            cyclic;
    }
    periodicX_half1
    {
        type            cyclic;
    }
    frontAndBack
    {
        type            empty;
    }
}


// ************************************************************************* //
