/*--------------------------------*- C++ -*----------------------------------*\
| =========                 |                                                 |
| \\      /  F ield         | OpenFOAM: The Open Source CFD Toolbox           |
|  \\    /   O peration     | Version:  v1706                                 |
|   \\  /    A nd           | Web:      www.OpenFOAM.com                      |
|    \\/     M anipulation  |                                                 |
\*---------------------------------------------------------------------------*/
FoamFile
{
    version     2.0;
    format      ascii;
    class       volScalarField;
    location    "5";
    object      Ma_N2;
}
// * * * * * * * * * * * * * * * * * * * * * * * * * * * * * * * * * * * * * //

dimensions      [0 0 0 0 0 0 0];


internalField   nonuniform List<scalar> 
500
(
0.01643931446
0.01650835988
0.01661482742
0.01668025338
0.01639723658
0.02095444221
0.02129264237
0.02112923681
0.02118484444
0.02120228567
0.02502207426
0.02502890627
0.02489592294
0.02496948305
0.02495214309
0.02838177894
0.0285604544
0.02836316403
0.0283628001
0.02854359475
0.0319322466
0.03188303907
0.03191974121
0.03175130916
0.03190260906
0.03506802316
0.03524443262
0.03511052575
0.03513159982
0.03505508525
0.03817898901
0.03823762914
0.03834814867
0.0382770976
0.03831383742
0.04109388198
0.04140610915
0.04093122541
0.04116026824
0.04116984024
0.04407879668
0.04428694579
0.04418058588
0.04425732992
0.04430732103
0.04719095386
0.04732905862
0.0470042555
0.04714020402
0.04745265398
0.05013703436
0.0500968617
0.04999767347
0.05008148818
0.05016128454
0.05280440954
0.05294259441
0.05307704217
0.05303456521
0.05287580675
0.05550860171
0.05590990982
0.05561841008
0.05590418155
0.05587656313
0.05877866253
0.05851357721
0.05842955368
0.0584905934
0.0586319495
0.06119223199
0.061536106
0.06161147983
0.06148074336
0.06154469327
0.06451652769
0.0646945679
0.06467014176
0.06460382268
0.06416636894
0.0672186371
0.06712540221
0.06708772572
0.06730038005
0.06722927394
0.0698462597
0.06984500824
0.06988366149
0.0696855755
0.06989575726
0.07272965224
0.07247098092
0.07266224197
0.0727525164
0.07281472496
0.07566253012
0.07565170771
0.07579174363
0.07546984364
0.07556811989
0.07798713615
0.07808305237
0.07839098781
0.07821409941
0.07788514293
0.08120124003
0.08100616199
0.08100407601
0.08095787097
0.08089506113
0.08386039005
0.08355925512
0.08365728765
0.08371166634
0.08357196714
0.0865129585
0.08633539002
0.08614660016
0.08642465427
0.08643389197
0.08915423335
0.08913309993
0.08891237446
0.08913063252
0.08890820044
0.0916100585
0.0915802742
0.09175509804
0.09135018688
0.09154254233
0.094231335
0.09406128752
0.09411391464
0.09431035921
0.09418397247
0.09710782694
0.09721840757
0.09718031193
0.09699377948
0.09685551504
0.09977540266
0.1000547286
0.09958743239
0.1000295984
0.09979892533
0.1024388899
0.1026542514
0.1023978006
0.1025043337
0.1022445521
0.1048673654
0.1043702233
0.1047336286
0.1047776542
0.1048010507
0.1072040399
0.1073044719
0.1073077569
0.107440665
0.1077516606
0.1101624012
0.1101259495
0.109882528
0.1097807893
0.1098026938
0.1122732153
0.112366021
0.1122232972
0.1124212833
0.1124708096
0.1149339217
0.1147681995
0.1146515093
0.1148980078
0.1146903228
0.1172466051
0.1176543325
0.1173532669
0.1175031533
0.1173535756
0.1197385312
0.119583242
0.119639919
0.1198496892
0.1195625866
0.1222507838
0.1225179102
0.1222251467
0.1223994323
0.1224969066
0.124968427
0.1249024267
0.1248719668
0.1248369542
0.1250326773
0.1271240604
0.1271041919
0.1271557304
0.1271841846
0.1271795581
0.1293683779
0.129194948
0.1292081307
0.129190484
0.1291722505
0.1317848935
0.1318720297
0.1318995448
0.1315509919
0.1319030067
0.1341464748
0.1340459681
0.1338061916
0.134249054
0.1342856238
0.1364788294
0.1365907025
0.1365734314
0.1365843614
0.1365858398
0.1388087081
0.1390582711
0.13895864
0.1391974531
0.1388623833
0.1413455427
0.1414012206
0.1412096518
0.1414149554
0.1416059172
0.1435781885
0.1437626113
0.1437500372
0.1437150755
0.143538732
0.1458122065
0.1461095556
0.1459010388
0.1457689815
0.1458100568
0.1484717974
0.1481706512
0.1483181737
0.1486079972
0.1481466276
0.1506300367
0.1505332194
0.1507038147
0.150547712
0.1506072664
0.1527765638
0.1528887993
0.1527415817
0.1527429189
0.1530523588
0.1551509138
0.1551912781
0.1550431693
0.1551619325
0.1551013057
0.1572304792
0.1574265034
0.1573409242
0.157370624
0.156918274
0.1596695163
0.1590974594
0.1596274182
0.1596053943
0.1598145169
0.1616863126
0.1618405588
0.161827596
0.161613817
0.161910231
0.164048494
0.1640097499
0.1641203599
0.1639437088
0.1642719862
0.1664908565
0.1664814229
0.1662070415
0.1663330286
0.1660178849
0.1685696463
0.1683920189
0.1686999349
0.1684020151
0.1686212659
0.1704225806
0.1706099053
0.1706866218
0.170716768
0.1708020222
0.1730004816
0.1727913432
0.1728805201
0.1729039765
0.1728826968
0.1749201021
0.1750623417
0.1752680345
0.1752980441
0.1750306577
0.1774021103
0.177262355
0.1769885474
0.177156245
0.1772512084
0.1791981998
0.1792009592
0.1791410067
0.1789033477
0.1793484268
0.1811071263
0.1815410511
0.1813692517
0.1814070479
0.1813025246
0.1836647355
0.1837546898
0.1835302992
0.1835831388
0.1836491924
0.1854970106
0.1855267542
0.1855900578
0.1856098872
0.1855820147
0.1877189408
0.188051135
0.1876667355
0.1877583923
0.1876909123
0.1896558693
0.1899258415
0.1898500934
0.1897420224
0.1897335953
0.1918471092
0.1918232685
0.1916953411
0.1918778161
0.1917149211
0.1941077846
0.1939804068
0.1937008632
0.1941136147
0.1940107928
0.1961865666
0.1957972031
0.1963459449
0.1960914636
0.1963262508
0.1981244024
0.1982448435
0.1982169141
0.1981914498
0.1983247213
0.2001832884
0.2003021739
0.2003594091
0.2003197079
0.2002178381
0.2022290024
0.2023361962
0.2022972203
0.2020200017
0.2022256851
0.2040454274
0.2042760282
0.2041343089
0.2040924772
0.2042618015
0.2062546655
0.2062825452
0.2062690071
0.2060035369
0.2064640067
0.2082521497
0.2080075375
0.2083253091
0.2084049708
0.2083795695
0.2104639276
0.2105322672
0.2101941382
0.210286173
0.2101833284
0.2121553747
0.2123530437
0.2125540849
0.2121857933
0.2122931675
0.2144629469
0.2146390013
0.2143295277
0.2144740647
0.2144906078
0.2165181595
0.216353526
0.2165061883
0.2163419502
0.2165270927
0.2183879337
0.2181466002
0.2185432692
0.2183158983
0.2184025459
0.2204841355
0.2203147807
0.2204048234
0.220360821
0.2203019226
0.2224778797
0.2224503224
0.2225378389
0.2222957862
0.2224930772
0.2246062909
0.2244467369
0.2246608555
0.2244416718
0.2244939443
0.2261948954
0.2264311537
0.2262656061
0.226180552
0.2267072329
0.2282575448
0.2281827783
0.2279497895
0.2283740374
0.2278740458
0.2299159647
0.2302111691
0.2301965508
0.2301067453
0.2302802657
0.2320042193
0.2320718274
0.2320058034
0.2320752256
0.2317727586
0.2341055685
0.2341167254
0.2343915864
0.2340377085
0.2344075285
0.2361895996
0.236370672
0.236230875
0.2363540378
0.2363555364
0.2385451507
0.2384715697
0.2385326136
0.2383926506
0.2382629467
0.2404874046
0.2402720343
0.2403516576
0.2405598308
0.2407018702
0.2426091999
0.2423302331
0.2425777744
0.2424169953
0.2421418866
0.2444495374
0.2445358693
0.2444746147
0.2447254796
0.2445786382
0.2468201722
0.2463161458
0.2465781029
0.2463972755
0.2465038277
0.2486667791
0.2484252219
0.2488823489
0.2486072296
0.2488053689
0.2509086286
0.2505486521
0.2505776598
0.25083741
0.2508308752
0.2533656019
0.2533113382
0.2532726972
0.2531853527
0.2531465272
0.2558317248
0.2559530193
0.2559063129
0.2560814476
0.2560002787
)
;

boundaryField
{
    upperWall
    {
        type            calculated;
        value           nonuniform List<scalar> 5(0.2576610084 0.257388256 0.2588703977 0.258324668 0.2571792807);
    }
    lowerWall
    {
        type            calculated;
        value           nonuniform List<scalar> 5(0.01329833164 0.01334197196 0.01330199698 0.01329921858 0.01411087358);
    }
    periodicX_half0
    {
        type            cyclic;
    }
    periodicX_half1
    {
        type            cyclic;
    }
    frontAndBack
    {
        type            empty;
    }
}


// ************************************************************************* //
