/*--------------------------------*- C++ -*----------------------------------*\
| =========                 |                                                 |
| \\      /  F ield         | OpenFOAM: The Open Source CFD Toolbox           |
|  \\    /   O peration     | Version:  v1706                                 |
|   \\  /    A nd           | Web:      www.OpenFOAM.com                      |
|    \\/     M anipulation  |                                                 |
\*---------------------------------------------------------------------------*/
FoamFile
{
    version     2.0;
    format      ascii;
    class       volScalarField;
    location    "5";
    object      Ma_O2;
}
// * * * * * * * * * * * * * * * * * * * * * * * * * * * * * * * * * * * * * //

dimensions      [0 0 0 0 0 0 0];


internalField   nonuniform List<scalar> 
500
(
0.0182842263
0.01792466903
0.01824882708
0.01825201
0.01818432878
0.02244139371
0.02287923533
0.02239600851
0.02288269781
0.02262507363
0.0270214358
0.02710610411
0.02688165474
0.02642565209
0.02626595308
0.03036753667
0.03070788433
0.03117041551
0.03081274424
0.03060624016
0.03445790927
0.03399022641
0.03423910764
0.03434643884
0.0339578122
0.03791627874
0.03760606253
0.03782713148
0.03785165681
0.03766676414
0.04089255941
0.04131265299
0.04113030642
0.0410632428
0.04191564485
0.04428042332
0.04444609602
0.04473957308
0.04400156293
0.04396680651
0.04675737196
0.04733223294
0.04702124069
0.04727265087
0.04764772342
0.05091913307
0.05034542796
0.05024740007
0.05072976873
0.05019827362
0.05305328612
0.05341875127
0.05317219103
0.05342433566
0.05338860191
0.05721721159
0.0562694832
0.05599432872
0.05629684731
0.05638869541
0.05987156987
0.05981121727
0.05942210537
0.05935911488
0.05946726212
0.06304703573
0.06279856689
0.06282197806
0.06279481711
0.06272164303
0.06554227889
0.06553044271
0.06571684904
0.06539094141
0.06554809505
0.06900391556
0.06857834101
0.06876885888
0.06834318879
0.06896409844
0.07215192524
0.07231073585
0.07216233629
0.07248524795
0.0717688432
0.07546809651
0.07503395573
0.07515774148
0.07471027293
0.07456186048
0.07736714083
0.07738512224
0.07738720517
0.07768856304
0.07722290559
0.0806769086
0.08028586614
0.08082937994
0.08074726149
0.08032628083
0.08320668404
0.08357377021
0.08369651947
0.0831875595
0.08405981908
0.08707827196
0.08646339661
0.0868360579
0.08690697322
0.08648213523
0.08969340385
0.08971297239
0.08999364354
0.0895637315
0.08998728785
0.09256184102
0.09274407816
0.09294446295
0.09243994673
0.09253564025
0.09496855453
0.09513517013
0.09499570335
0.0954025655
0.09569237433
0.0980018594
0.09802949839
0.09807271891
0.09785794354
0.09805740354
0.1012859002
0.1007491956
0.1009037809
0.1015186087
0.1010014031
0.1038974658
0.1040827536
0.103574039
0.1037291767
0.1038926819
0.1060281138
0.1069938133
0.106363784
0.1063736864
0.1067584034
0.1095460231
0.1087582661
0.1092734776
0.1093726721
0.1093020831
0.1113640072
0.1118224629
0.1116457147
0.1117183462
0.1117463009
0.11455808
0.1148506121
0.1143909832
0.1146564345
0.1143532068
0.117255899
0.1170914171
0.1176499629
0.1171353859
0.1170436122
0.1203762601
0.1202573623
0.1201227367
0.1203077414
0.1205208302
0.1232093432
0.1230448933
0.1225660383
0.1226078617
0.1229408566
0.1258029596
0.1256173115
0.1256787497
0.1253508374
0.1256692932
0.1276641849
0.1283422112
0.12845533
0.1281612859
0.1281577408
0.1307677302
0.1308826419
0.13066663
0.1306558163
0.1303083987
0.1333955429
0.1334537645
0.1330422985
0.1334017634
0.1336721302
0.1357150625
0.1355231703
0.1363344173
0.1362937488
0.136038991
0.1384518856
0.1390365702
0.1382779759
0.1379481823
0.1385227025
0.14083122
0.1407789791
0.1411973908
0.1410496798
0.1409044573
0.1430971547
0.1432990182
0.1433084894
0.1438228552
0.1439361739
0.1459931121
0.1463202973
0.1462697213
0.1463088712
0.1458647009
0.1486593026
0.1486699851
0.1484509191
0.1484578553
0.1486557917
0.1513103044
0.1521590689
0.1513963692
0.1509634459
0.1517266027
0.1540841734
0.1541583914
0.15377241
0.1539873373
0.1538302626
0.1562823049
0.1561562545
0.1562200137
0.1565605418
0.1565011064
0.1584771665
0.1580211475
0.1585966185
0.1587226187
0.1587303237
0.160960317
0.1606323441
0.1608035255
0.1609855671
0.1604661348
0.1631131132
0.1633838782
0.1633386864
0.163394396
0.1634048157
0.1657547988
0.1658557906
0.1658432987
0.1656912072
0.1659376688
0.1684175372
0.1679827891
0.167756277
0.1683563328
0.1679861344
0.1707176858
0.1707586232
0.1708781632
0.1703547998
0.1703430319
0.1736261409
0.1729334861
0.1727600884
0.1728410563
0.1733887782
0.175308092
0.175496493
0.17503496
0.1754626245
0.1748939446
0.177627167
0.1776672717
0.1775819327
0.1777501009
0.1769587967
0.1795645845
0.1794379054
0.1794305087
0.1798778074
0.1802933304
0.18216605
0.182550659
0.1825260661
0.1820691266
0.1826000756
0.1840659701
0.1846705143
0.1850378429
0.1845008514
0.1841922426
0.1860759946
0.1861299133
0.186023953
0.1866021001
0.186709096
0.1889718937
0.1885693438
0.1889530783
0.1891131588
0.1888399047
0.1920997202
0.1914164188
0.1917451881
0.1911827984
0.1913562622
0.1938534761
0.1940459341
0.1938458784
0.1939565554
0.193899707
0.195653804
0.1953574803
0.1960295287
0.1954200887
0.1957822793
0.1980395207
0.198421418
0.1978432324
0.1978454195
0.1979668213
0.2005041848
0.2004665661
0.2006449264
0.2010641217
0.200930988
0.2023062199
0.2030806263
0.2017998113
0.2025043977
0.2027895535
0.2052854727
0.2049186538
0.2053144631
0.2049978716
0.2050615326
0.2068026252
0.2069543066
0.2072492399
0.2071535832
0.2070312931
0.2097752437
0.2092131053
0.2095269429
0.2090472727
0.2096425984
0.2114512075
0.2118694372
0.2117686231
0.2117591216
0.2115588609
0.213875496
0.2141682489
0.2141659514
0.2135062372
0.2131263778
0.2165455185
0.2160834387
0.2162201243
0.2160271871
0.2164744118
0.2178315869
0.2180705602
0.2181682821
0.2186463332
0.2183610509
0.2204245476
0.2200509897
0.2206468115
0.2208150627
0.2202664403
0.2225211624
0.2225516252
0.2226300137
0.2222250199
0.2221836739
0.2247345366
0.2248173109
0.2246049642
0.2246373284
0.2248135679
0.2265820138
0.2264429335
0.226675632
0.2265767047
0.2265342593
0.2294475306
0.2293251129
0.2289731781
0.2292528844
0.2290703948
0.230938649
0.2314846705
0.230945071
0.2311247695
0.231573872
0.2335218081
0.2336752071
0.2336723104
0.2335002227
0.2332512894
0.2354525121
0.235050708
0.2354292338
0.2358755922
0.2357378536
0.2383081554
0.2375659686
0.2374260989
0.2374058042
0.2377838401
0.2398623399
0.2395816738
0.2397294213
0.2396554473
0.2395911263
0.2419008944
0.2417162336
0.2420897629
0.2419752543
0.2420137499
0.2441323609
0.2443105917
0.2441565801
0.2436345857
0.2439861457
0.24651946
0.2460068131
0.2463880215
0.2462848376
0.2460567352
0.2482890314
0.247946339
0.2484736295
0.2482888722
0.2482364741
0.2503213869
0.2507682244
0.2506476838
0.250429091
0.2508063573
0.2531780652
0.2524844778
0.252245788
0.2524337093
0.2524855532
0.2547511127
0.2544505107
0.2549562533
0.2549396468
0.2544909606
0.2568796511
0.257291479
0.2565916053
0.2562708121
0.2562488312
0.2594041947
0.2586294736
0.2590269445
0.259170322
0.2586514992
0.2609501605
0.2607347656
0.2611614035
0.2612478174
0.2612063856
0.2630762207
0.2631779142
0.2633593061
0.2627645613
0.2636390614
0.2654580216
0.2652149813
0.265434213
0.2658671647
0.2653061171
0.2677463099
0.2676949599
0.2676393799
0.2678332251
0.2681179133
0.2704147833
0.2705089461
0.2710442134
0.2702850051
0.2706724176
0.2734640225
0.2739189268
0.2731487185
0.2737082797
0.2730775969
)
;

boundaryField
{
    upperWall
    {
        type            calculated;
        value           nonuniform List<scalar> 5(0.2750403443 0.2739916696 0.2769574772 0.2757585998 0.2758503396);
    }
    lowerWall
    {
        type            calculated;
        value           nonuniform List<scalar> 5(0.01523748749 0.01331007135 0.0160302765 0.01596523191 0.01415192843);
    }
    periodicX_half0
    {
        type            cyclic;
    }
    periodicX_half1
    {
        type            cyclic;
    }
    frontAndBack
    {
        type            empty;
    }
}


// ************************************************************************* //
