/*--------------------------------*- C++ -*----------------------------------*\
| =========                 |                                                 |
| \\      /  F ield         | OpenFOAM: The Open Source CFD Toolbox           |
|  \\    /   O peration     | Version:  v1706                                 |
|   \\  /    A nd           | Web:      www.OpenFOAM.com                      |
|    \\/     M anipulation  |                                                 |
\*---------------------------------------------------------------------------*/
FoamFile
{
    version     2.0;
    format      ascii;
    class       volScalarField;
    location    "5";
    object      Ma_O2;
}
// * * * * * * * * * * * * * * * * * * * * * * * * * * * * * * * * * * * * * //

dimensions      [0 0 0 0 0 0 0];


internalField   nonuniform List<scalar> 
500
(
0.01787788937
0.01830595398
0.01840506412
0.01780123132
0.0183913194
0.02261030446
0.02252459986
0.0228654138
0.02239637183
0.02264107359
0.02719690009
0.02662438328
0.02627260766
0.02667401725
0.02720575307
0.03043830716
0.03061267201
0.03045508756
0.03045968593
0.03049307772
0.03415354492
0.03447907617
0.03414111299
0.03408036435
0.03440534334
0.0376848697
0.03794471497
0.03753247385
0.03719426899
0.03752273235
0.04061745451
0.04040137934
0.04083160772
0.04127587035
0.04062540604
0.04385894143
0.04361261063
0.04411923052
0.04445797972
0.04373751586
0.0476477919
0.04781547007
0.04708153376
0.04738112653
0.04765744402
0.05079775836
0.0502908216
0.05046119678
0.05044586478
0.05106549613
0.05362550622
0.05351375788
0.05369113838
0.05344500004
0.05342088032
0.05671454663
0.05670874906
0.05690459441
0.05695643345
0.05647726171
0.05975631288
0.05989020797
0.05944535811
0.05966091179
0.05979219245
0.06274208084
0.06247651181
0.06264723955
0.06265602025
0.06228458763
0.06633495655
0.06580185645
0.06595808668
0.06576670462
0.06597247413
0.06891610818
0.06853728881
0.06889974404
0.06876038459
0.0690351847
0.07174873841
0.07141753394
0.07170632715
0.07178494743
0.07113631384
0.07522045628
0.07424980783
0.0750486275
0.07420111414
0.0747599318
0.07728179462
0.07781167205
0.07815705644
0.07796671172
0.07840338948
0.08097851955
0.08101163819
0.08051738791
0.08113610664
0.08028822741
0.08372766461
0.0839218875
0.08391497499
0.08357983154
0.08403639992
0.08668610698
0.08746093264
0.08693453226
0.08658227484
0.08674024913
0.08991523072
0.0895109587
0.0901622453
0.08990597471
0.09015208143
0.09229171605
0.09266833982
0.09264467851
0.09267692336
0.0926462226
0.09494975512
0.09515976834
0.09489071211
0.09540231669
0.09478588939
0.09785586248
0.09786482817
0.09760846395
0.09711564708
0.09747448987
0.1000346948
0.09977233579
0.100056775
0.09996966143
0.1000868337
0.1030789252
0.1030612084
0.103259746
0.1029610003
0.1025950483
0.1058420763
0.1064022944
0.1060976759
0.106013869
0.1063635491
0.1089808157
0.108842002
0.1088969809
0.1096662955
0.1093679761
0.1118236958
0.1119253415
0.1119759857
0.1116624969
0.1121589276
0.1146193353
0.1145079501
0.1146177274
0.1145743286
0.1145301043
0.1169361868
0.1172711451
0.1174000644
0.1169264495
0.1169801204
0.1203446295
0.1197538638
0.1199034279
0.1203594591
0.1196798173
0.1226247851
0.1225733772
0.1224353074
0.1225480785
0.122649062
0.1250761328
0.1247169005
0.1249423743
0.1247979195
0.1248035334
0.1275368539
0.127237069
0.1274119417
0.1280113026
0.1275804909
0.1306334362
0.1305734386
0.1307390773
0.130397087
0.1303202044
0.132943277
0.1329532301
0.1328533087
0.1331544792
0.1326686321
0.135118874
0.135075309
0.1354276309
0.1355060968
0.1355592438
0.1383736095
0.1379904412
0.1375989135
0.1381062583
0.1380210906
0.1407047382
0.1401502408
0.1403864227
0.1404407531
0.1407612448
0.1430233124
0.1433712926
0.1427649177
0.1427831011
0.1426893158
0.1454453023
0.1459731697
0.1454259436
0.1461528969
0.1457802761
0.1479524163
0.1478445319
0.1483582631
0.1482599135
0.1484186046
0.1510843164
0.151012664
0.1513917935
0.1510131569
0.1506400976
0.1532146437
0.15342882
0.1535298917
0.1531873621
0.1530361793
0.1554679022
0.155378214
0.1555456085
0.1555548076
0.1561212815
0.1580364309
0.1582550749
0.1581090788
0.1581262669
0.1576325305
0.1602821828
0.1602574056
0.1611688294
0.1603423188
0.1606129016
0.1631480677
0.1628796571
0.1628466106
0.1631434244
0.1630356919
0.1661674602
0.1658732124
0.1658909785
0.1655490947
0.1652881604
0.1673428892
0.1680574896
0.1676498569
0.167307837
0.1680305251
0.1698612199
0.1702945183
0.169645945
0.1705130841
0.1705497124
0.1724947321
0.1729523118
0.1728183568
0.1731522913
0.1724446331
0.1750202276
0.1751650282
0.1753164273
0.175188001
0.1750224516
0.1781782886
0.177097292
0.1781844153
0.1777595585
0.1774801247
0.1798626429
0.1798584405
0.1801913757
0.1798690816
0.1801266744
0.1821185275
0.1823603203
0.182408802
0.1822851398
0.182111653
0.1844905054
0.1843028269
0.1840676021
0.1846205965
0.1843306529
0.1862578985
0.1863915133
0.1858525725
0.1863892929
0.1868445933
0.1890660995
0.1889905129
0.1894183534
0.1893640929
0.1891070351
0.1913985507
0.1917972838
0.1918060743
0.1914232284
0.1913309411
0.1939254154
0.1934287763
0.1937955278
0.1933961041
0.1929776274
0.1956428583
0.1954544823
0.195474447
0.1954889998
0.1955028468
0.1981874882
0.1980916067
0.1981308442
0.1983369212
0.1984854593
0.2013446187
0.2006657385
0.2001760466
0.2006050449
0.2012454324
0.2027660902
0.2030148828
0.2031243034
0.2027083232
0.2025581562
0.2048561391
0.2051031904
0.2051517213
0.205167691
0.2054570863
0.2071249478
0.2073960254
0.2070604888
0.2071848459
0.2069125626
0.2095413329
0.2094525474
0.2096512982
0.2093862957
0.2091500634
0.2116534468
0.2116683921
0.2114630589
0.2115987723
0.2113093557
0.2140628823
0.2137671731
0.2138594822
0.2140193836
0.2141842796
0.2160447746
0.2160446588
0.2161084581
0.2162519596
0.2158423867
0.2178155357
0.2177941362
0.2181050189
0.2177651644
0.2182175279
0.2202556283
0.2203028715
0.2199654906
0.2204728134
0.22024454
0.2228446751
0.2222883047
0.2230207616
0.2229011165
0.222764456
0.2246906206
0.2250181245
0.2245399144
0.2245957349
0.2246949998
0.2267138366
0.2269688002
0.2273788058
0.2275221767
0.2269543229
0.2299070773
0.2299745841
0.2290871556
0.2295505646
0.2291870777
0.2314026174
0.2312045129
0.2309577272
0.2312550851
0.2312619055
0.2336964605
0.2332725677
0.2335687253
0.2332853878
0.2337184582
0.2353178074
0.2354844294
0.235471779
0.2358617642
0.2357316473
0.2376741679
0.2380169006
0.2376229765
0.2379619234
0.2384092526
0.2393853402
0.2395148093
0.2396755031
0.2391309335
0.2390820505
0.2415609854
0.2420093124
0.2412937
0.2417076083
0.2416405398
0.2435756579
0.2436708382
0.2438145353
0.243935941
0.2442979088
0.2460388644
0.2464310369
0.2461335027
0.2461538573
0.2462424341
0.2479829787
0.24794968
0.2477849168
0.2481894404
0.2480088229
0.2496190729
0.2501251932
0.250113592
0.2501002848
0.2506741122
0.2528615367
0.2527592967
0.252076631
0.2525750497
0.2523300184
0.2546480316
0.254506278
0.2543938137
0.254635623
0.254618245
0.2564916504
0.2570943245
0.2565807172
0.2570736215
0.2570966963
0.2587598073
0.2587099978
0.2585878723
0.2585893008
0.2590746717
0.260625786
0.2614226455
0.2609066794
0.2608903287
0.2611002299
0.2635999095
0.2637661335
0.263639813
0.2631621614
0.2638303683
0.2655887303
0.2656284167
0.2658665164
0.2654859161
0.26542235
0.2679576816
0.2675774812
0.2675829131
0.268196256
0.2673778961
0.2700920904
0.2703664308
0.2703098716
0.2705398307
0.2702858151
0.2734744092
0.2728632227
0.2737462929
0.27321887
0.2732669111
)
;

boundaryField
{
    upperWall
    {
        type            calculated;
        value           nonuniform List<scalar> 5(0.2772258511 0.2751480731 0.2742856711 0.2755072451 0.2753932233);
    }
    lowerWall
    {
        type            calculated;
        value           nonuniform List<scalar> 5(0.01553468486 0.01362226077 0.01568179096 0.01467502949 0.01409091232);
    }
    periodicX_half0
    {
        type            cyclic;
    }
    periodicX_half1
    {
        type            cyclic;
    }
    frontAndBack
    {
        type            empty;
    }
}


// ************************************************************************* //
