/*--------------------------------*- C++ -*----------------------------------*\
| =========                 |                                                 |
| \\      /  F ield         | OpenFOAM: The Open Source CFD Toolbox           |
|  \\    /   O peration     | Version:  v1706                                 |
|   \\  /    A nd           | Web:      www.OpenFOAM.com                      |
|    \\/     M anipulation  |                                                 |
\*---------------------------------------------------------------------------*/
FoamFile
{
    version     2.0;
    format      ascii;
    class       volScalarField;
    location    "5";
    object      mct_O2;
}
// * * * * * * * * * * * * * * * * * * * * * * * * * * * * * * * * * * * * * //

dimensions      [0 0 1 0 0 0 0];


internalField   nonuniform List<scalar> 
500
(
0.0001949737087
0.0001949657206
0.0001949572952
0.0001950807458
0.0001949533391
0.0001959880232
0.0001958987655
0.0001960741602
0.0001959804706
0.0001959482178
0.0001967428779
0.0001968030978
0.0001968907636
0.0001968500793
0.0001968498215
0.0001975369161
0.0001976834236
0.0001977736539
0.0001976058341
0.0001976649358
0.0001984367599
0.0001983475274
0.0001982496042
0.0001982409031
0.0001984536493
0.0001990122392
0.0001991370575
0.0001989758666
0.0001989544364
0.0001989223539
0.0001996856554
0.0001997668173
0.0001998432507
0.0001997726134
0.0001997630555
0.0002003492742
0.0002003991118
0.0002004842311
0.0002003420486
0.0002005417044
0.0002010789129
0.0002011035602
0.0002011587886
0.0002012992701
0.0002012544933
0.0002017656722
0.0002016872966
0.0002017660729
0.0002018170365
0.0002019074523
0.000202374315
0.0002024647209
0.0002023732051
0.0002023712487
0.0002024401358
0.0002029974127
0.0002031196204
0.0002030976597
0.0002031632669
0.0002031964676
0.0002036649707
0.0002037460306
0.0002036823468
0.0002037941491
0.0002037323853
0.0002044404263
0.0002043993983
0.0002045206741
0.0002042550516
0.0002043782684
0.0002050216879
0.0002051067179
0.000205092937
0.0002050203432
0.0002051174469
0.0002055887236
0.0002057754032
0.0002056771668
0.0002056580093
0.0002056632807
0.0002063642437
0.0002062978179
0.0002064431608
0.0002062744274
0.0002063889702
0.0002070206127
0.0002069934008
0.0002069728901
0.0002070223253
0.0002069526646
0.000207547865
0.000207639686
0.0002075751263
0.0002076299403
0.0002073906101
0.000208254868
0.0002081319462
0.0002084105733
0.0002084480643
0.0002081802957
0.0002087985494
0.0002088916828
0.0002090314059
0.0002089111924
0.0002089214579
0.0002094666823
0.00020947517
0.0002094723876
0.0002095845041
0.0002096177547
0.0002101914461
0.0002101125633
0.0002100710145
0.0002101933939
0.000210242786
0.000210747317
0.000210729228
0.0002106511995
0.0002107635886
0.0002107714199
0.0002115251058
0.0002114538398
0.0002113772329
0.000211352531
0.0002113736373
0.0002121716182
0.0002119977752
0.0002120703387
0.0002120202006
0.0002122008026
0.000212811283
0.0002128051001
0.0002126905632
0.0002126214771
0.0002127777451
0.0002133296459
0.0002134028768
0.0002132454
0.0002131626038
0.0002131437256
0.0002139306343
0.000213832803
0.000213918178
0.0002139338155
0.0002138672468
0.0002144951727
0.0002145626577
0.0002145398653
0.000214619833
0.0002145114163
0.0002152221855
0.0002150768921
0.0002152729019
0.0002151302968
0.0002152153676
0.0002156220759
0.0002158352151
0.0002156558462
0.0002156724905
0.0002156987383
0.000216267419
0.0002164625177
0.000216264794
0.0002164127737
0.0002163503731
0.0002170540318
0.0002169396477
0.0002170070371
0.0002169913114
0.0002169489474
0.0002174063557
0.0002176233957
0.0002176401625
0.0002176544777
0.0002176191697
0.0002182604676
0.0002180428777
0.0002181845955
0.0002181557341
0.0002180628573
0.0002187668998
0.0002187197709
0.0002186769152
0.0002187388255
0.0002186599481
0.0002193499625
0.0002190706401
0.0002191733539
0.0002192444844
0.0002191883531
0.0002198455583
0.0002199012761
0.0002198426852
0.0002196432978
0.0002198415263
0.0002203891524
0.0002203308976
0.000220385408
0.0002205463493
0.0002203652794
0.0002210608283
0.0002210417468
0.0002210291875
0.0002212135611
0.0002211812715
0.0002216069871
0.0002215742052
0.0002217572215
0.0002216778076
0.0002218294875
0.0002223274224
0.000222328705
0.0002222106782
0.0002221967159
0.0002224498989
0.0002228591767
0.0002227458839
0.0002228126892
0.0002226747985
0.0002226675946
0.0002234279679
0.0002234061702
0.0002235549207
0.000223404375
0.0002233112531
0.0002239337508
0.0002238977893
0.0002239805543
0.000223852538
0.000223907059
0.0002245711576
0.0002245276576
0.0002245555213
0.0002244641134
0.0002244322777
0.0002250504411
0.0002251642973
0.0002252850395
0.0002251237737
0.0002250788528
0.0002256365875
0.0002257155942
0.000225648159
0.0002257125997
0.0002256542847
0.0002261579389
0.0002262817551
0.0002262255976
0.0002261654971
0.0002263626064
0.0002268231243
0.0002269039636
0.0002266352069
0.0002266679577
0.0002265968441
0.0002275053409
0.0002274229545
0.0002274559848
0.0002274370628
0.0002274915731
0.0002281356998
0.0002280124498
0.0002280394962
0.0002279954274
0.0002280224209
0.0002283898746
0.0002284886913
0.0002285877016
0.0002285764071
0.0002284266188
0.0002289923165
0.0002292001519
0.0002290686811
0.0002290283115
0.0002290167815
0.0002297236912
0.000229629144
0.0002297137885
0.0002296133488
0.0002296465239
0.0002299894488
0.0002302436286
0.0002302707962
0.0002301844764
0.0002301697277
0.0002306433142
0.0002307738187
0.0002306782451
0.0002307496806
0.0002306101534
0.0002313043869
0.000231287253
0.0002312242658
0.0002311882609
0.0002311580209
0.0002318762237
0.0002317225897
0.0002318903473
0.0002317492674
0.0002318124717
0.0002322282065
0.0002322629211
0.0002321710236
0.000232350612
0.0002323846411
0.0002328903564
0.0002329648105
0.0002328366341
0.0002328793095
0.0002328300465
0.0002333105867
0.0002334489868
0.0002335066817
0.0002333037618
0.0002334930247
0.0002340242942
0.0002339764079
0.0002338695279
0.000233977253
0.0002339365713
0.0002344041906
0.0002345799821
0.000234526211
0.0002345339544
0.000234529078
0.0002350008039
0.0002349476066
0.0002348404738
0.000235093658
0.0002351167438
0.0002356712411
0.0002355576812
0.000235580192
0.0002355974591
0.0002354718536
0.0002361953565
0.0002360686821
0.0002360213645
0.0002360272751
0.0002360242889
0.0002366652864
0.000236648615
0.0002365506883
0.0002366783715
0.0002365298937
0.0002371389065
0.0002372211373
0.0002371686104
0.0002370629475
0.0002372008637
0.0002375003771
0.0002377870482
0.0002377322471
0.0002378079032
0.0002376895866
0.0002382455971
0.0002380454288
0.0002382908093
0.0002383142205
0.0002382877643
0.0002387608813
0.0002388379997
0.0002385133461
0.0002386910751
0.0002388416687
0.0002393590082
0.0002392585102
0.0002393241753
0.0002392187356
0.0002393284113
0.0002398316347
0.0002398525874
0.0002396780528
0.0002399365635
0.0002398735797
0.0002401980973
0.0002402023764
0.0002403815364
0.00024045628
0.0002402659481
0.0002407328455
0.0002406999704
0.0002409064445
0.0002409522762
0.000240677776
0.0002412634775
0.0002411621181
0.0002413630549
0.0002413525888
0.0002413371935
0.0002418001986
0.0002419903076
0.0002418145795
0.0002420229085
0.0002419107574
0.0002423195145
0.0002425004752
0.000242317492
0.0002424057692
0.0002423989199
0.0002429614979
0.0002428912617
0.0002431299432
0.0002429163078
0.0002428798768
0.0002436615456
0.0002434922504
0.000243573435
0.0002435569799
0.0002435152393
0.0002438804963
0.0002439341617
0.0002439774668
0.0002440314254
0.0002439594449
0.0002444934114
0.0002445158978
0.0002446275466
0.0002444563976
0.0002446352229
0.000245178705
0.0002450965241
0.0002448889894
0.0002450183401
0.0002449463795
0.0002456801081
0.000245554545
0.0002455824348
0.0002455927142
0.0002454289174
0.0002462206223
0.0002460219253
0.0002460060169
0.0002459373248
0.0002461524545
0.0002465041718
0.0002466217639
0.00024639319
0.0002465912968
0.0002465413734
0.0002468542451
0.0002470513696
0.0002467726838
0.0002468400559
0.0002469157268
0.0002475185834
0.0002474673644
0.0002475756952
0.0002474978603
0.0002476662119
0.0002480156068
0.0002477713122
0.000247754152
0.0002479892888
0.0002481040872
0.0002484411347
0.0002484073718
0.0002485252066
0.0002483148241
0.0002485480215
0.0002489675934
0.0002488540598
0.0002489348261
0.0002491616395
0.000248928064
0.0002495998976
0.0002493849987
0.0002495097132
0.0002495369656
0.0002495391968
0.0002500267353
0.000250019302
0.0002500455918
0.0002499837097
0.0002500936846
0.0002505217898
0.0002505530393
0.0002507338246
0.0002505417117
0.0002505584941
0.0002511743941
0.0002511993881
0.0002510797032
0.0002512181027
0.000251114784
0.0002517505091
0.0002518687052
0.0002519508777
0.000251779331
0.0002518452549
0.0002523396488
0.0002524321242
0.0002523959
0.000252505814
0.0002523589158
0.0002531871024
0.0002533105866
0.0002532553598
0.0002532470765
0.0002531665263
)
;

boundaryField
{
    upperWall
    {
        type            calculated;
        value           nonuniform List<scalar> 5(0.0002531871024 0.0002533105866 0.0002532553598 0.0002532470765 0.0002531665263);
    }
    lowerWall
    {
        type            calculated;
        value           nonuniform List<scalar> 5(0.0001949737087 0.0001949657206 0.0001949572952 0.0001950807458 0.0001949533391);
    }
    periodicX_half0
    {
        type            cyclic;
    }
    periodicX_half1
    {
        type            cyclic;
    }
    frontAndBack
    {
        type            empty;
    }
}


// ************************************************************************* //
