/*--------------------------------*- C++ -*----------------------------------*\
| =========                 |                                                 |
| \\      /  F ield         | OpenFOAM: The Open Source CFD Toolbox           |
|  \\    /   O peration     | Version:  v1706                                 |
|   \\  /    A nd           | Web:      www.OpenFOAM.com                      |
|    \\/     M anipulation  |                                                 |
\*---------------------------------------------------------------------------*/
FoamFile
{
    version     2.0;
    format      ascii;
    class       volScalarField;
    location    "5";
    object      mct_N2;
}
// * * * * * * * * * * * * * * * * * * * * * * * * * * * * * * * * * * * * * //

dimensions      [0 0 1 0 0 0 0];


internalField   nonuniform List<scalar> 
500
(
4.357041514e-05
4.354517456e-05
4.354430854e-05
4.356091509e-05
4.356865175e-05
4.377470769e-05
4.375805955e-05
4.375206464e-05
4.37556621e-05
4.374326217e-05
4.392090348e-05
4.392964148e-05
4.391891765e-05
4.391456676e-05
4.394026467e-05
4.407299975e-05
4.407582126e-05
4.407248922e-05
4.406089765e-05
4.409382368e-05
4.423211321e-05
4.423241958e-05
4.423035772e-05
4.42362586e-05
4.423800041e-05
4.437843393e-05
4.436471787e-05
4.437735306e-05
4.438256788e-05
4.438232174e-05
4.452673215e-05
4.453198286e-05
4.453116916e-05
4.454293489e-05
4.452311996e-05
4.468720576e-05
4.467011329e-05
4.4691071e-05
4.468043396e-05
4.467071192e-05
4.483688277e-05
4.482006526e-05
4.481595702e-05
4.482303651e-05
4.481360526e-05
4.495939955e-05
4.497786241e-05
4.49702994e-05
4.496100614e-05
4.495660395e-05
4.510525469e-05
4.511210216e-05
4.511596808e-05
4.509486409e-05
4.510085087e-05
4.52379277e-05
4.523287266e-05
4.523828246e-05
4.523067347e-05
4.524047258e-05
4.538024681e-05
4.5376556e-05
4.536443272e-05
4.537998857e-05
4.538540455e-05
4.551288083e-05
4.551134462e-05
4.551756717e-05
4.550940519e-05
4.552470036e-05
4.565147555e-05
4.565103164e-05
4.566146792e-05
4.56589143e-05
4.565146975e-05
4.578919539e-05
4.579513104e-05
4.578907167e-05
4.57799786e-05
4.58007448e-05
4.593250387e-05
4.590943906e-05
4.59248543e-05
4.591989412e-05
4.591723371e-05
4.604751877e-05
4.605886448e-05
4.604866887e-05
4.606645946e-05
4.605517699e-05
4.615305048e-05
4.617898168e-05
4.61834825e-05
4.617872263e-05
4.617348867e-05
4.631403166e-05
4.630725129e-05
4.631166307e-05
4.632156274e-05
4.630853481e-05
4.645454672e-05
4.643242599e-05
4.644314328e-05
4.645143185e-05
4.645121225e-05
4.656670757e-05
4.655206286e-05
4.657591068e-05
4.657574078e-05
4.656042456e-05
4.670986541e-05
4.670814953e-05
4.671372321e-05
4.671904831e-05
4.669234828e-05
4.684204878e-05
4.684953486e-05
4.684438341e-05
4.684320419e-05
4.684733022e-05
4.697981244e-05
4.697482316e-05
4.69732383e-05
4.697433991e-05
4.697830719e-05
4.711379504e-05
4.711478855e-05
4.71063318e-05
4.708503677e-05
4.710982606e-05
4.722433554e-05
4.723539751e-05
4.721836091e-05
4.722934504e-05
4.720013e-05
4.735247857e-05
4.735345832e-05
4.735094163e-05
4.735597283e-05
4.734352466e-05
4.747877122e-05
4.747717171e-05
4.746341692e-05
4.749107952e-05
4.747751559e-05
4.760133122e-05
4.758686466e-05
4.759288315e-05
4.758641691e-05
4.758727165e-05
4.770721887e-05
4.771779466e-05
4.772884913e-05
4.77459588e-05
4.772693682e-05
4.784145337e-05
4.785405817e-05
4.784871537e-05
4.785047023e-05
4.786188339e-05
4.796335063e-05
4.797358742e-05
4.796445978e-05
4.797237078e-05
4.797805315e-05
4.808892715e-05
4.812218592e-05
4.810128366e-05
4.811746124e-05
4.808783676e-05
4.821670923e-05
4.822521304e-05
4.823746342e-05
4.823809228e-05
4.82361411e-05
4.835348e-05
4.833763201e-05
4.836534757e-05
4.836034963e-05
4.835881298e-05
4.847823942e-05
4.849087895e-05
4.847515495e-05
4.849300076e-05
4.847784363e-05
4.861233846e-05
4.860311781e-05
4.860329788e-05
4.860479737e-05
4.859885143e-05
4.871883368e-05
4.871999887e-05
4.871756027e-05
4.871395533e-05
4.870826709e-05
4.885876588e-05
4.885356778e-05
4.883677941e-05
4.883632453e-05
4.883869336e-05
4.897880139e-05
4.896509313e-05
4.896449134e-05
4.895842524e-05
4.896206067e-05
4.908628428e-05
4.907276949e-05
4.907977492e-05
4.906558007e-05
4.906961965e-05
4.919041648e-05
4.918813917e-05
4.91921593e-05
4.918863506e-05
4.9197043e-05
4.931061522e-05
4.932120226e-05
4.931803493e-05
4.93245974e-05
4.931486276e-05
4.942197469e-05
4.943210319e-05
4.942945544e-05
4.942652154e-05
4.942178273e-05
4.953947103e-05
4.955914619e-05
4.953734983e-05
4.955178587e-05
4.955220173e-05
4.969622278e-05
4.967425017e-05
4.967096535e-05
4.9657071e-05
4.96850314e-05
4.978348544e-05
4.979117855e-05
4.977970026e-05
4.981123728e-05
4.980094363e-05
4.989441546e-05
4.992051083e-05
4.989756676e-05
4.989712281e-05
4.990420024e-05
5.001379344e-05
5.002766894e-05
5.003844734e-05
5.001789236e-05
5.001762968e-05
5.014772155e-05
5.014532944e-05
5.015049978e-05
5.013283494e-05
5.011967862e-05
5.023980892e-05
5.025615408e-05
5.027712011e-05
5.025886569e-05
5.026114237e-05
5.037882802e-05
5.040023077e-05
5.038074971e-05
5.037412177e-05
5.036721194e-05
5.048584143e-05
5.049366462e-05
5.048129829e-05
5.048256389e-05
5.049830688e-05
5.05941128e-05
5.059397469e-05
5.062389963e-05
5.06023354e-05
5.060350054e-05
5.069626944e-05
5.070517932e-05
5.071079864e-05
5.071780201e-05
5.073921647e-05
5.081673204e-05
5.08357312e-05
5.081812887e-05
5.082400119e-05
5.080541306e-05
5.095359026e-05
5.094358058e-05
5.09262388e-05
5.093887244e-05
5.095140337e-05
5.105220438e-05
5.104769161e-05
5.106171592e-05
5.104363885e-05
5.106654117e-05
5.115079738e-05
5.1162798e-05
5.117137414e-05
5.11680862e-05
5.118261485e-05
5.127991152e-05
5.130681824e-05
5.127394971e-05
5.128353478e-05
5.129778507e-05
5.139177162e-05
5.139937191e-05
5.140132037e-05
5.139101203e-05
5.138333331e-05
5.150135107e-05
5.148801148e-05
5.151649998e-05
5.149418505e-05
5.149586083e-05
5.161717812e-05
5.160741673e-05
5.1628801e-05
5.161658815e-05
5.161200368e-05
5.170884291e-05
5.172978868e-05
5.172335053e-05
5.17352176e-05
5.173317745e-05
5.183330504e-05
5.184772879e-05
5.185050715e-05
5.182505973e-05
5.183847453e-05
5.195504304e-05
5.19338835e-05
5.195011601e-05
5.196809235e-05
5.195754545e-05
5.206534485e-05
5.205317323e-05
5.206519573e-05
5.2055986e-05
5.206534264e-05
5.216867119e-05
5.215370588e-05
5.215905604e-05
5.218284261e-05
5.216346325e-05
5.225722431e-05
5.227364743e-05
5.22697949e-05
5.22949618e-05
5.228519296e-05
5.238096275e-05
5.23662382e-05
5.240290378e-05
5.24041173e-05
5.240306756e-05
5.249811851e-05
5.249037357e-05
5.249661923e-05
5.250253633e-05
5.249898091e-05
5.25994101e-05
5.261540774e-05
5.262074912e-05
5.26114722e-05
5.260618938e-05
5.269934843e-05
5.270437184e-05
5.270524674e-05
5.272170684e-05
5.27147482e-05
5.281419353e-05
5.282007167e-05
5.280638746e-05
5.280263879e-05
5.281635449e-05
5.290398179e-05
5.289438792e-05
5.289799938e-05
5.290818408e-05
5.290633752e-05
5.30229517e-05
5.300458185e-05
5.3025177e-05
5.301233394e-05
5.302441322e-05
5.312827623e-05
5.312147575e-05
5.312714409e-05
5.314609154e-05
5.313038319e-05
5.32481582e-05
5.323589356e-05
5.3222414e-05
5.323392443e-05
5.321700346e-05
5.335403809e-05
5.334769423e-05
5.333887582e-05
5.335130574e-05
5.334755733e-05
5.345136685e-05
5.344585367e-05
5.345741815e-05
5.344793187e-05
5.34370544e-05
5.355245035e-05
5.355908339e-05
5.355914354e-05
5.355533134e-05
5.356268582e-05
5.36396792e-05
5.364262525e-05
5.365142104e-05
5.364172821e-05
5.365548915e-05
5.376129659e-05
5.375970407e-05
5.375297194e-05
5.376024015e-05
5.375321272e-05
5.38559052e-05
5.386311116e-05
5.385584434e-05
5.384995803e-05
5.387050942e-05
5.395188461e-05
5.395264157e-05
5.397185871e-05
5.3977349e-05
5.395052457e-05
5.407475103e-05
5.407946988e-05
5.409001072e-05
5.407489174e-05
5.406644941e-05
5.416668661e-05
5.420016938e-05
5.419362523e-05
5.417597706e-05
5.418773143e-05
5.428741763e-05
5.431228874e-05
5.429129366e-05
5.426322997e-05
5.427908458e-05
5.43961927e-05
5.439290739e-05
5.439512794e-05
5.437592078e-05
5.437838714e-05
5.451522374e-05
5.450825274e-05
5.44924641e-05
5.450381114e-05
5.450918737e-05
5.458978022e-05
5.458233909e-05
5.46085494e-05
5.460125348e-05
5.458797941e-05
5.469177681e-05
5.471320383e-05
5.470293642e-05
5.46902064e-05
5.470102788e-05
5.480247669e-05
5.480688847e-05
5.480842721e-05
5.479092214e-05
5.481432129e-05
5.492054506e-05
5.491274987e-05
5.49079016e-05
5.492893868e-05
5.492664085e-05
5.503055159e-05
5.504141173e-05
5.505906556e-05
5.501963799e-05
5.504165065e-05
5.516914486e-05
5.516035069e-05
5.515092391e-05
5.515358938e-05
5.515498553e-05
5.527169104e-05
5.524958812e-05
5.525828142e-05
5.528184594e-05
5.527155026e-05
5.540412505e-05
5.541704428e-05
5.540529512e-05
5.539127361e-05
5.540237166e-05
5.555378268e-05
5.555677646e-05
5.55426616e-05
5.556175106e-05
5.556773583e-05
)
;

boundaryField
{
    upperWall
    {
        type            calculated;
        value           nonuniform List<scalar> 5(5.555378268e-05 5.555677646e-05 5.55426616e-05 5.556175106e-05 5.556773583e-05);
    }
    lowerWall
    {
        type            calculated;
        value           nonuniform List<scalar> 5(4.357041514e-05 4.354517456e-05 4.354430854e-05 4.356091509e-05 4.356865175e-05);
    }
    periodicX_half0
    {
        type            cyclic;
    }
    periodicX_half1
    {
        type            cyclic;
    }
    frontAndBack
    {
        type            empty;
    }
}


// ************************************************************************* //
