/*--------------------------------*- C++ -*----------------------------------*\
| =========                 |                                                 |
| \\      /  F ield         | OpenFOAM: The Open Source CFD Toolbox           |
|  \\    /   O peration     | Version:  v1706                                 |
|   \\  /    A nd           | Web:      www.OpenFOAM.com                      |
|    \\/     M anipulation  |                                                 |
\*---------------------------------------------------------------------------*/
FoamFile
{
    version     2.0;
    format      ascii;
    class       volScalarField;
    location    "5";
    object      mctTimeStepRatio_N2;
}
// * * * * * * * * * * * * * * * * * * * * * * * * * * * * * * * * * * * * * //

dimensions      [0 0 0 0 0 0 0];


internalField   nonuniform List<scalar> 
500
(
4.363120955
4.363549364
4.361905204
4.361237295
4.363756306
4.38235193
4.383057781
4.38366994
4.38214268
4.382542136
4.399375445
4.400209551
4.399684726
4.399843741
4.398705857
4.415302831
4.414342122
4.415031587
4.415557513
4.415677988
4.430156196
4.430142626
4.430882603
4.430861464
4.430475553
4.446004679
4.446250915
4.445975722
4.44644495
4.44602998
4.460603521
4.462803198
4.461543888
4.461078266
4.460648548
4.474207834
4.475324541
4.476549142
4.47596552
4.476175237
4.489442405
4.489890458
4.489765667
4.490393293
4.48958006
4.504391448
4.502674745
4.504948112
4.504399398
4.502683224
4.516720758
4.517651533
4.517625122
4.516835724
4.516959652
4.532449794
4.530426124
4.531518431
4.532355658
4.530946695
4.546176553
4.545020399
4.544602135
4.545409269
4.545659754
4.558445091
4.558750707
4.558955781
4.558257511
4.559161741
4.572419781
4.571227556
4.571571146
4.571873284
4.572089514
4.586820911
4.585107365
4.584543966
4.585897521
4.586269966
4.599648729
4.598731969
4.59949631
4.59890982
4.598577265
4.611573069
4.613338656
4.612311329
4.612569307
4.612236875
4.625453586
4.626586447
4.626414951
4.627113289
4.627617806
4.639218867
4.639719647
4.638778409
4.638710437
4.640175339
4.653765839
4.655070634
4.653029148
4.653499918
4.652219512
4.666039353
4.665976902
4.665641194
4.666768456
4.665944276
4.680648506
4.678851263
4.678924862
4.679261895
4.681913566
4.693497263
4.692829527
4.69378042
4.692006444
4.691087523
4.703873679
4.706679658
4.705085237
4.706873241
4.704173641
4.719036134
4.717455364
4.717259133
4.716963856
4.718531969
4.732775825
4.732083831
4.73052733
4.730851151
4.731582084
4.744712955
4.742520944
4.741634267
4.741265055
4.744839216
4.755955983
4.756617586
4.756786076
4.754338159
4.756446234
4.768187015
4.769430243
4.770016117
4.769962261
4.769769778
4.782309583
4.782659499
4.782470949
4.783758378
4.783948995
4.79565734
4.797135475
4.795856493
4.795530899
4.795927953
4.807055774
4.809467106
4.806775154
4.808051328
4.807640667
4.819774821
4.821456522
4.821213653
4.819095572
4.821146555
4.832345655
4.83330021
4.831986047
4.831863191
4.831154967
4.843528447
4.844150669
4.844233863
4.844599966
4.844169896
4.855517865
4.857171361
4.856559977
4.857022215
4.857955114
4.8697295
4.868221539
4.869749334
4.869920051
4.870739704
4.881273549
4.881186777
4.880029065
4.881857351
4.882991619
4.892996726
4.893159227
4.892970307
4.893153837
4.895102129
4.906270672
4.905283318
4.903386544
4.904460084
4.906200759
4.916715297
4.915442898
4.915453206
4.917039959
4.916827714
4.929654957
4.928169687
4.928716854
4.93108346
4.931190839
4.94122872
4.940468471
4.939807474
4.940626404
4.940559248
4.954496217
4.953361287
4.953702107
4.954168491
4.954466727
4.96535898
4.963595231
4.963746075
4.965233566
4.964950289
4.977719062
4.975616621
4.975727342
4.975024863
4.9761384
4.988353877
4.98746815
4.986594258
4.986863096
4.989103325
4.99954135
4.998784315
4.997416987
4.997316802
4.998658063
5.011862031
5.011324157
5.011069503
5.010237949
5.010990383
5.022706243
5.023900341
5.023563414
5.023278879
5.024842035
5.034327668
5.035352186
5.035470972
5.034428901
5.035445689
5.045048372
5.047493358
5.046400674
5.04563184
5.046990491
5.058405139
5.058940543
5.059442942
5.058130239
5.057865495
5.069693609
5.071155355
5.070226965
5.068547039
5.069184808
5.080193604
5.080593289
5.081043802
5.0815562
5.080550659
5.092191545
5.09346836
5.093449616
5.092793294
5.094503013
5.101728659
5.102319528
5.101799924
5.103692591
5.102430463
5.113559258
5.113105095
5.113350024
5.114062605
5.114666553
5.125156857
5.125605522
5.127218144
5.126251601
5.125230579
5.136754706
5.134857299
5.138295061
5.136507532
5.136901806
5.146033898
5.147042363
5.146550886
5.147798236
5.146724934
5.156981336
5.159192561
5.158435566
5.158649347
5.159009061
5.169998508
5.170261499
5.170652088
5.167598897
5.17185773
5.180396184
5.180999676
5.181836564
5.18034171
5.182656501
5.191578307
5.191893861
5.191577756
5.193483478
5.192660117
5.20194341
5.205108488
5.203309563
5.201930678
5.203564927
5.215509415
5.217207982
5.212104012
5.214594025
5.213605322
5.224451341
5.225120151
5.226103406
5.225720305
5.223323916
5.237115468
5.237527628
5.238809608
5.236488909
5.235047445
5.244346272
5.2474003
5.247005542
5.246246505
5.246512833
5.255421243
5.255479294
5.256079173
5.258850345
5.257046892
5.267023581
5.268190752
5.267142374
5.266295589
5.268501862
5.2772027
5.2776799
5.277982655
5.280257955
5.280983643
5.289648314
5.289642348
5.290015842
5.288126861
5.291056101
5.29962777
5.30115955
5.301901833
5.300617688
5.301722023
5.310998238
5.310579278
5.312535085
5.31245712
5.308637097
5.322216501
5.322979749
5.322070305
5.321310044
5.322153826
5.334892674
5.333700309
5.334161626
5.332821042
5.333251098
5.343298699
5.342611766
5.343661014
5.34326143
5.34264228
5.353090741
5.352770781
5.353283491
5.350484179
5.35406544
5.364728273
5.363538632
5.364332401
5.36411392
5.365277381
5.374983099
5.376113242
5.374914808
5.375011486
5.376689667
5.385986475
5.385863357
5.387292791
5.386915561
5.384447676
5.3963166
5.395450151
5.396933313
5.395165266
5.395840206
5.407766473
5.405077612
5.405792083
5.40535676
5.408143438
5.415513615
5.419284647
5.417273383
5.419024045
5.417933148
5.427455097
5.427090142
5.42966527
5.427643054
5.427832712
5.439623448
5.440951245
5.436665694
5.438247639
5.440923058
5.448595599
5.447788362
5.451507627
5.449664596
5.449627037
5.460500377
5.460596216
5.459988572
5.460592578
5.459252644
5.470170145
5.469144762
5.469573297
5.470117128
5.470564072
5.480862056
5.480611391
5.482586279
5.481129378
5.480291405
5.492676473
5.494871146
5.491204509
5.49393582
5.493158879
5.504162357
5.502606649
5.502102411
5.501721127
5.504378284
5.513923378
5.513533795
5.514038881
5.514902811
5.514744163
5.526885516
5.526154591
5.526737126
5.527090002
5.524891218
5.540408253
5.539347633
5.538355666
5.538849431
5.539981455
5.552304135
5.552661351
5.551598815
5.551789788
5.551544744
5.567243382
5.567435029
5.566648067
5.567079002
5.566436798
)
;

boundaryField
{
    upperWall
    {
        type            calculated;
        value           nonuniform List<scalar> 5(5.567243382 5.567435029 5.566648067 5.567079002 5.566436798);
    }
    lowerWall
    {
        type            calculated;
        value           nonuniform List<scalar> 5(4.363120955 4.363549364 4.361905204 4.361237295 4.363756306);
    }
    periodicX_half0
    {
        type            cyclic;
    }
    periodicX_half1
    {
        type            cyclic;
    }
    frontAndBack
    {
        type            empty;
    }
}


// ************************************************************************* //
