/*--------------------------------*- C++ -*----------------------------------*\
| =========                 |                                                 |
| \\      /  F ield         | OpenFOAM: The Open Source CFD Toolbox           |
|  \\    /   O peration     | Version:  v1706                                 |
|   \\  /    A nd           | Web:      www.OpenFOAM.com                      |
|    \\/     M anipulation  |                                                 |
\*---------------------------------------------------------------------------*/
FoamFile
{
    version     2.0;
    format      ascii;
    class       volScalarField;
    location    "5";
    object      mctTimeStepRatio_mixture;
}
// * * * * * * * * * * * * * * * * * * * * * * * * * * * * * * * * * * * * * //

dimensions      [0 0 0 0 0 0 0];


internalField   nonuniform List<scalar> 
500
(
3.564425295
3.564594002
3.563945164
3.562862609
3.564965903
3.580263761
3.581039774
3.581339962
3.580254318
3.580601084
3.594880931
3.594964367
3.59492141
3.594967256
3.594088652
3.607481323
3.607469072
3.607766083
3.60762409
3.608215766
3.620224203
3.620077658
3.62066998
3.620368962
3.620324729
3.633303395
3.633629141
3.632968944
3.633138444
3.632564535
3.645363418
3.647094069
3.645841965
3.645558557
3.645122842
3.656708263
3.657615798
3.658510627
3.658007312
3.658183741
3.669196887
3.66934671
3.669678333
3.669932025
3.669163913
3.68120417
3.680478979
3.681894515
3.681475525
3.680163992
3.692159622
3.692196061
3.692303316
3.691767441
3.69195314
3.704491979
3.70314724
3.703700927
3.704196169
3.703586071
3.715465842
3.715019273
3.714486839
3.71558132
3.715419722
3.726077696
3.72619428
3.72619751
3.726162024
3.726915061
3.73810149
3.736556054
3.737014434
3.73735005
3.736883585
3.749149189
3.748717692
3.747982167
3.748451561
3.748698747
3.760308554
3.75989572
3.759497753
3.759639366
3.759440686
3.77026496
3.77132627
3.770366426
3.771262844
3.771014976
3.781366165
3.782473145
3.782231152
3.782586992
3.78309744
3.792380473
3.793193685
3.792302739
3.792517069
3.792974451
3.804053724
3.805392795
3.804653289
3.804466097
3.803305874
3.814858949
3.815081861
3.814506822
3.81555294
3.814653312
3.82686165
3.826168629
3.825908496
3.825683628
3.827015723
3.837217651
3.837076211
3.837761136
3.836400084
3.835386975
3.845869854
3.848121618
3.847064194
3.848119316
3.846537924
3.858722868
3.857858016
3.857114306
3.857500859
3.858248671
3.869765631
3.869349951
3.868404546
3.868823459
3.86855775
3.879815788
3.878520425
3.877548047
3.877412945
3.880186297
3.889852709
3.890228577
3.890173066
3.888556332
3.890021198
3.899955783
3.900605258
3.900798954
3.900894763
3.900705865
3.911232132
3.911214102
3.911210013
3.912610628
3.912257752
3.922288193
3.92301778
3.922045016
3.921973651
3.922412793
3.931975379
3.933618668
3.931237542
3.931340596
3.932050833
3.942405683
3.943276908
3.943206113
3.941564758
3.942626731
3.952559364
3.953304404
3.951981352
3.951809377
3.951758711
3.962194925
3.96215779
3.962814903
3.962772089
3.961658081
3.971669804
3.972950832
3.972417597
3.97240645
3.973204817
3.983316623
3.98276524
3.983640992
3.983036087
3.983521868
3.993342727
3.993055591
3.992107076
3.993053654
3.994202593
4.003082651
4.002916572
4.002392203
4.002730381
4.004498318
4.013887142
4.012952769
4.012012625
4.012705623
4.013610044
4.0230824
4.021861049
4.021922681
4.023200241
4.022880675
4.033006714
4.032708631
4.032907239
4.034161157
4.034085445
4.042174679
4.042351681
4.041507608
4.042328957
4.042189541
4.053501143
4.052384635
4.053209174
4.053774974
4.053656322
4.063033216
4.06177689
4.061634847
4.062290843
4.062494034
4.072439565
4.071749255
4.071878362
4.071101688
4.071697759
4.081669721
4.08150489
4.080825027
4.081692752
4.082431805
4.091086275
4.090790046
4.09045613
4.09004624
4.091565788
4.101618534
4.100966275
4.100885182
4.101210141
4.101159936
4.110477311
4.111565931
4.111573627
4.111376468
4.112799206
4.120381646
4.12100102
4.121665633
4.120553768
4.121309507
4.129915207
4.131100953
4.131058922
4.130133166
4.130680253
4.140429226
4.140512953
4.141242471
4.140267727
4.140061545
4.149633191
4.15067892
4.15023513
4.148903044
4.149032078
4.158519979
4.15894645
4.15902373
4.159138605
4.158569162
4.168675065
4.169271582
4.168952742
4.168595609
4.170192121
4.176931333
4.17650014
4.176598381
4.177615914
4.177387547
4.186560012
4.186505061
4.186497467
4.18690452
4.186934237
4.195977596
4.195857906
4.197505212
4.196543731
4.195886942
4.204733219
4.204137899
4.206628513
4.20530155
4.205265216
4.213253746
4.21409274
4.213934926
4.214823723
4.214117977
4.222162333
4.224175647
4.223898623
4.223452358
4.223916175
4.232736312
4.232622991
4.233513206
4.231458178
4.234263027
4.241831586
4.242087802
4.242699294
4.241956417
4.242955099
4.251038066
4.251478021
4.251209084
4.251951174
4.251326176
4.260008517
4.261687711
4.260956247
4.259451653
4.260646772
4.270721221
4.271636988
4.26821828
4.270637808
4.269131482
4.278532975
4.27885481
4.280015607
4.279225093
4.278024872
4.288903803
4.289105541
4.290391519
4.288500957
4.286847495
4.295294005
4.298047578
4.297665106
4.296498024
4.296669553
4.30431207
4.304328146
4.304657334
4.306532195
4.305490641
4.313740405
4.314988675
4.313899106
4.313528477
4.314918243
4.322469433
4.323125541
4.322508169
4.325237366
4.324469866
4.332671387
4.332664622
4.332861546
4.331477504
4.333489104
4.340695578
4.342101165
4.341945558
4.341233433
4.342190848
4.350352069
4.350095408
4.351498493
4.351528151
4.348726889
4.359791339
4.360038172
4.359395498
4.359455475
4.359371366
4.370114194
4.369452168
4.369600833
4.368287078
4.368526998
4.377083367
4.376554372
4.377316438
4.377116472
4.37669694
4.385342969
4.385496594
4.385887189
4.384220568
4.386084094
4.394865542
4.393728318
4.394555765
4.394807705
4.395184195
4.403629975
4.404897799
4.403369032
4.40400114
4.40471899
4.4136237
4.413186482
4.41372826
4.41350076
4.412512252
4.421193823
4.420238706
4.422002852
4.421043917
4.421251345
4.431079455
4.428744325
4.429208165
4.429387126
4.431028371
4.43784992
4.440594755
4.439224623
4.440157706
4.439300755
4.447549089
4.446916448
4.448511045
4.447339047
4.447308455
4.457016402
4.458188533
4.455232705
4.456142593
4.45764732
4.464647023
4.464297512
4.466492002
4.465314138
4.465229943
4.474442461
4.474532729
4.473992704
4.474549694
4.473141141
4.48238451
4.481839028
4.481948448
4.482076883
4.482179874
4.491255269
4.491156071
4.492109669
4.491752528
4.490811457
4.501296283
4.502370004
4.499929674
4.501803183
4.501320964
4.509877949
4.508928434
4.508542066
4.508395768
4.509605969
4.51812538
4.517655668
4.518038701
4.519218177
4.518559749
4.528120665
4.528462395
4.5284869
4.528731465
4.526955912
4.539919395
4.538491661
4.53796565
4.539030316
4.539285458
4.549915659
4.549743964
4.548779809
4.549343191
4.548864378
4.561947118
4.562262059
4.561830797
4.562351603
4.562009208
)
;

boundaryField
{
    upperWall
    {
        type            calculated;
        value           nonuniform List<scalar> 5(4.561947118 4.562262059 4.561830797 4.562351603 4.562009208);
    }
    lowerWall
    {
        type            calculated;
        value           nonuniform List<scalar> 5(3.564425295 3.564594002 3.563945164 3.562862609 3.564965903);
    }
    periodicX_half0
    {
        type            cyclic;
    }
    periodicX_half1
    {
        type            cyclic;
    }
    frontAndBack
    {
        type            empty;
    }
}


// ************************************************************************* //
