/*--------------------------------*- C++ -*----------------------------------*\
| =========                 |                                                 |
| \\      /  F ield         | OpenFOAM: The Open Source CFD Toolbox           |
|  \\    /   O peration     | Version:  v1706                                 |
|   \\  /    A nd           | Web:      www.OpenFOAM.com                      |
|    \\/     M anipulation  |                                                 |
\*---------------------------------------------------------------------------*/
FoamFile
{
    version     2.0;
    format      ascii;
    class       volScalarField;
    location    "5";
    object      mctToDt_mixture;
}
// * * * * * * * * * * * * * * * * * * * * * * * * * * * * * * * * * * * * * //

dimensions      [0 0 0 0 0 0 0];


internalField   nonuniform List<scalar> 
500
(
3.564137256
3.56243673
3.562330394
3.563863541
3.563956724
3.581175108
3.579776182
3.579973166
3.57989577
3.578943724
3.593487951
3.594256202
3.593874815
3.593410851
3.595131411
3.606337367
3.606983057
3.60709491
3.605745144
3.608144121
3.619991528
3.619703206
3.619235806
3.619620369
3.620420279
3.631680292
3.631210907
3.63150057
3.631788025
3.631650308
3.64386763
3.644510322
3.644667531
3.645224889
3.64388551
3.656807283
3.655858713
3.657554879
3.656377291
3.656366236
3.669263935
3.668238503
3.668155072
3.669070172
3.668281779
3.679764571
3.680740964
3.680486864
3.680047354
3.680038388
3.691581123
3.692307313
3.692247439
3.69085097
3.691479711
3.702533322
3.702579624
3.702863675
3.702599548
3.703355965
3.714242436
3.714293153
3.713265814
3.71465678
3.714850484
3.725718913
3.725458123
3.72630593
3.72488703
3.726329739
3.736936163
3.737199313
3.737808136
3.737444329
3.73724944
3.748033398
3.74905945
3.748330117
3.747700439
3.749084559
3.760217402
3.75847394
3.759986054
3.759089126
3.759280825
3.770071623
3.770779831
3.770030236
3.771397695
3.770397215
3.778942478
3.780985029
3.781072559
3.780914824
3.779761715
3.792037731
3.791227344
3.792424724
3.793214532
3.79145909
3.803281231
3.802132589
3.803270948
3.803434018
3.803482346
3.813029702
3.812095951
3.813659015
3.814025341
3.8130837
3.824950379
3.824640084
3.824869699
3.825641146
3.824018233
3.835694806
3.83617685
3.835569727
3.835833286
3.836162442
3.8475377
3.846974616
3.846605019
3.846580002
3.846917034
3.858645402
3.858142194
3.857807509
3.856225515
3.858466067
3.868166431
3.868896297
3.867354736
3.867878338
3.866400609
3.878446776
3.878757158
3.878081433
3.87818183
3.877273668
3.888922428
3.888483277
3.887844367
3.889763544
3.888625648
3.899001289
3.898253021
3.898585481
3.898456645
3.898109361
3.908551369
3.908726811
3.910117051
3.910823591
3.909820909
3.91882637
3.920378499
3.919446738
3.919603503
3.920457343
3.929109782
3.930486657
3.929192011
3.930226967
3.930394531
3.940155336
3.94201823
3.940842647
3.941850148
3.939761846
3.949918666
3.951209772
3.952074804
3.952132901
3.951927227
3.96192321
3.96012074
3.962441077
3.962002648
3.961601162
3.971975061
3.972661745
3.971449626
3.972852864
3.971564785
3.982873788
3.981326184
3.981694577
3.982016791
3.981459067
3.991619912
3.99189881
3.991569582
3.990663029
3.990932592
4.002880461
4.002274975
4.001314192
4.001848033
4.001408074
4.01310701
4.012094459
4.012012196
4.012223166
4.012341051
4.022112447
4.021081265
4.022140836
4.020957196
4.021723578
4.031453866
4.031316529
4.031186119
4.030906745
4.032316841
4.041283101
4.041601928
4.041622322
4.041607553
4.040924803
4.050613351
4.051226473
4.051531525
4.050828548
4.05019847
4.060149531
4.061366767
4.060175922
4.060740664
4.060962772
4.072828479
4.071202281
4.071057164
4.069824752
4.071597762
4.080249945
4.081116637
4.080747166
4.082356935
4.081487454
4.089586151
4.091628354
4.089863386
4.090045592
4.09032013
4.099288252
4.100671444
4.101220519
4.099619918
4.100235497
4.110497896
4.110638551
4.110049547
4.109009048
4.107918755
4.118921231
4.119756222
4.121276144
4.119975586
4.120353783
4.130335528
4.13137629
4.13016906
4.129575042
4.129202487
4.138359779
4.139220132
4.138739817
4.13879149
4.139319264
4.147620817
4.148280111
4.149915619
4.148297898
4.148312322
4.156888245
4.157165918
4.157807272
4.158002576
4.15951373
4.165854927
4.167933198
4.166842273
4.166969333
4.165677371
4.177190615
4.176935648
4.175462787
4.176586402
4.17692556
4.186001261
4.185650769
4.186376921
4.185041152
4.186476497
4.194473266
4.194779947
4.195874946
4.195230861
4.196397369
4.20433645
4.206237763
4.203737298
4.204950264
4.206047132
4.213979541
4.214761058
4.214489146
4.21388147
4.213244781
4.222746883
4.222306836
4.224359895
4.222246985
4.223005805
4.23283592
4.231989442
4.233138193
4.232652653
4.23221626
4.240263101
4.242220287
4.241649219
4.242456778
4.242279357
4.250591997
4.251364181
4.251216229
4.250326491
4.251293927
4.260976028
4.259163627
4.260318781
4.261620381
4.260466533
4.270112875
4.268866285
4.269499426
4.268930105
4.26952613
4.278564868
4.277514927
4.277514878
4.279536879
4.277807576
4.28607251
4.287427357
4.287003908
4.288340956
4.288142656
4.295608171
4.295524742
4.297791014
4.298099752
4.297659222
4.305870998
4.304671718
4.30589751
4.306399697
4.306030749
4.314333692
4.315682682
4.315004616
4.314945362
4.315064763
4.323065037
4.323052145
4.323313387
4.324072893
4.323947637
4.332307714
4.332758564
4.331306549
4.331878994
4.332591234
4.339549568
4.338922033
4.339730074
4.340655827
4.339907109
4.349293267
4.347975188
4.349996225
4.349301058
4.349193678
4.358093322
4.357316924
4.358363992
4.359601564
4.358505427
4.367913907
4.367672483
4.366214643
4.36772008
4.366156831
4.376765417
4.376902096
4.375706144
4.376807526
4.376556483
4.385361534
4.384751198
4.386301625
4.384953503
4.384125349
4.394503203
4.394346194
4.394599152
4.394314064
4.394677187
4.401014386
4.40140854
4.40217578
4.401653507
4.402357098
4.411221491
4.411181603
4.411095274
4.411038721
4.411135195
4.419809236
4.420024959
4.41886039
4.418895591
4.420052949
4.427917901
4.427541126
4.428952486
4.429364299
4.427022141
4.437924497
4.437606194
4.438261955
4.437038023
4.437192514
4.4450941
4.447692213
4.446545768
4.445967578
4.446606472
4.454305111
4.456651711
4.454339696
4.452687547
4.453930713
4.463839108
4.463448985
4.463939434
4.462349473
4.463085587
4.47344322
4.472194483
4.471049766
4.472574558
4.473307279
4.479825949
4.479212526
4.481380838
4.480124577
4.480039868
4.488388162
4.4894752
4.489012502
4.488907539
4.488872991
4.497894615
4.49751727
4.497972271
4.496960752
4.498511289
4.50723725
4.506702511
4.506460862
4.507648274
4.507847707
4.516247552
4.517102768
4.518904151
4.515593599
4.51714768
4.527714659
4.527226378
4.526180515
4.526815269
4.526573728
4.536481533
4.535425256
4.536249005
4.537275581
4.536801176
4.547369138
4.548482586
4.547591534
4.546999097
4.547302193
4.560151014
4.560761118
4.559623697
4.560878406
4.561007181
)
;

boundaryField
{
    upperWall
    {
        type            calculated;
        value           nonuniform List<scalar> 5(4.560151014 4.560761118 4.559623697 4.560878406 4.561007181);
    }
    lowerWall
    {
        type            calculated;
        value           nonuniform List<scalar> 5(3.564137256 3.56243673 3.562330394 3.563863541 3.563956724);
    }
    periodicX_half0
    {
        type            cyclic;
    }
    periodicX_half1
    {
        type            cyclic;
    }
    frontAndBack
    {
        type            empty;
    }
}


// ************************************************************************* //
