/*--------------------------------*- C++ -*----------------------------------*\
| =========                 |                                                 |
| \\      /  F ield         | OpenFOAM: The Open Source CFD Toolbox           |
|  \\    /   O peration     | Version:  v1706                                 |
|   \\  /    A nd           | Web:      www.OpenFOAM.com                      |
|    \\/     M anipulation  |                                                 |
\*---------------------------------------------------------------------------*/
FoamFile
{
    version     2.0;
    format      ascii;
    class       volScalarField;
    location    "5";
    object      meanCollisionTime_O2;
}
// * * * * * * * * * * * * * * * * * * * * * * * * * * * * * * * * * * * * * //

dimensions      [0 0 1 0 0 0 0];


internalField   nonuniform List<scalar> 
500
(
0.0001938489501
0.0001938124634
0.0001939464324
0.0001937632989
0.0001938743766
0.0001947467734
0.0001948209479
0.0001947904864
0.0001947665433
0.0001947996311
0.000195699569
0.0001955559058
0.0001956481694
0.0001956333593
0.0001955956025
0.0001962809178
0.0001964655404
0.0001964188552
0.0001962744755
0.0001964253443
0.0001971162295
0.0001970814345
0.0001971122474
0.0001970246631
0.0001970834783
0.0001978551788
0.0001979128397
0.0001977731769
0.0001977241747
0.0001976328554
0.0001985439535
0.0001986234453
0.0001985005193
0.000198509022
0.0001984622841
0.0001992176187
0.0001992681314
0.0001992906207
0.0001992550368
0.0001992693917
0.0001999018013
0.0001998582299
0.0001999857178
0.000199931834
0.0001998725183
0.0002005030154
0.0002006227724
0.0002005980872
0.0002005929213
0.0002005413222
0.000201318799
0.0002011311981
0.0002011745179
0.0002011790642
0.0002012097231
0.00020185984
0.0002018588359
0.0002018105025
0.0002017880731
0.0002018885325
0.0002023940282
0.0002024862315
0.0002024214113
0.0002025787219
0.0002024792939
0.0002031224968
0.0002030860158
0.0002030484352
0.0002031787249
0.0002032120611
0.0002039129984
0.0002036845981
0.0002037575334
0.0002037935546
0.0002036190851
0.0002043334293
0.0002045520103
0.0002044368988
0.000204302834
0.0002043017223
0.0002051099445
0.0002051695947
0.0002048856385
0.0002050463171
0.0002050501097
0.0002056944924
0.0002056568049
0.0002055797343
0.000205795098
0.0002057898949
0.0002062361908
0.000206343984
0.0002062945665
0.0002062735779
0.0002063185695
0.0002067814433
0.0002069314692
0.0002068459734
0.0002069180567
0.0002067548552
0.0002073598068
0.0002074983763
0.0002076801054
0.0002075394482
0.0002074457057
0.0002081359528
0.0002082181281
0.0002081205969
0.0002082022104
0.0002080964984
0.0002088104565
0.0002089538798
0.0002088657436
0.0002087339518
0.0002085874436
0.0002093390794
0.0002094258373
0.0002094410917
0.0002093868635
0.0002092653739
0.0002098414584
0.000209953614
0.0002099489805
0.0002099071589
0.0002099782453
0.0002106541715
0.0002107169129
0.0002105207442
0.0002107050546
0.0002106139228
0.0002112017742
0.000211225937
0.0002112422294
0.0002112970826
0.0002110777561
0.000211825464
0.000211868137
0.0002117661793
0.0002117879911
0.0002119064984
0.0002125759127
0.0002125565835
0.0002125064385
0.0002125107309
0.0002125215932
0.0002131503181
0.0002131069902
0.0002130418539
0.0002130726814
0.0002130601254
0.00021369655
0.0002136262301
0.0002136508268
0.0002138166101
0.000213674916
0.0002143378002
0.0002142527972
0.0002142214752
0.0002142644705
0.0002143183794
0.0002149498891
0.0002149583817
0.0002147899449
0.0002145530056
0.0002148576647
0.0002155222049
0.0002154589403
0.0002154760876
0.0002153989803
0.0002153123698
0.0002160459776
0.0002160792031
0.0002159487543
0.0002159112412
0.0002160382865
0.0002166858423
0.0002165494917
0.0002167241942
0.000216639625
0.0002163975004
0.000217122564
0.0002171729004
0.0002171277311
0.0002170332782
0.0002170837017
0.0002177716191
0.0002179006292
0.000217853596
0.000217643238
0.0002176181269
0.0002184585858
0.0002183924532
0.0002183371212
0.0002182541368
0.0002183646339
0.0002190216042
0.0002189365495
0.0002188225104
0.0002188789427
0.000219014187
0.0002195868962
0.0002195186795
0.0002196221763
0.0002196038929
0.0002195252587
0.0002202654444
0.0002201499661
0.0002201571743
0.0002202381927
0.0002201758192
0.0002206368435
0.0002208506084
0.000220797193
0.0002207023542
0.000220649175
0.0002210687481
0.0002212723945
0.0002211506275
0.0002212257618
0.0002211999313
0.0002218005656
0.0002216951097
0.0002218775199
0.0002219448705
0.00022184068
0.0002224830468
0.0002224618908
0.0002223808624
0.0002222717964
0.0002223971984
0.0002228237607
0.0002230274536
0.0002230545894
0.0002229659386
0.0002229149221
0.0002234588731
0.0002235797983
0.0002235507223
0.0002237617432
0.0002235364132
0.0002240314587
0.0002240937291
0.0002242631912
0.0002241657518
0.0002243695641
0.0002247244945
0.0002246305184
0.0002246563292
0.0002249220685
0.0002247623029
0.0002251866954
0.0002252654105
0.0002253503471
0.0002253540462
0.0002254772804
0.0002258218519
0.0002258141519
0.0002259897882
0.000225865892
0.0002258841601
0.0002265314657
0.0002264067888
0.0002266087518
0.0002264871833
0.0002263695262
0.000227003412
0.0002269294614
0.0002270470808
0.0002270253238
0.0002270020476
0.000227503854
0.0002275240513
0.0002275844546
0.0002275230151
0.0002274245146
0.0002280681239
0.0002281149633
0.0002280440828
0.0002279843414
0.0002280060577
0.0002286969136
0.0002286291819
0.0002285336273
0.0002285629338
0.0002286952264
0.0002292681416
0.0002290228923
0.0002291466688
0.000229077841
0.0002292653402
0.0002297801518
0.0002298542964
0.0002298046258
0.0002297776457
0.0002296652931
0.0002302677852
0.0002301446771
0.0002303063896
0.0002302194397
0.0002302247283
0.0002305700046
0.0002307783076
0.0002308207849
0.0002307920064
0.0002307079891
0.0002312629041
0.0002313167085
0.0002313650037
0.0002313867016
0.0002314022636
0.0002317349424
0.0002319043393
0.0002319792111
0.0002317950358
0.0002318662165
0.0002323068146
0.0002322091505
0.0002323994598
0.0002324048009
0.0002323844906
0.0002329343805
0.0002329035377
0.0002329176328
0.000232994833
0.0002328267185
0.0002334599087
0.0002335221012
0.0002335027301
0.0002333383863
0.0002333210438
0.0002340713688
0.0002339361068
0.0002340730296
0.0002339001606
0.0002339283745
0.0002345525916
0.0002344888901
0.0002344978826
0.000234722713
0.0002344611137
0.0002350977313
0.0002350676259
0.0002352286522
0.0002350768348
0.0002351825308
0.0002356929298
0.0002356570079
0.0002357789208
0.0002356817423
0.0002354740743
0.0002361381397
0.0002363511442
0.0002363095853
0.0002361139819
0.000236118258
0.0002366107787
0.0002366100327
0.0002365904068
0.0002365959132
0.0002366430504
0.0002371126512
0.00023726283
0.0002371453392
0.0002371999547
0.0002371732283
0.0002376902167
0.0002377934729
0.0002375520769
0.0002379012488
0.0002375326644
0.0002382453038
0.0002382514978
0.0002382331003
0.0002381985063
0.000238220884
0.0002386506796
0.0002387710441
0.0002385653992
0.0002386150796
0.0002386776102
0.0002392626644
0.0002392665393
0.0002393039408
0.0002393333943
0.0002392491537
0.0002398430327
0.0002397640396
0.000239751447
0.0002399353592
0.0002397347083
0.0002404037616
0.0002404342009
0.0002403870319
0.0002402566418
0.0002402465066
0.0002408104077
0.0002407762496
0.000240791424
0.0002408072831
0.0002408057603
0.0002413034515
0.0002414187559
0.0002414361067
0.0002415052452
0.000241335378
0.0002418280679
0.0002417297425
0.0002418170781
0.0002419210484
0.0002418165122
0.0002424081857
0.0002425743633
0.0002423506979
0.0002425061151
0.0002423927603
0.0002431995665
0.0002430881582
0.0002429716791
0.0002429683631
0.0002431804961
0.0002433990341
0.0002432758109
0.0002435135242
0.0002435750147
0.000243502142
0.0002440555532
0.0002438852202
0.000243892156
0.0002440350972
0.0002439571457
0.0002445269462
0.0002445828799
0.0002445823985
0.0002445174484
0.0002444748521
0.0002450407571
0.0002449201986
0.0002448748072
0.0002449382937
0.0002448870178
0.0002454270217
0.0002455236709
0.0002454990095
0.0002454416885
0.0002453599783
0.0002459214803
0.000245987116
0.0002458908158
0.0002459009658
0.0002458958145
0.0002464734904
0.0002464962236
0.0002464415026
0.0002464794005
0.000246325151
0.0002469136062
0.00024695929
0.0002469171937
0.0002468333501
0.0002467645106
0.0002474253617
0.0002474539215
0.0002473481862
0.0002475336332
0.0002474121905
0.0002480663031
0.0002479425381
0.0002479513618
0.0002479735911
0.0002479779006
0.0002483204132
0.0002483583039
0.0002483380686
0.0002483786438
0.0002482001361
0.0002488421397
0.0002487713827
0.0002487786826
0.0002489673548
0.0002488022152
0.0002492234963
0.0002494907842
0.0002493846363
0.0002493798655
0.0002492859616
0.0002500657881
0.0002498413626
0.0002498831683
0.0002501014795
0.0002499519818
0.0002506589986
0.0002505390754
0.0002504670939
0.0002506046693
0.0002505005947
0.0002512710004
0.0002513244441
0.0002513523048
0.0002514347957
0.0002514521896
)
;

boundaryField
{
    upperWall
    {
        type            calculated;
        value           nonuniform List<scalar> 5(0.0002512710004 0.0002513244441 0.0002513523048 0.0002514347957 0.0002514521896);
    }
    lowerWall
    {
        type            calculated;
        value           nonuniform List<scalar> 5(0.0001938489501 0.0001938124634 0.0001939464324 0.0001937632989 0.0001938743766);
    }
    periodicX_half0
    {
        type            cyclic;
    }
    periodicX_half1
    {
        type            cyclic;
    }
    frontAndBack
    {
        type            empty;
    }
}


// ************************************************************************* //
