/*--------------------------------*- C++ -*----------------------------------*\
| =========                 |                                                 |
| \\      /  F ield         | OpenFOAM: The Open Source CFD Toolbox           |
|  \\    /   O peration     | Version:  v1706                                 |
|   \\  /    A nd           | Web:      www.OpenFOAM.com                      |
|    \\/     M anipulation  |                                                 |
\*---------------------------------------------------------------------------*/
FoamFile
{
    version     2.0;
    format      ascii;
    class       volScalarField;
    location    "5";
    object      meanCollisionTime_mixture;
}
// * * * * * * * * * * * * * * * * * * * * * * * * * * * * * * * * * * * * * //

dimensions      [0 0 1 0 0 0 0];


internalField   nonuniform List<scalar> 
500
(
3.564425295e-05
3.564594002e-05
3.563945164e-05
3.562862609e-05
3.564965903e-05
3.580263761e-05
3.581039774e-05
3.581339962e-05
3.580254318e-05
3.580601084e-05
3.594880931e-05
3.594964367e-05
3.59492141e-05
3.594967256e-05
3.594088652e-05
3.607481323e-05
3.607469072e-05
3.607766083e-05
3.60762409e-05
3.608215766e-05
3.620224203e-05
3.620077658e-05
3.62066998e-05
3.620368962e-05
3.620324729e-05
3.633303395e-05
3.633629141e-05
3.632968944e-05
3.633138444e-05
3.632564535e-05
3.645363418e-05
3.647094069e-05
3.645841965e-05
3.645558557e-05
3.645122842e-05
3.656708263e-05
3.657615798e-05
3.658510627e-05
3.658007312e-05
3.658183741e-05
3.669196887e-05
3.66934671e-05
3.669678333e-05
3.669932025e-05
3.669163913e-05
3.68120417e-05
3.680478979e-05
3.681894515e-05
3.681475525e-05
3.680163992e-05
3.692159622e-05
3.692196061e-05
3.692303316e-05
3.691767441e-05
3.69195314e-05
3.704491979e-05
3.70314724e-05
3.703700927e-05
3.704196169e-05
3.703586071e-05
3.715465842e-05
3.715019273e-05
3.714486839e-05
3.71558132e-05
3.715419722e-05
3.726077696e-05
3.72619428e-05
3.72619751e-05
3.726162024e-05
3.726915061e-05
3.73810149e-05
3.736556054e-05
3.737014434e-05
3.73735005e-05
3.736883585e-05
3.749149189e-05
3.748717692e-05
3.747982167e-05
3.748451561e-05
3.748698747e-05
3.760308554e-05
3.75989572e-05
3.759497753e-05
3.759639366e-05
3.759440686e-05
3.77026496e-05
3.77132627e-05
3.770366426e-05
3.771262844e-05
3.771014976e-05
3.781366165e-05
3.782473145e-05
3.782231152e-05
3.782586992e-05
3.78309744e-05
3.792380473e-05
3.793193685e-05
3.792302739e-05
3.792517069e-05
3.792974451e-05
3.804053724e-05
3.805392795e-05
3.804653289e-05
3.804466097e-05
3.803305874e-05
3.814858949e-05
3.815081861e-05
3.814506822e-05
3.81555294e-05
3.814653312e-05
3.82686165e-05
3.826168629e-05
3.825908496e-05
3.825683628e-05
3.827015723e-05
3.837217651e-05
3.837076211e-05
3.837761136e-05
3.836400084e-05
3.835386975e-05
3.845869854e-05
3.848121618e-05
3.847064194e-05
3.848119316e-05
3.846537924e-05
3.858722868e-05
3.857858016e-05
3.857114306e-05
3.857500859e-05
3.858248671e-05
3.869765631e-05
3.869349951e-05
3.868404546e-05
3.868823459e-05
3.86855775e-05
3.879815788e-05
3.878520425e-05
3.877548047e-05
3.877412945e-05
3.880186297e-05
3.889852709e-05
3.890228577e-05
3.890173066e-05
3.888556332e-05
3.890021198e-05
3.899955783e-05
3.900605258e-05
3.900798954e-05
3.900894763e-05
3.900705865e-05
3.911232132e-05
3.911214102e-05
3.911210013e-05
3.912610628e-05
3.912257752e-05
3.922288193e-05
3.92301778e-05
3.922045016e-05
3.921973651e-05
3.922412793e-05
3.931975379e-05
3.933618668e-05
3.931237542e-05
3.931340596e-05
3.932050833e-05
3.942405683e-05
3.943276908e-05
3.943206113e-05
3.941564758e-05
3.942626731e-05
3.952559364e-05
3.953304404e-05
3.951981352e-05
3.951809377e-05
3.951758711e-05
3.962194925e-05
3.96215779e-05
3.962814903e-05
3.962772089e-05
3.961658081e-05
3.971669804e-05
3.972950832e-05
3.972417597e-05
3.97240645e-05
3.973204817e-05
3.983316623e-05
3.98276524e-05
3.983640992e-05
3.983036087e-05
3.983521868e-05
3.993342727e-05
3.993055591e-05
3.992107076e-05
3.993053654e-05
3.994202593e-05
4.003082651e-05
4.002916572e-05
4.002392203e-05
4.002730381e-05
4.004498318e-05
4.013887142e-05
4.012952769e-05
4.012012625e-05
4.012705623e-05
4.013610044e-05
4.0230824e-05
4.021861049e-05
4.021922681e-05
4.023200241e-05
4.022880675e-05
4.033006714e-05
4.032708631e-05
4.032907239e-05
4.034161157e-05
4.034085445e-05
4.042174679e-05
4.042351681e-05
4.041507608e-05
4.042328957e-05
4.042189541e-05
4.053501143e-05
4.052384635e-05
4.053209174e-05
4.053774974e-05
4.053656322e-05
4.063033216e-05
4.06177689e-05
4.061634847e-05
4.062290843e-05
4.062494034e-05
4.072439565e-05
4.071749255e-05
4.071878362e-05
4.071101688e-05
4.071697759e-05
4.081669721e-05
4.08150489e-05
4.080825027e-05
4.081692752e-05
4.082431805e-05
4.091086275e-05
4.090790046e-05
4.09045613e-05
4.09004624e-05
4.091565788e-05
4.101618534e-05
4.100966275e-05
4.100885182e-05
4.101210141e-05
4.101159936e-05
4.110477311e-05
4.111565931e-05
4.111573627e-05
4.111376468e-05
4.112799206e-05
4.120381646e-05
4.12100102e-05
4.121665633e-05
4.120553768e-05
4.121309507e-05
4.129915207e-05
4.131100953e-05
4.131058922e-05
4.130133166e-05
4.130680253e-05
4.140429226e-05
4.140512953e-05
4.141242471e-05
4.140267727e-05
4.140061545e-05
4.149633191e-05
4.15067892e-05
4.15023513e-05
4.148903044e-05
4.149032078e-05
4.158519979e-05
4.15894645e-05
4.15902373e-05
4.159138605e-05
4.158569162e-05
4.168675065e-05
4.169271582e-05
4.168952742e-05
4.168595609e-05
4.170192121e-05
4.176931333e-05
4.17650014e-05
4.176598381e-05
4.177615914e-05
4.177387547e-05
4.186560012e-05
4.186505061e-05
4.186497467e-05
4.18690452e-05
4.186934237e-05
4.195977596e-05
4.195857906e-05
4.197505212e-05
4.196543731e-05
4.195886942e-05
4.204733219e-05
4.204137899e-05
4.206628513e-05
4.20530155e-05
4.205265216e-05
4.213253746e-05
4.21409274e-05
4.213934926e-05
4.214823723e-05
4.214117977e-05
4.222162333e-05
4.224175647e-05
4.223898623e-05
4.223452358e-05
4.223916175e-05
4.232736312e-05
4.232622991e-05
4.233513206e-05
4.231458178e-05
4.234263027e-05
4.241831586e-05
4.242087802e-05
4.242699294e-05
4.241956417e-05
4.242955099e-05
4.251038066e-05
4.251478021e-05
4.251209084e-05
4.251951174e-05
4.251326176e-05
4.260008517e-05
4.261687711e-05
4.260956247e-05
4.259451653e-05
4.260646772e-05
4.270721221e-05
4.271636988e-05
4.26821828e-05
4.270637808e-05
4.269131482e-05
4.278532975e-05
4.27885481e-05
4.280015607e-05
4.279225093e-05
4.278024872e-05
4.288903803e-05
4.289105541e-05
4.290391519e-05
4.288500957e-05
4.286847495e-05
4.295294005e-05
4.298047578e-05
4.297665106e-05
4.296498024e-05
4.296669553e-05
4.30431207e-05
4.304328146e-05
4.304657334e-05
4.306532195e-05
4.305490641e-05
4.313740405e-05
4.314988675e-05
4.313899106e-05
4.313528477e-05
4.314918243e-05
4.322469433e-05
4.323125541e-05
4.322508169e-05
4.325237366e-05
4.324469866e-05
4.332671387e-05
4.332664622e-05
4.332861546e-05
4.331477504e-05
4.333489104e-05
4.340695578e-05
4.342101165e-05
4.341945558e-05
4.341233433e-05
4.342190848e-05
4.350352069e-05
4.350095408e-05
4.351498493e-05
4.351528151e-05
4.348726889e-05
4.359791339e-05
4.360038172e-05
4.359395498e-05
4.359455475e-05
4.359371366e-05
4.370114194e-05
4.369452168e-05
4.369600833e-05
4.368287078e-05
4.368526998e-05
4.377083367e-05
4.376554372e-05
4.377316438e-05
4.377116472e-05
4.37669694e-05
4.385342969e-05
4.385496594e-05
4.385887189e-05
4.384220568e-05
4.386084094e-05
4.394865542e-05
4.393728318e-05
4.394555765e-05
4.394807705e-05
4.395184195e-05
4.403629975e-05
4.404897799e-05
4.403369032e-05
4.40400114e-05
4.40471899e-05
4.4136237e-05
4.413186482e-05
4.41372826e-05
4.41350076e-05
4.412512252e-05
4.421193823e-05
4.420238706e-05
4.422002852e-05
4.421043917e-05
4.421251345e-05
4.431079455e-05
4.428744325e-05
4.429208165e-05
4.429387126e-05
4.431028371e-05
4.43784992e-05
4.440594755e-05
4.439224623e-05
4.440157706e-05
4.439300755e-05
4.447549089e-05
4.446916448e-05
4.448511045e-05
4.447339047e-05
4.447308455e-05
4.457016402e-05
4.458188533e-05
4.455232705e-05
4.456142593e-05
4.45764732e-05
4.464647023e-05
4.464297512e-05
4.466492002e-05
4.465314138e-05
4.465229943e-05
4.474442461e-05
4.474532729e-05
4.473992704e-05
4.474549694e-05
4.473141141e-05
4.48238451e-05
4.481839028e-05
4.481948448e-05
4.482076883e-05
4.482179874e-05
4.491255269e-05
4.491156071e-05
4.492109669e-05
4.491752528e-05
4.490811457e-05
4.501296283e-05
4.502370004e-05
4.499929674e-05
4.501803183e-05
4.501320964e-05
4.509877949e-05
4.508928434e-05
4.508542066e-05
4.508395768e-05
4.509605969e-05
4.51812538e-05
4.517655668e-05
4.518038701e-05
4.519218177e-05
4.518559749e-05
4.528120665e-05
4.528462395e-05
4.5284869e-05
4.528731465e-05
4.526955912e-05
4.539919395e-05
4.538491661e-05
4.53796565e-05
4.539030316e-05
4.539285458e-05
4.549915659e-05
4.549743964e-05
4.548779809e-05
4.549343191e-05
4.548864378e-05
4.561947118e-05
4.562262059e-05
4.561830797e-05
4.562351603e-05
4.562009208e-05
)
;

boundaryField
{
    upperWall
    {
        type            calculated;
        value           nonuniform List<scalar> 5(4.561947118e-05 4.562262059e-05 4.561830797e-05 4.562351603e-05 4.562009208e-05);
    }
    lowerWall
    {
        type            calculated;
        value           nonuniform List<scalar> 5(3.564425295e-05 3.564594002e-05 3.563945164e-05 3.562862609e-05 3.564965903e-05);
    }
    periodicX_half0
    {
        type            cyclic;
    }
    periodicX_half1
    {
        type            cyclic;
    }
    frontAndBack
    {
        type            empty;
    }
}


// ************************************************************************* //
