/*--------------------------------*- C++ -*----------------------------------*\
| =========                 |                                                 |
| \\      /  F ield         | OpenFOAM: The Open Source CFD Toolbox           |
|  \\    /   O peration     | Version:  v1706                                 |
|   \\  /    A nd           | Web:      www.OpenFOAM.com                      |
|    \\/     M anipulation  |                                                 |
\*---------------------------------------------------------------------------*/
FoamFile
{
    version     2.0;
    format      ascii;
    class       volScalarField;
    location    "5";
    object      meanCollisionTime_N2;
}
// * * * * * * * * * * * * * * * * * * * * * * * * * * * * * * * * * * * * * //

dimensions      [0 0 1 0 0 0 0];


internalField   nonuniform List<scalar> 
500
(
4.363120955e-05
4.363549364e-05
4.361905204e-05
4.361237295e-05
4.363756306e-05
4.38235193e-05
4.383057781e-05
4.38366994e-05
4.38214268e-05
4.382542136e-05
4.399375445e-05
4.400209551e-05
4.399684726e-05
4.399843741e-05
4.398705857e-05
4.415302831e-05
4.414342122e-05
4.415031587e-05
4.415557513e-05
4.415677988e-05
4.430156196e-05
4.430142626e-05
4.430882603e-05
4.430861464e-05
4.430475553e-05
4.446004679e-05
4.446250915e-05
4.445975722e-05
4.44644495e-05
4.44602998e-05
4.460603521e-05
4.462803198e-05
4.461543888e-05
4.461078266e-05
4.460648548e-05
4.474207834e-05
4.475324541e-05
4.476549142e-05
4.47596552e-05
4.476175237e-05
4.489442405e-05
4.489890458e-05
4.489765667e-05
4.490393293e-05
4.48958006e-05
4.504391448e-05
4.502674745e-05
4.504948112e-05
4.504399398e-05
4.502683224e-05
4.516720758e-05
4.517651533e-05
4.517625122e-05
4.516835724e-05
4.516959652e-05
4.532449794e-05
4.530426124e-05
4.531518431e-05
4.532355658e-05
4.530946695e-05
4.546176553e-05
4.545020399e-05
4.544602135e-05
4.545409269e-05
4.545659754e-05
4.558445091e-05
4.558750707e-05
4.558955781e-05
4.558257511e-05
4.559161741e-05
4.572419781e-05
4.571227556e-05
4.571571146e-05
4.571873284e-05
4.572089514e-05
4.586820911e-05
4.585107365e-05
4.584543966e-05
4.585897521e-05
4.586269966e-05
4.599648729e-05
4.598731969e-05
4.59949631e-05
4.59890982e-05
4.598577265e-05
4.611573069e-05
4.613338656e-05
4.612311329e-05
4.612569307e-05
4.612236875e-05
4.625453586e-05
4.626586447e-05
4.626414951e-05
4.627113289e-05
4.627617806e-05
4.639218867e-05
4.639719647e-05
4.638778409e-05
4.638710437e-05
4.640175339e-05
4.653765839e-05
4.655070634e-05
4.653029148e-05
4.653499918e-05
4.652219512e-05
4.666039353e-05
4.665976902e-05
4.665641194e-05
4.666768456e-05
4.665944276e-05
4.680648506e-05
4.678851263e-05
4.678924862e-05
4.679261895e-05
4.681913566e-05
4.693497263e-05
4.692829527e-05
4.69378042e-05
4.692006444e-05
4.691087523e-05
4.703873679e-05
4.706679658e-05
4.705085237e-05
4.706873241e-05
4.704173641e-05
4.719036134e-05
4.717455364e-05
4.717259133e-05
4.716963856e-05
4.718531969e-05
4.732775825e-05
4.732083831e-05
4.73052733e-05
4.730851151e-05
4.731582084e-05
4.744712955e-05
4.742520944e-05
4.741634267e-05
4.741265055e-05
4.744839216e-05
4.755955983e-05
4.756617586e-05
4.756786076e-05
4.754338159e-05
4.756446234e-05
4.768187015e-05
4.769430243e-05
4.770016117e-05
4.769962261e-05
4.769769778e-05
4.782309583e-05
4.782659499e-05
4.782470949e-05
4.783758378e-05
4.783948995e-05
4.79565734e-05
4.797135475e-05
4.795856493e-05
4.795530899e-05
4.795927953e-05
4.807055774e-05
4.809467106e-05
4.806775154e-05
4.808051328e-05
4.807640667e-05
4.819774821e-05
4.821456522e-05
4.821213653e-05
4.819095572e-05
4.821146555e-05
4.832345655e-05
4.83330021e-05
4.831986047e-05
4.831863191e-05
4.831154967e-05
4.843528447e-05
4.844150669e-05
4.844233863e-05
4.844599966e-05
4.844169896e-05
4.855517865e-05
4.857171361e-05
4.856559977e-05
4.857022215e-05
4.857955114e-05
4.8697295e-05
4.868221539e-05
4.869749334e-05
4.869920051e-05
4.870739704e-05
4.881273549e-05
4.881186777e-05
4.880029065e-05
4.881857351e-05
4.882991619e-05
4.892996726e-05
4.893159227e-05
4.892970307e-05
4.893153837e-05
4.895102129e-05
4.906270672e-05
4.905283318e-05
4.903386544e-05
4.904460084e-05
4.906200759e-05
4.916715297e-05
4.915442898e-05
4.915453206e-05
4.917039959e-05
4.916827714e-05
4.929654957e-05
4.928169687e-05
4.928716854e-05
4.93108346e-05
4.931190839e-05
4.94122872e-05
4.940468471e-05
4.939807474e-05
4.940626404e-05
4.940559248e-05
4.954496217e-05
4.953361287e-05
4.953702107e-05
4.954168491e-05
4.954466727e-05
4.96535898e-05
4.963595231e-05
4.963746075e-05
4.965233566e-05
4.964950289e-05
4.977719062e-05
4.975616621e-05
4.975727342e-05
4.975024863e-05
4.9761384e-05
4.988353877e-05
4.98746815e-05
4.986594258e-05
4.986863096e-05
4.989103325e-05
4.99954135e-05
4.998784315e-05
4.997416987e-05
4.997316802e-05
4.998658063e-05
5.011862031e-05
5.011324157e-05
5.011069503e-05
5.010237949e-05
5.010990383e-05
5.022706243e-05
5.023900341e-05
5.023563414e-05
5.023278879e-05
5.024842035e-05
5.034327668e-05
5.035352186e-05
5.035470972e-05
5.034428901e-05
5.035445689e-05
5.045048372e-05
5.047493358e-05
5.046400674e-05
5.04563184e-05
5.046990491e-05
5.058405139e-05
5.058940543e-05
5.059442942e-05
5.058130239e-05
5.057865495e-05
5.069693609e-05
5.071155355e-05
5.070226965e-05
5.068547039e-05
5.069184808e-05
5.080193604e-05
5.080593289e-05
5.081043802e-05
5.0815562e-05
5.080550659e-05
5.092191545e-05
5.09346836e-05
5.093449616e-05
5.092793294e-05
5.094503013e-05
5.101728659e-05
5.102319528e-05
5.101799924e-05
5.103692591e-05
5.102430463e-05
5.113559258e-05
5.113105095e-05
5.113350024e-05
5.114062605e-05
5.114666553e-05
5.125156857e-05
5.125605522e-05
5.127218144e-05
5.126251601e-05
5.125230579e-05
5.136754706e-05
5.134857299e-05
5.138295061e-05
5.136507532e-05
5.136901806e-05
5.146033898e-05
5.147042363e-05
5.146550886e-05
5.147798236e-05
5.146724934e-05
5.156981336e-05
5.159192561e-05
5.158435566e-05
5.158649347e-05
5.159009061e-05
5.169998508e-05
5.170261499e-05
5.170652088e-05
5.167598897e-05
5.17185773e-05
5.180396184e-05
5.180999676e-05
5.181836564e-05
5.18034171e-05
5.182656501e-05
5.191578307e-05
5.191893861e-05
5.191577756e-05
5.193483478e-05
5.192660117e-05
5.20194341e-05
5.205108488e-05
5.203309563e-05
5.201930678e-05
5.203564927e-05
5.215509415e-05
5.217207982e-05
5.212104012e-05
5.214594025e-05
5.213605322e-05
5.224451341e-05
5.225120151e-05
5.226103406e-05
5.225720305e-05
5.223323916e-05
5.237115468e-05
5.237527628e-05
5.238809608e-05
5.236488909e-05
5.235047445e-05
5.244346272e-05
5.2474003e-05
5.247005542e-05
5.246246505e-05
5.246512833e-05
5.255421243e-05
5.255479294e-05
5.256079173e-05
5.258850345e-05
5.257046892e-05
5.267023581e-05
5.268190752e-05
5.267142374e-05
5.266295589e-05
5.268501862e-05
5.2772027e-05
5.2776799e-05
5.277982655e-05
5.280257955e-05
5.280983643e-05
5.289648314e-05
5.289642348e-05
5.290015842e-05
5.288126861e-05
5.291056101e-05
5.29962777e-05
5.30115955e-05
5.301901833e-05
5.300617688e-05
5.301722023e-05
5.310998238e-05
5.310579278e-05
5.312535085e-05
5.31245712e-05
5.308637097e-05
5.322216501e-05
5.322979749e-05
5.322070305e-05
5.321310044e-05
5.322153826e-05
5.334892674e-05
5.333700309e-05
5.334161626e-05
5.332821042e-05
5.333251098e-05
5.343298699e-05
5.342611766e-05
5.343661014e-05
5.34326143e-05
5.34264228e-05
5.353090741e-05
5.352770781e-05
5.353283491e-05
5.350484179e-05
5.35406544e-05
5.364728273e-05
5.363538632e-05
5.364332401e-05
5.36411392e-05
5.365277381e-05
5.374983099e-05
5.376113242e-05
5.374914808e-05
5.375011486e-05
5.376689667e-05
5.385986475e-05
5.385863357e-05
5.387292791e-05
5.386915561e-05
5.384447676e-05
5.3963166e-05
5.395450151e-05
5.396933313e-05
5.395165266e-05
5.395840206e-05
5.407766473e-05
5.405077612e-05
5.405792083e-05
5.40535676e-05
5.408143438e-05
5.415513615e-05
5.419284647e-05
5.417273383e-05
5.419024045e-05
5.417933148e-05
5.427455097e-05
5.427090142e-05
5.42966527e-05
5.427643054e-05
5.427832712e-05
5.439623448e-05
5.440951245e-05
5.436665694e-05
5.438247639e-05
5.440923058e-05
5.448595599e-05
5.447788362e-05
5.451507627e-05
5.449664596e-05
5.449627037e-05
5.460500377e-05
5.460596216e-05
5.459988572e-05
5.460592578e-05
5.459252644e-05
5.470170145e-05
5.469144762e-05
5.469573297e-05
5.470117128e-05
5.470564072e-05
5.480862056e-05
5.480611391e-05
5.482586279e-05
5.481129378e-05
5.480291405e-05
5.492676473e-05
5.494871146e-05
5.491204509e-05
5.49393582e-05
5.493158879e-05
5.504162357e-05
5.502606649e-05
5.502102411e-05
5.501721127e-05
5.504378284e-05
5.513923378e-05
5.513533795e-05
5.514038881e-05
5.514902811e-05
5.514744163e-05
5.526885516e-05
5.526154591e-05
5.526737126e-05
5.527090002e-05
5.524891218e-05
5.540408253e-05
5.539347633e-05
5.538355666e-05
5.538849431e-05
5.539981455e-05
5.552304135e-05
5.552661351e-05
5.551598815e-05
5.551789788e-05
5.551544744e-05
5.567243382e-05
5.567435029e-05
5.566648067e-05
5.567079002e-05
5.566436798e-05
)
;

boundaryField
{
    upperWall
    {
        type            calculated;
        value           nonuniform List<scalar> 5(5.567243382e-05 5.567435029e-05 5.566648067e-05 5.567079002e-05 5.566436798e-05);
    }
    lowerWall
    {
        type            calculated;
        value           nonuniform List<scalar> 5(4.363120955e-05 4.363549364e-05 4.361905204e-05 4.361237295e-05 4.363756306e-05);
    }
    periodicX_half0
    {
        type            cyclic;
    }
    periodicX_half1
    {
        type            cyclic;
    }
    frontAndBack
    {
        type            empty;
    }
}


// ************************************************************************* //
