/*--------------------------------*- C++ -*----------------------------------*\
| =========                 |                                                 |
| \\      /  F ield         | OpenFOAM: The Open Source CFD Toolbox           |
|  \\    /   O peration     | Version:  v1706                                 |
|   \\  /    A nd           | Web:      www.OpenFOAM.com                      |
|    \\/     M anipulation  |                                                 |
\*---------------------------------------------------------------------------*/
FoamFile
{
    version     2.0;
    format      ascii;
    class       volScalarField;
    location    "5";
    object      mfp_mixture;
}
// * * * * * * * * * * * * * * * * * * * * * * * * * * * * * * * * * * * * * //

dimensions      [0 1 0 0 0 0 0];


internalField   nonuniform List<scalar> 
500
(
0.04405853465
0.04403758521
0.04403484336
0.04405215148
0.04405690044
0.04442877484
0.04440757519
0.04441046195
0.04441412569
0.04439842777
0.0447211736
0.04472316384
0.04471857287
0.04471371319
0.04473349935
0.044992862
0.045004703
0.04500746707
0.04498809458
0.0450234527
0.04527532555
0.04527869073
0.04527248042
0.04527723701
0.04528337871
0.0455389422
0.04553554233
0.04554000314
0.04554193908
0.04553910474
0.04580786023
0.04580948548
0.04581357507
0.04581845203
0.04579826141
0.04607096024
0.04605926276
0.04608511686
0.04606817364
0.04606825628
0.04633260406
0.04632390122
0.04632095034
0.04633334665
0.04632568714
0.04657436025
0.04658392326
0.04658343381
0.04656711684
0.04657744214
0.04681492188
0.04683036575
0.04682647753
0.04681319706
0.04681942685
0.04706480456
0.04706176477
0.04706047118
0.04706119885
0.04707076576
0.04731086903
0.04731270912
0.0472984586
0.04731061904
0.0473195537
0.04754888969
0.04755125086
0.04756504307
0.04755055056
0.04756569725
0.04779762778
0.04779819752
0.04780554092
0.04780069008
0.04780376492
0.04803457345
0.04804664004
0.04804571694
0.04803192914
0.04804733214
0.0482951756
0.04826631101
0.04829089414
0.04828090737
0.04828203845
0.0485161885
0.04852319349
0.04850694409
0.04853456286
0.04852206318
0.04873234261
0.04875604544
0.04874842555
0.04875314452
0.04873971146
0.0489917711
0.04898330682
0.04899636343
0.04900908535
0.04898985198
0.04923523681
0.04922180844
0.04923255065
0.04924295363
0.04923341741
0.049448829
0.04943676833
0.04946359125
0.0494732802
0.04944769648
0.04969509188
0.04969495935
0.04970743158
0.0497159206
0.04969169764
0.04994070038
0.0499390219
0.04994234758
0.049941938
0.04993481302
0.0501873707
0.05018162416
0.05018016388
0.05017802884
0.05017921423
0.05042778601
0.05042323388
0.05041428661
0.050398196
0.05043017353
0.05064447572
0.05066092658
0.05063514749
0.05064120156
0.05062502457
0.05087761424
0.05087908443
0.0508657652
0.05087206725
0.05086075158
0.05110047197
0.05110027548
0.05108307337
0.05111215687
0.05109501655
0.05132685579
0.0513161782
0.05131768255
0.05132433602
0.05131952534
0.05154636759
0.05155301866
0.05157178105
0.05157748634
0.05155857774
0.051769138
0.05178535635
0.05178236395
0.05178464647
0.0517999984
0.05200134686
0.0520210537
0.05200662615
0.05202428356
0.05201880838
0.05224138709
0.05226027236
0.05225117518
0.05227213701
0.0522307764
0.05246142282
0.05247428009
0.05249258423
0.05249086457
0.0524862554
0.05271352971
0.05269427114
0.05272061745
0.05271735311
0.0527098027
0.05294361832
0.0529439849
0.052926039
0.0529507605
0.05292683734
0.05318117206
0.0531544897
0.05315525007
0.05315991661
0.0531503946
0.05338797441
0.05339222247
0.0533810772
0.05336618655
0.05337490589
0.05362272105
0.0536203538
0.05360739788
0.05360958186
0.05359591473
0.05385413384
0.05383690977
0.05384670631
0.05384488067
0.05384924771
0.05406888372
0.05404984178
0.05406228417
0.05405363427
0.0540678086
0.05427985833
0.05428026658
0.05427902982
0.05427474033
0.05429261808
0.05449905746
0.05450667302
0.05450658672
0.05450693455
0.05450384162
0.05471931936
0.05472744308
0.05472398637
0.0547232616
0.05470965289
0.05493486304
0.05495938623
0.05493361102
0.05494366533
0.05494817779
0.05520147369
0.05518214492
0.05517863866
0.05515356643
0.05518385447
0.05539223723
0.05540548111
0.05540156193
0.05541572697
0.05539992047
0.0556079361
0.05562916385
0.05560661543
0.05561193763
0.05561463038
0.05582164937
0.0558449588
0.05584225596
0.0558323426
0.05583686755
0.05607518179
0.05607414786
0.05605694964
0.05604339842
0.05603121169
0.05626917777
0.05628138494
0.05629633834
0.05628761452
0.05628513642
0.05651456478
0.05652026105
0.05651095232
0.0565006898
0.05650389219
0.05671341287
0.05672858321
0.05671546615
0.05671645222
0.05672815243
0.05692289333
0.05694381627
0.05695948708
0.05693119856
0.0569410932
0.05714691821
0.05714771348
0.05716076948
0.05715585002
0.05718164068
0.05735385375
0.05738070572
0.0573611909
0.05737205099
0.05735551509
0.05759680899
0.05758978431
0.05757454676
0.05758112164
0.05760081011
0.05780526141
0.05780658588
0.05781206457
0.05778737979
0.0578178095
0.05800876753
0.05801952376
0.05802623937
0.05802089825
0.05803616984
0.05823591112
0.05824848666
0.05822161796
0.05823970727
0.05825631323
0.05846032767
0.05845607101
0.05845099447
0.05845013598
0.05844164079
0.05866093054
0.05866342462
0.0586851633
0.05864489041
0.05866419813
0.05888535902
0.05887538373
0.05888864891
0.0588783349
0.05887609717
0.05907996522
0.0591053683
0.05910226912
0.05910776951
0.05910233876
0.05931340312
0.0593094999
0.05931446465
0.05931004127
0.05932235583
0.05954355845
0.05951313977
0.05952228887
0.05954880778
0.05953939674
0.05975885809
0.05973805634
0.05974520347
0.059734965
0.05974911187
0.05996245178
0.05993789403
0.05994718086
0.05997510487
0.05994301465
0.06015106879
0.06017338037
0.0601612834
0.06018801391
0.06017751104
0.06035976918
0.06036971245
0.0603984221
0.06040343381
0.06039835009
0.06058968773
0.06058491527
0.06060205811
0.0606161152
0.06061066306
0.06079802167
0.06082275701
0.06081227298
0.06081023353
0.06081383107
0.0610128333
0.06100984112
0.06101228208
0.06102057532
0.06101997695
0.06122504501
0.06123080985
0.06121196468
0.06121906825
0.06122888924
0.06140726757
0.06139457042
0.06140756661
0.06143623272
0.06141728888
0.0616343263
0.06160992983
0.06163466099
0.06164093078
0.06164002534
0.0618474974
0.06184364012
0.06184826639
0.0618642008
0.06184869061
0.06206647144
0.06206340852
0.06204670393
0.06206263475
0.0620390851
0.06227477252
0.06228528999
0.06226261715
0.0622789134
0.0622693873
0.06248666009
0.06248559682
0.06249999097
0.06247876892
0.06246728254
0.06271175162
0.06269918537
0.06269973395
0.06269611452
0.06270345267
0.06287403084
0.06288692685
0.06289122241
0.06289103033
0.06289008157
0.06310776946
0.06311461422
0.06310662671
0.06310751662
0.06311300052
0.06332232306
0.06333397081
0.06331113149
0.06331080243
0.06333335884
0.06352768558
0.06352476523
0.06354082672
0.06354798972
0.06350823306
0.06375793602
0.06376882681
0.06376495745
0.06374800348
0.06374971556
0.0639504988
0.06398476972
0.063967529
0.06395765208
0.06395357613
0.06417199157
0.06419868804
0.0641668639
0.06414724888
0.06415824143
0.06439427664
0.06439062863
0.06438647059
0.06437323536
0.06438789238
0.06462738984
0.06460802573
0.06458435567
0.0646098691
0.06462273361
0.06481031102
0.06480092825
0.0648297686
0.06480891125
0.06481483198
0.0650124524
0.06503186442
0.06503033768
0.06502455267
0.06501715512
0.06524526193
0.06524277666
0.06525358793
0.06523197119
0.06526183119
0.06548322298
0.06547453127
0.06546997643
0.0654775689
0.06548651733
0.06571833837
0.06571885429
0.06575175159
0.06569882263
0.06572025547
0.06597554268
0.06597449482
0.06596430312
0.06596817565
0.06596244145
0.06622151047
0.06620614037
0.06621034815
0.06622985057
0.06621696621
0.06649658423
0.06651212091
0.06649433359
0.06649442118
0.06649321149
0.06682367978
0.06683738982
0.06680667362
0.06682423033
0.06683318045
)
;

boundaryField
{
    upperWall
    {
        type            calculated;
        value           nonuniform List<scalar> 5(0.06682367978 0.06683738982 0.06680667362 0.06682423033 0.06683318045);
    }
    lowerWall
    {
        type            calculated;
        value           nonuniform List<scalar> 5(0.04405853465 0.04403758521 0.04403484336 0.04405215148 0.04405690044);
    }
    periodicX_half0
    {
        type            cyclic;
    }
    periodicX_half1
    {
        type            cyclic;
    }
    frontAndBack
    {
        type            empty;
    }
}


// ************************************************************************* //
