/*--------------------------------*- C++ -*----------------------------------*\
| =========                 |                                                 |
| \\      /  F ield         | OpenFOAM: The Open Source CFD Toolbox           |
|  \\    /   O peration     | Version:  v1706                                 |
|   \\  /    A nd           | Web:      www.OpenFOAM.com                      |
|    \\/     M anipulation  |                                                 |
\*---------------------------------------------------------------------------*/
FoamFile
{
    version     2.0;
    format      ascii;
    class       volScalarField;
    location    "5";
    object      mfp_O2;
}
// * * * * * * * * * * * * * * * * * * * * * * * * * * * * * * * * * * * * * //

dimensions      [0 1 0 0 0 0 0];


internalField   nonuniform List<scalar> 
500
(
0.2285816338
0.2285392213
0.2285657104
0.2286767485
0.2285496694
0.2306365235
0.230485215
0.2306587042
0.2305893225
0.2305627069
0.2322279993
0.2322947083
0.2322990658
0.2323379002
0.2323274106
0.2336942654
0.2339502538
0.2339850348
0.233811639
0.2339151384
0.2353227908
0.2352837553
0.2351762789
0.2351258906
0.2354045549
0.2366729667
0.2367549569
0.2366186272
0.2365642736
0.2365527289
0.2380426205
0.2380561687
0.238248941
0.238146864
0.2380744349
0.2393861955
0.2393783454
0.239481065
0.2392871556
0.2395720529
0.2407862251
0.2407952577
0.2408312706
0.2410561663
0.2410332925
0.2421486741
0.2420419292
0.2421692208
0.2421408599
0.2423333859
0.2432977753
0.2435099132
0.2434183135
0.2433871745
0.2434612042
0.2446367521
0.2448068828
0.2447672237
0.2448038549
0.2448658502
0.2460383658
0.2460761253
0.2460027806
0.2461546984
0.2460371672
0.2474108947
0.2474411535
0.2475368292
0.2472217489
0.2473302591
0.2486611634
0.2487224866
0.2488039178
0.2486097094
0.2487945543
0.249870985
0.2500661967
0.2499892693
0.2498392511
0.2498892276
0.2513342006
0.251169621
0.2513763412
0.2511957476
0.2513461292
0.2526891467
0.2525606762
0.2524970449
0.2525848074
0.2525338253
0.2537525555
0.2538483066
0.2537253147
0.2538721207
0.2536147271
0.2551690832
0.2549177389
0.255284011
0.2553380546
0.2550269697
0.2562952687
0.2563552356
0.2565967987
0.2564864274
0.2563787835
0.2575273664
0.2574918089
0.2575847081
0.2577302871
0.2577530379
0.2590627567
0.2588406109
0.2588564446
0.2589740355
0.2590058833
0.2602065816
0.2600519525
0.2600260303
0.2602069388
0.2600950828
0.2615677047
0.2614741585
0.2614227991
0.2614223202
0.2614279535
0.2628965751
0.2626867254
0.2627665329
0.2627027462
0.262978573
0.2641809645
0.2641922608
0.2640701094
0.2639482389
0.2642302505
0.2654027574
0.265470774
0.2652265487
0.2650698427
0.2650745477
0.2665489658
0.2664803369
0.2665316705
0.2665454741
0.2664711814
0.2677573179
0.2678348762
0.2677834129
0.267830198
0.2678053363
0.2690387468
0.2690125123
0.2692487829
0.268990415
0.2690786929
0.2701159646
0.2703451741
0.2701346388
0.2701925774
0.2702434168
0.2714799479
0.2716185658
0.2714615181
0.2716262154
0.2715276117
0.2728896396
0.2727022519
0.2728071509
0.2728900419
0.2726728779
0.2737509137
0.2739818957
0.2740682248
0.2741445092
0.2739951024
0.2752741338
0.2750832799
0.275249437
0.2752458826
0.2751021058
0.2763949647
0.2763052041
0.276278442
0.276384127
0.2762755687
0.2776646058
0.2773067951
0.277370252
0.2774895968
0.2773480438
0.2788418762
0.2788733167
0.2787012544
0.2784581456
0.2787337557
0.2797885394
0.2798975903
0.279995447
0.2800867288
0.2798285921
0.2812292989
0.2812541142
0.2812985176
0.2814736356
0.2814956652
0.2824317164
0.2823998694
0.2826467019
0.2825152754
0.2827316336
0.2838331962
0.2838201912
0.2837059269
0.2836782899
0.2839547739
0.2849422734
0.2848659593
0.2849155423
0.284751768
0.2847881802
0.2862020928
0.2861642078
0.2863211813
0.286208327
0.2860785376
0.2873420088
0.2873083034
0.2873558152
0.2871730072
0.2872139155
0.2885195973
0.2884968251
0.288560815
0.2883986754
0.2883940078
0.2896390109
0.2898457147
0.2899888494
0.2896992042
0.2896930216
0.2909482887
0.2909425613
0.2908704742
0.2909650703
0.290909202
0.2921131637
0.2921874902
0.2920407695
0.2920818342
0.292339819
0.2934261898
0.2934260146
0.2931672233
0.2931204934
0.2929814712
0.2947148911
0.2946008686
0.2946051398
0.2946576934
0.2945748935
0.2959801568
0.2957645413
0.2958054888
0.2957481698
0.2958186518
0.296784116
0.29690209
0.2969287304
0.2969075029
0.2968361029
0.2979680223
0.2983233446
0.2979909802
0.2979927567
0.298092615
0.2994030959
0.2992956966
0.2994579519
0.2991625829
0.2993197869
0.300195211
0.3005831695
0.3005844779
0.3004892406
0.3004627525
0.3015075286
0.3016766975
0.3015684776
0.3015145841
0.3015290436
0.3027767221
0.3027665833
0.30268744
0.3026140721
0.302645371
0.3040381917
0.3038720662
0.3041136381
0.3038607053
0.3039778127
0.3049042511
0.3049253846
0.3048253585
0.3051079984
0.3050933011
0.3063469305
0.3062960325
0.306085944
0.3063113367
0.306152117
0.3072517476
0.3074644521
0.3076257397
0.3071834802
0.3074069604
0.3087016245
0.3087305713
0.3084338994
0.3085927669
0.3085492372
0.3096313621
0.3099099488
0.3097762169
0.3097935309
0.3098299704
0.3108607996
0.31077112
0.3106333151
0.3110162562
0.3110646808
0.3121696833
0.3120401428
0.3120562156
0.3120361597
0.3119925467
0.3133041513
0.3131572858
0.3131376602
0.3130584881
0.3131429466
0.3144515175
0.3143493782
0.3143706238
0.3145213753
0.3141436227
0.3155030269
0.3156718559
0.3155534432
0.3154859235
0.3156024005
0.3162981318
0.3167979793
0.3167637637
0.3169137276
0.3167268759
0.3178513935
0.3177173992
0.3180236723
0.3180243773
0.3180943153
0.3190833917
0.3191632952
0.3186814729
0.3189442909
0.3191901671
0.3202188936
0.3201301754
0.3202374615
0.3200973882
0.3202824173
0.3213402329
0.3213962461
0.3210853482
0.321459743
0.3213907241
0.3222371556
0.3222118102
0.3224995435
0.3226887178
0.322406652
0.3234299936
0.3232941098
0.323635125
0.3237326545
0.3234412631
0.3246440138
0.3245215911
0.324702273
0.3246889494
0.3246413167
0.3257676071
0.3261045169
0.3258430748
0.3259569531
0.3259486457
0.3268114155
0.3271578473
0.3269037652
0.3270789375
0.3269797713
0.3282502502
0.3282253426
0.3285084866
0.3282528237
0.3281506374
0.3295362345
0.3293896872
0.3295171673
0.3294359849
0.3293837123
0.3303832456
0.3304406534
0.3303770185
0.3305985611
0.3304171063
0.3316035257
0.3316871995
0.3317875171
0.3315458503
0.331831808
0.3330283873
0.3329730484
0.3326675148
0.3328061245
0.332725286
0.3341333281
0.3340310169
0.3339795304
0.3339783596
0.3337371774
0.3353773844
0.3351754907
0.3350883673
0.3349575704
0.335178923
0.3360969037
0.3363329219
0.3359332571
0.3362706897
0.3361095662
0.3371841803
0.3373302817
0.3369486468
0.3370148011
0.3372532892
0.3384014948
0.3383504338
0.3384609535
0.3385185444
0.3387050307
0.3396413648
0.3392718294
0.3392749133
0.3396157103
0.3397865002
0.3407509832
0.3407096565
0.3408024079
0.3407102699
0.3409304847
0.3419195221
0.3417561636
0.3419760897
0.3422141356
0.3418790852
0.3432852302
0.342956597
0.3432802987
0.3430803382
0.3432061686
0.3444007277
0.344349567
0.3443799594
0.3443171712
0.3445041257
0.3456448714
0.3455663353
0.3457808083
0.3455756566
0.3455497885
0.346976088
0.3469844902
0.3469078295
0.3470490705
0.3468994044
0.3484167551
0.3484493038
0.3485889607
0.3483963962
0.3484387465
0.3497011101
0.3499653747
0.3498453237
0.3500501149
0.3497425876
0.351727277
0.3518983899
0.3517661522
0.3517629447
0.3517269678
)
;

boundaryField
{
    upperWall
    {
        type            calculated;
        value           nonuniform List<scalar> 5(0.351727277 0.3518983899 0.3517661522 0.3517629447 0.3517269678);
    }
    lowerWall
    {
        type            calculated;
        value           nonuniform List<scalar> 5(0.2285816338 0.2285392213 0.2285657104 0.2286767485 0.2285496694);
    }
    periodicX_half0
    {
        type            cyclic;
    }
    periodicX_half1
    {
        type            cyclic;
    }
    frontAndBack
    {
        type            empty;
    }
}


// ************************************************************************* //
