/*--------------------------------*- C++ -*----------------------------------*\
| =========                 |                                                 |
| \\      /  F ield         | OpenFOAM: The Open Source CFD Toolbox           |
|  \\    /   O peration     | Version:  v1706                                 |
|   \\  /    A nd           | Web:      www.OpenFOAM.com                      |
|    \\/     M anipulation  |                                                 |
\*---------------------------------------------------------------------------*/
FoamFile
{
    version     2.0;
    format      ascii;
    class       volScalarField;
    location    "5";
    object      mfpCellRatio_O2;
}
// * * * * * * * * * * * * * * * * * * * * * * * * * * * * * * * * * * * * * //

dimensions      [0 0 0 0 0 0 0];


internalField   nonuniform List<scalar> 
500
(
22.7276496
22.7214411
22.73791577
22.72089989
22.72277042
22.91976304
22.91972064
22.91853164
22.90892626
22.91909672
23.09145019
23.07555787
23.08718583
23.08491086
23.08062537
23.22595686
23.24571458
23.24219063
23.22289015
23.24475509
23.38219058
23.38383047
23.39027075
23.3774662
23.37948224
23.5284446
23.53961333
23.5247739
23.51443325
23.50362338
23.66842477
23.6759935
23.66535468
23.66416474
23.65662795
23.8058578
23.81429023
23.81402378
23.8089075
23.81508925
23.93522859
23.93259874
23.94835088
23.94099727
23.93841661
24.06195031
24.07336864
24.07224664
24.0807988
24.07130293
24.21518388
24.18769458
24.19671835
24.20316258
24.20728751
24.33704478
24.33035482
24.32865548
24.32704566
24.33842688
24.44681541
24.45596393
24.45991155
24.46946227
24.45453868
24.59263537
24.58241933
24.58070311
24.59613131
24.58952859
24.73234908
24.70150905
24.71310345
24.71291991
24.69999394
24.83397863
24.86179302
24.84168129
24.81974171
24.82432538
24.9809789
24.9878751
24.94793597
24.96785082
24.96317721
25.09948428
25.0922563
25.08455081
25.11003728
25.11182478
25.21444107
25.2277098
25.21328268
25.21921582
25.22366913
25.33034756
25.35762784
25.34096411
25.34681845
25.31906153
25.4500293
25.46552959
25.48823401
25.47897858
25.46186954
25.5973549
25.60878728
25.60000343
25.60911112
25.59521816
25.73083244
25.74256718
25.73679658
25.72243496
25.69718911
25.85098007
25.85467601
25.85795528
25.85047087
25.83597798
25.95208402
25.96506918
25.96043257
25.95211022
25.96317244
26.1015883
26.1162792
26.08185808
26.10932638
26.0961001
26.21630643
26.22350647
26.22021824
26.22052547
26.20145947
26.35023579
26.34653716
26.34453999
26.33648159
26.35130644
26.48821669
26.48682225
26.47501178
26.48027436
26.47727689
26.60812813
26.60803967
26.59776266
26.594237
26.59564206
26.72024383
26.7196692
26.71265491
26.73473342
26.72263867
26.85931871
26.83693061
26.83789146
26.84490241
26.84998266
26.97625626
26.97599464
26.95741251
26.92188773
26.96500404
27.09118687
27.09886756
27.09351296
27.07360065
27.0630774
27.20656061
27.21511582
27.20323058
27.1879099
27.20346001
27.33148075
27.312916
27.33054667
27.32469454
27.29692405
27.43854873
27.44312874
27.42695443
27.41512312
27.42373708
27.57611
27.58289541
27.57105083
27.54961838
27.54422151
27.70714438
27.70002276
27.6899665
27.67661895
27.69160942
27.81992089
27.80983004
27.79636677
27.79639911
27.81225894
27.92986079
27.93619992
27.94924137
27.93841984
27.92970699
28.07450783
28.05823583
28.05334506
28.0740276
28.06225625
28.16742471
28.19504353
28.18936234
28.17811927
28.16821144
28.27118515
28.29514949
28.28326032
28.28579902
28.28440507
28.40996415
28.4004221
28.42838126
28.42646481
28.40559973
28.54344497
28.54219088
28.52793501
28.50835344
28.52753903
28.64036374
28.65293685
28.66630129
28.6578844
28.6445885
28.76387053
28.77307229
28.76673646
28.79891485
28.77376967
28.87931452
28.89047495
28.90276561
28.89464022
28.93865344
29.02165571
29.0081985
29.00858655
29.03987467
29.03224058
29.11730505
29.12002018
29.14251376
29.14829869
29.17162243
29.24122233
29.24854476
29.27500452
29.25908534
29.25224673
29.38048333
29.37423007
29.39742744
29.37994247
29.35835882
29.4875133
29.48820885
29.50184979
29.50709952
29.48643824
29.60375812
29.60533952
29.61747913
29.61183652
29.59118958
29.72850545
29.73055978
29.71779383
29.7165436
29.71472053
29.84903752
29.8479239
29.83482051
29.83714701
29.85040702
29.97321627
29.94925578
29.95519775
29.94700463
29.97550607
30.08581079
30.09142994
30.09219116
30.07881001
30.06593236
30.18791497
30.17712852
30.18692654
30.18287101
30.18061724
30.27384364
30.30490327
30.3044149
30.30687677
30.30314787
30.41272634
30.4253267
30.42646168
30.43239701
30.44995086
30.51428656
30.54384719
30.5606487
30.53810856
30.54155246
30.64712598
30.62516938
30.65684525
30.66112619
30.65511607
30.76509813
30.77078918
30.77778484
30.78517041
30.7621358
30.88904546
30.8937384
30.8872702
30.86295815
30.86799217
31.01564816
30.9958768
31.00911111
30.99158794
30.99472091
31.11789018
31.11110507
31.120473
31.14815191
31.10218542
31.23190561
31.23581305
31.26131836
31.2512505
31.25000964
31.37077436
31.36242213
31.36985842
31.35995431
31.33260615
31.46038594
31.48962352
31.48010266
31.45811721
31.46368843
31.55868048
31.56434445
31.56425186
31.56362025
31.57274628
31.67679384
31.70201047
31.68777074
31.69207071
31.68647311
31.79859908
31.81552222
31.78388757
31.82100049
31.77943345
31.91265084
31.9240138
31.9133647
31.91006866
31.92034273
32.01478401
32.03096298
31.99867755
32.01511732
32.0136961
32.13706618
32.1374372
32.15080464
32.15717108
32.1323996
32.26095668
32.25484909
32.25082179
32.28156159
32.24993472
32.39450515
32.38419949
32.38077484
32.35910978
32.36103084
32.49415162
32.47923895
32.48245201
32.47680257
32.47482873
32.58768059
32.6090192
32.61191512
32.6308773
32.60244801
32.71054843
32.69582844
32.70692141
32.70902284
32.7111239
32.84959012
32.87439547
32.84137076
32.84987825
32.84232021
32.99105463
32.97118973
32.9676429
32.95878334
32.9903741
33.07332392
33.0453382
33.07734594
33.08202994
33.07838798
33.19800731
33.16968503
33.17618515
33.19387808
33.17912021
33.30363576
33.30228544
33.31166316
33.3083151
33.29406364
33.42094387
33.40463672
33.39400038
33.40634721
33.39617075
33.5083043
33.53416974
33.52710772
33.50814197
33.5091377
33.62857256
33.64658321
33.62513188
33.62355426
33.63613658
33.75106326
33.7695103
33.75424942
33.75181991
33.73125908
33.86285954
33.87323995
33.8766991
33.85191321
33.83833955
33.98153903
33.9909347
33.98192521
34.00381126
33.97989221
34.11300932
34.09508965
34.10273655
34.11623831
34.10866023
34.19154091
34.20439668
34.19925183
34.20869533
34.18658568
34.32509952
34.30468711
34.30229527
34.33466207
34.30930422
34.4202827
34.46620459
34.46112274
34.44636618
34.43459761
34.60776928
34.57193271
34.57373099
34.60012259
34.57461028
34.73423889
34.72447538
34.71881242
34.73828146
34.71584485
34.89622504
34.90056396
34.90072714
34.9238785
34.92414952
)
;

boundaryField
{
    upperWall
    {
        type            calculated;
        value           nonuniform List<scalar> 5(34.89622504 34.90056396 34.90072714 34.9238785 34.92414952);
    }
    lowerWall
    {
        type            calculated;
        value           nonuniform List<scalar> 5(22.7276496 22.7214411 22.73791577 22.72089989 22.72277042);
    }
    periodicX_half0
    {
        type            cyclic;
    }
    periodicX_half1
    {
        type            cyclic;
    }
    frontAndBack
    {
        type            empty;
    }
}


// ************************************************************************* //
