/*--------------------------------*- C++ -*----------------------------------*\
| =========                 |                                                 |
| \\      /  F ield         | OpenFOAM: The Open Source CFD Toolbox           |
|  \\    /   O peration     | Version:  v1706                                 |
|   \\  /    A nd           | Web:      www.OpenFOAM.com                      |
|    \\/     M anipulation  |                                                 |
\*---------------------------------------------------------------------------*/
FoamFile
{
    version     2.0;
    format      ascii;
    class       volScalarField;
    location    "5";
    object      mfpToDx_O2;
}
// * * * * * * * * * * * * * * * * * * * * * * * * * * * * * * * * * * * * * //

dimensions      [0 0 0 0 0 0 0];


internalField   nonuniform List<scalar> 
500
(
22.85816338
22.85392213
22.85657104
22.86767485
22.85496694
23.06365235
23.0485215
23.06587042
23.05893225
23.05627069
23.22279993
23.22947083
23.22990658
23.23379002
23.23274106
23.36942654
23.39502538
23.39850348
23.3811639
23.39151384
23.53227908
23.52837553
23.51762789
23.51258906
23.54045549
23.66729667
23.67549569
23.66186272
23.65642736
23.65527289
23.80426205
23.80561687
23.8248941
23.8146864
23.80744349
23.93861955
23.93783454
23.9481065
23.92871556
23.95720529
24.07862251
24.07952577
24.08312706
24.10561663
24.10332925
24.21486741
24.20419292
24.21692208
24.21408599
24.23333859
24.32977753
24.35099132
24.34183135
24.33871745
24.34612042
24.46367521
24.48068828
24.47672237
24.48038549
24.48658502
24.60383658
24.60761253
24.60027806
24.61546984
24.60371672
24.74108947
24.74411535
24.75368292
24.72217489
24.73302591
24.86611634
24.87224866
24.88039178
24.86097094
24.87945543
24.9870985
25.00661967
24.99892693
24.98392511
24.98892276
25.13342006
25.1169621
25.13763412
25.11957476
25.13461292
25.26891467
25.25606762
25.24970449
25.25848074
25.25338253
25.37525555
25.38483066
25.37253147
25.38721207
25.36147271
25.51690832
25.49177389
25.5284011
25.53380546
25.50269697
25.62952687
25.63552356
25.65967987
25.64864274
25.63787835
25.75273664
25.74918089
25.75847081
25.77302871
25.77530379
25.90627567
25.88406109
25.88564446
25.89740355
25.90058833
26.02065816
26.00519525
26.00260303
26.02069388
26.00950828
26.15677047
26.14741585
26.14227991
26.14223202
26.14279535
26.28965751
26.26867254
26.27665329
26.27027462
26.2978573
26.41809645
26.41922608
26.40701094
26.39482389
26.42302505
26.54027574
26.5470774
26.52265487
26.50698427
26.50745477
26.65489658
26.64803369
26.65316705
26.65454741
26.64711814
26.77573179
26.78348762
26.77834129
26.7830198
26.78053363
26.90387468
26.90125123
26.92487829
26.8990415
26.90786929
27.01159646
27.03451741
27.01346388
27.01925774
27.02434168
27.14799479
27.16185658
27.14615181
27.16262154
27.15276117
27.28896396
27.27022519
27.28071509
27.28900419
27.26728779
27.37509137
27.39818957
27.40682248
27.41445092
27.39951024
27.52741338
27.50832799
27.5249437
27.52458826
27.51021058
27.63949647
27.63052041
27.6278442
27.6384127
27.62755687
27.76646058
27.73067951
27.7370252
27.74895968
27.73480438
27.88418762
27.88733167
27.87012544
27.84581456
27.87337557
27.97885394
27.98975903
27.9995447
28.00867288
27.98285921
28.12292989
28.12541142
28.12985176
28.14736356
28.14956652
28.24317164
28.23998694
28.26467019
28.25152754
28.27316336
28.38331962
28.38201912
28.37059269
28.36782899
28.39547739
28.49422734
28.48659593
28.49155423
28.4751768
28.47881802
28.62020928
28.61642078
28.63211813
28.6208327
28.60785376
28.73420088
28.73083034
28.73558152
28.71730072
28.72139155
28.85195973
28.84968251
28.8560815
28.83986754
28.83940078
28.96390109
28.98457147
28.99888494
28.96992042
28.96930216
29.09482887
29.09425613
29.08704742
29.09650703
29.0909202
29.21131637
29.21874902
29.20407695
29.20818342
29.2339819
29.34261898
29.34260146
29.31672233
29.31204934
29.29814712
29.47148911
29.46008686
29.46051398
29.46576934
29.45748935
29.59801568
29.57645413
29.58054888
29.57481698
29.58186518
29.6784116
29.690209
29.69287304
29.69075029
29.68361029
29.79680223
29.83233446
29.79909802
29.79927567
29.8092615
29.94030959
29.92956966
29.94579519
29.91625829
29.93197869
30.0195211
30.05831695
30.05844779
30.04892406
30.04627525
30.15075286
30.16766975
30.15684776
30.15145841
30.15290436
30.27767221
30.27665833
30.268744
30.26140721
30.2645371
30.40381917
30.38720662
30.41136381
30.38607053
30.39778127
30.49042511
30.49253846
30.48253585
30.51079984
30.50933011
30.63469305
30.62960325
30.6085944
30.63113367
30.6152117
30.72517476
30.74644521
30.76257397
30.71834802
30.74069604
30.87016245
30.87305713
30.84338994
30.85927669
30.85492372
30.96313621
30.99099488
30.97762169
30.97935309
30.98299704
31.08607996
31.077112
31.06333151
31.10162562
31.10646808
31.21696833
31.20401428
31.20562156
31.20361597
31.19925467
31.33041513
31.31572858
31.31376602
31.30584881
31.31429466
31.44515175
31.43493782
31.43706238
31.45213753
31.41436227
31.55030269
31.56718559
31.55534432
31.54859235
31.56024005
31.62981318
31.67979793
31.67637637
31.69137276
31.67268759
31.78513935
31.77173992
31.80236723
31.80243773
31.80943153
31.90833917
31.91632952
31.86814729
31.89442909
31.91901671
32.02188936
32.01301754
32.02374615
32.00973882
32.02824173
32.13402329
32.13962461
32.10853482
32.1459743
32.13907241
32.22371556
32.22118102
32.24995435
32.26887178
32.2406652
32.34299936
32.32941098
32.3635125
32.37326545
32.34412631
32.46440138
32.45215911
32.4702273
32.46889494
32.46413167
32.57676071
32.61045169
32.58430748
32.59569531
32.59486457
32.68114155
32.71578473
32.69037652
32.70789375
32.69797713
32.82502502
32.82253426
32.85084866
32.82528237
32.81506374
32.95362345
32.93896872
32.95171673
32.94359849
32.93837123
33.03832456
33.04406534
33.03770185
33.05985611
33.04171063
33.16035257
33.16871995
33.17875171
33.15458503
33.1831808
33.30283873
33.29730484
33.26675148
33.28061245
33.2725286
33.41333281
33.40310169
33.39795304
33.39783596
33.37371774
33.53773844
33.51754907
33.50883673
33.49575704
33.5178923
33.60969037
33.63329219
33.59332571
33.62706897
33.61095662
33.71841803
33.73302817
33.69486468
33.70148011
33.72532892
33.84014948
33.83504338
33.84609535
33.85185444
33.87050307
33.96413648
33.92718294
33.92749133
33.96157103
33.97865002
34.07509832
34.07096565
34.08024079
34.07102699
34.09304847
34.19195221
34.17561636
34.19760897
34.22141356
34.18790852
34.32852302
34.2956597
34.32802987
34.30803382
34.32061686
34.44007277
34.4349567
34.43799594
34.43171712
34.45041257
34.56448714
34.55663353
34.57808083
34.55756566
34.55497885
34.6976088
34.69844902
34.69078295
34.70490705
34.68994044
34.84167551
34.84493038
34.85889607
34.83963962
34.84387465
34.97011101
34.99653747
34.98453237
35.00501149
34.97425876
35.1727277
35.18983899
35.17661522
35.17629447
35.17269678
)
;

boundaryField
{
    upperWall
    {
        type            calculated;
        value           nonuniform List<scalar> 5(35.1727277 35.18983899 35.17661522 35.17629447 35.17269678);
    }
    lowerWall
    {
        type            calculated;
        value           nonuniform List<scalar> 5(22.85816338 22.85392213 22.85657104 22.86767485 22.85496694);
    }
    periodicX_half0
    {
        type            cyclic;
    }
    periodicX_half1
    {
        type            cyclic;
    }
    frontAndBack
    {
        type            empty;
    }
}


// ************************************************************************* //
