/*--------------------------------*- C++ -*----------------------------------*\
| =========                 |                                                 |
| \\      /  F ield         | OpenFOAM: The Open Source CFD Toolbox           |
|  \\    /   O peration     | Version:  v1706                                 |
|   \\  /    A nd           | Web:      www.OpenFOAM.com                      |
|    \\/     M anipulation  |                                                 |
\*---------------------------------------------------------------------------*/
FoamFile
{
    version     2.0;
    format      ascii;
    class       volScalarField;
    location    "5";
    object      mfpToDx_mixture;
}
// * * * * * * * * * * * * * * * * * * * * * * * * * * * * * * * * * * * * * //

dimensions      [0 0 0 0 0 0 0];


internalField   nonuniform List<scalar> 
500
(
4.405853465
4.403758521
4.403484336
4.405215148
4.405690044
4.442877484
4.440757519
4.441046195
4.441412569
4.439842777
4.47211736
4.472316384
4.471857287
4.471371319
4.473349935
4.4992862
4.5004703
4.500746707
4.498809458
4.50234527
4.527532555
4.527869073
4.527248042
4.527723701
4.528337871
4.55389422
4.553554233
4.554000314
4.554193908
4.553910474
4.580786023
4.580948548
4.581357507
4.581845203
4.579826141
4.607096024
4.605926276
4.608511686
4.606817364
4.606825628
4.633260406
4.632390122
4.632095034
4.633334665
4.632568714
4.657436025
4.658392326
4.658343381
4.656711684
4.657744214
4.681492188
4.683036575
4.682647753
4.681319706
4.681942685
4.706480456
4.706176477
4.706047118
4.706119885
4.707076576
4.731086903
4.731270912
4.72984586
4.731061904
4.73195537
4.754888969
4.755125086
4.756504307
4.755055056
4.756569725
4.779762778
4.779819752
4.780554092
4.780069008
4.780376492
4.803457345
4.804664004
4.804571694
4.803192914
4.804733214
4.82951756
4.826631101
4.829089414
4.828090737
4.828203845
4.85161885
4.852319349
4.850694409
4.853456286
4.852206318
4.873234261
4.875604544
4.874842555
4.875314452
4.873971146
4.89917711
4.898330682
4.899636343
4.900908535
4.898985198
4.923523681
4.922180844
4.923255065
4.924295363
4.923341741
4.9448829
4.943676833
4.946359125
4.94732802
4.944769648
4.969509188
4.969495935
4.970743158
4.97159206
4.969169764
4.994070038
4.99390219
4.994234758
4.9941938
4.993481302
5.01873707
5.018162416
5.018016388
5.017802884
5.017921423
5.042778601
5.042323388
5.041428661
5.0398196
5.043017353
5.064447572
5.066092658
5.063514749
5.064120156
5.062502457
5.087761424
5.087908443
5.08657652
5.087206725
5.086075158
5.110047197
5.110027548
5.108307337
5.111215687
5.109501655
5.132685579
5.13161782
5.131768255
5.132433602
5.131952534
5.154636759
5.155301866
5.157178105
5.157748634
5.155857774
5.1769138
5.178535635
5.178236395
5.178464647
5.17999984
5.200134686
5.20210537
5.200662615
5.202428356
5.201880838
5.224138709
5.226027236
5.225117518
5.227213701
5.22307764
5.246142282
5.247428009
5.249258423
5.249086457
5.24862554
5.271352971
5.269427114
5.272061745
5.271735311
5.27098027
5.294361832
5.29439849
5.2926039
5.29507605
5.292683734
5.318117206
5.31544897
5.315525007
5.315991661
5.31503946
5.338797441
5.339222247
5.33810772
5.336618655
5.337490589
5.362272105
5.36203538
5.360739788
5.360958186
5.359591473
5.385413384
5.383690977
5.384670631
5.384488067
5.384924771
5.406888372
5.404984178
5.406228417
5.405363427
5.40678086
5.427985833
5.428026658
5.427902982
5.427474033
5.429261808
5.449905746
5.450667302
5.450658672
5.450693455
5.450384162
5.471931936
5.472744308
5.472398637
5.47232616
5.470965289
5.493486304
5.495938623
5.493361102
5.494366533
5.494817779
5.520147369
5.518214492
5.517863866
5.515356643
5.518385447
5.539223723
5.540548111
5.540156193
5.541572697
5.539992047
5.56079361
5.562916385
5.560661543
5.561193763
5.561463038
5.582164937
5.58449588
5.584225596
5.58323426
5.583686755
5.607518179
5.607414786
5.605694964
5.604339842
5.603121169
5.626917777
5.628138494
5.629633834
5.628761452
5.628513642
5.651456478
5.652026105
5.651095232
5.65006898
5.650389219
5.671341287
5.672858321
5.671546615
5.671645222
5.672815243
5.692289333
5.694381627
5.695948708
5.693119856
5.69410932
5.714691821
5.714771348
5.716076948
5.715585002
5.718164068
5.735385375
5.738070572
5.73611909
5.737205099
5.735551509
5.759680899
5.758978431
5.757454676
5.758112164
5.760081011
5.780526141
5.780658588
5.781206457
5.778737979
5.78178095
5.800876753
5.801952376
5.802623937
5.802089825
5.803616984
5.823591112
5.824848666
5.822161796
5.823970727
5.825631323
5.846032767
5.845607101
5.845099447
5.845013598
5.844164079
5.866093054
5.866342462
5.86851633
5.864489041
5.866419813
5.888535902
5.887538373
5.888864891
5.88783349
5.887609717
5.907996522
5.91053683
5.910226912
5.910776951
5.910233876
5.931340312
5.93094999
5.931446465
5.931004127
5.932235583
5.954355845
5.951313977
5.952228887
5.954880778
5.953939674
5.975885809
5.973805634
5.974520347
5.9734965
5.974911187
5.996245178
5.993789403
5.994718086
5.997510487
5.994301465
6.015106879
6.017338037
6.01612834
6.018801391
6.017751104
6.035976918
6.036971245
6.03984221
6.040343381
6.039835009
6.058968773
6.058491527
6.060205811
6.06161152
6.061066306
6.079802167
6.082275701
6.081227298
6.081023353
6.081383107
6.10128333
6.100984112
6.101228208
6.102057532
6.101997695
6.122504501
6.123080985
6.121196468
6.121906825
6.122888924
6.140726757
6.139457042
6.140756661
6.143623272
6.141728888
6.16343263
6.160992983
6.163466099
6.164093078
6.164002534
6.18474974
6.184364012
6.184826639
6.18642008
6.184869061
6.206647144
6.206340852
6.204670393
6.206263475
6.20390851
6.227477252
6.228528999
6.226261715
6.22789134
6.22693873
6.248666009
6.248559682
6.249999097
6.247876892
6.246728254
6.271175162
6.269918537
6.269973395
6.269611452
6.270345267
6.287403084
6.288692685
6.289122241
6.289103033
6.289008157
6.310776946
6.311461422
6.310662671
6.310751662
6.311300052
6.332232306
6.333397081
6.331113149
6.331080243
6.333335884
6.352768558
6.352476523
6.354082672
6.354798972
6.350823306
6.375793602
6.376882681
6.376495745
6.374800348
6.374971556
6.39504988
6.398476972
6.3967529
6.395765208
6.395357613
6.417199157
6.419868804
6.41668639
6.414724888
6.415824143
6.439427664
6.439062863
6.438647059
6.437323536
6.438789238
6.462738984
6.460802573
6.458435567
6.46098691
6.462273361
6.481031102
6.480092825
6.48297686
6.480891125
6.481483198
6.50124524
6.503186442
6.503033768
6.502455267
6.501715512
6.524526193
6.524277666
6.525358793
6.523197119
6.526183119
6.548322298
6.547453127
6.546997643
6.54775689
6.548651733
6.571833837
6.571885429
6.575175159
6.569882263
6.572025547
6.597554268
6.597449482
6.596430312
6.596817565
6.596244145
6.622151047
6.620614037
6.621034815
6.622985057
6.621696621
6.649658423
6.651212091
6.649433359
6.649442118
6.649321149
6.682367978
6.683738982
6.680667362
6.682423033
6.683318045
)
;

boundaryField
{
    upperWall
    {
        type            calculated;
        value           nonuniform List<scalar> 5(6.682367978 6.683738982 6.680667362 6.682423033 6.683318045);
    }
    lowerWall
    {
        type            calculated;
        value           nonuniform List<scalar> 5(4.405853465 4.403758521 4.403484336 4.405215148 4.405690044);
    }
    periodicX_half0
    {
        type            cyclic;
    }
    periodicX_half1
    {
        type            cyclic;
    }
    frontAndBack
    {
        type            empty;
    }
}


// ************************************************************************* //
