/*--------------------------------*- C++ -*----------------------------------*\
| =========                 |                                                 |
| \\      /  F ield         | OpenFOAM: The Open Source CFD Toolbox           |
|  \\    /   O peration     | Version:  v1706                                 |
|   \\  /    A nd           | Web:      www.OpenFOAM.com                      |
|    \\/     M anipulation  |                                                 |
\*---------------------------------------------------------------------------*/
FoamFile
{
    version     2.0;
    format      ascii;
    class       volScalarField;
    location    "5";
    object      overallT_N2;
}
// * * * * * * * * * * * * * * * * * * * * * * * * * * * * * * * * * * * * * //

dimensions      [0 0 0 1 0 0 0];


internalField   nonuniform List<scalar> 
500
(
2069.561495
2069.74333
2069.461879
2069.446031
2069.651842
2084.688171
2085.28453
2085.04905
2085.039532
2084.872466
2097.849355
2097.834207
2098.077542
2097.925255
2098.239385
2109.884675
2109.61103
2109.600686
2109.555418
2109.886417
2120.883563
2120.776584
2120.90836
2121.126718
2120.756883
2131.62688
2131.535956
2131.32094
2131.364514
2131.701957
2141.851821
2141.888157
2142.277974
2142.183521
2141.620419
2152.307409
2152.411967
2152.338136
2152.077118
2152.140063
2162.136153
2162.255062
2161.658855
2162.192292
2162.043735
2172.019986
2172.211913
2171.738314
2171.710097
2171.718292
2180.897736
2182.002961
2182.222881
2181.669968
2181.454967
2191.703301
2191.09565
2191.39622
2191.477494
2191.145289
2200.596394
2200.464128
2200.972691
2200.686587
2200.622345
2209.729242
2210.344608
2210.15595
2210.285189
2209.851013
2219.146146
2219.234257
2219.118467
2219.032096
2219.30377
2228.902759
2228.283764
2228.485125
2228.440194
2228.933391
2237.517553
2237.592731
2238.522507
2238.246392
2238.230327
2247.003559
2247.186637
2246.834193
2246.643747
2246.823167
2256.29189
2256.085114
2255.951417
2255.657432
2256.294675
2264.791914
2264.95164
2265.010888
2265.14951
2265.104551
2274.049693
2274.076876
2274.482572
2274.200741
2273.906148
2283.030249
2282.831429
2282.74014
2283.049243
2282.724607
2291.714915
2291.716713
2291.845912
2291.487075
2292.179356
2301.005954
2300.589409
2300.835079
2300.686683
2301.130039
2309.540567
2309.706693
2309.607512
2309.365676
2309.282262
2317.869692
2318.301026
2318.21632
2317.818996
2318.081384
2327.186993
2326.732719
2327.085699
2327.329151
2327.489313
2335.819891
2335.940646
2335.911061
2335.941575
2335.652947
2344.538819
2344.98342
2344.405388
2344.993426
2345.018564
2353.393415
2353.010893
2353.303499
2353.200948
2353.154839
2361.629935
2361.856632
2362.146696
2361.923786
2362.286153
2370.987028
2370.25811
2370.821262
2370.621442
2370.270528
2379.057662
2378.813037
2378.652633
2378.865433
2378.604321
2387.357109
2387.624202
2387.662671
2387.844539
2386.943653
2395.938521
2396.268133
2396.008418
2396.189943
2396.348365
2404.599718
2404.287173
2404.390049
2404.572113
2404.694848
2413.123709
2413.094481
2412.847275
2412.735476
2413.011616
2421.229077
2421.318989
2421.119373
2420.983259
2421.193924
2430.039022
2429.87426
2429.398908
2429.575271
2429.956974
2438.379684
2438.323484
2437.877354
2437.957411
2438.327118
2446.669457
2447.024319
2446.023337
2446.247501
2446.615674
2454.471379
2454.812937
2454.986756
2454.576937
2454.845336
2463.424528
2463.00934
2463.059099
2463.142397
2463.402163
2470.883295
2470.824599
2471.221542
2471.410484
2471.603067
2478.371327
2479.422468
2479.731163
2479.009534
2479.197115
2486.871823
2487.019884
2487.397219
2487.425757
2486.779531
2495.46273
2495.338612
2495.523826
2494.966781
2495.087216
2502.9128
2503.080369
2503.151352
2502.853452
2503.187659
2511.542105
2511.703295
2511.811681
2511.6433
2511.517371
2519.654717
2519.760018
2519.615496
2519.547091
2520.00815
2528.320941
2528.215305
2528.55029
2528.173471
2528.06346
2536.607661
2535.797086
2536.729321
2536.305794
2536.20769
2544.581168
2544.367885
2544.312103
2543.879525
2544.021741
2552.385736
2552.220585
2552.337688
2552.103372
2552.011247
2560.366724
2560.174234
2559.739943
2559.729768
2559.993716
2568.090249
2568.055147
2567.527064
2567.851413
2568.34777
2576.147936
2576.027011
2576.256598
2575.252037
2575.38168
2583.692562
2583.876713
2584.276586
2583.566434
2583.940493
2591.473551
2591.366091
2591.713233
2591.92825
2591.605694
2599.474637
2599.821547
2600.020615
2599.776345
2599.588466
2607.046837
2607.138269
2607.579473
2607.448313
2607.584886
2615.515441
2615.270429
2615.358619
2614.761517
2615.602134
2623.108531
2622.283888
2622.411462
2623.415983
2622.650587
2630.732372
2630.435659
2631.047287
2630.337039
2631.050694
2638.814472
2638.061367
2638.43766
2638.787732
2638.589271
2646.46497
2646.877293
2646.767511
2646.711661
2646.594127
2654.412617
2654.113798
2654.468585
2654.384903
2654.543321
2662.075974
2661.693464
2661.523384
2661.76346
2661.052448
2669.646778
2669.901942
2668.855531
2669.138964
2669.691369
2676.234698
2677.123657
2676.828789
2676.581341
2676.893942
2684.820875
2685.096043
2684.95213
2684.431082
2685.088217
2692.272426
2691.699764
2691.682554
2691.563979
2692.853078
2700.012862
2699.503167
2699.546016
2700.084343
2699.959599
2707.668674
2707.823885
2707.279925
2708.024256
2707.900978
2715.980088
2715.779348
2715.195491
2714.864239
2714.877103
2723.576411
2723.078838
2722.971543
2723.288308
2723.198707
2730.996583
2731.274674
2731.006958
2730.730304
2730.76115
2738.914039
2738.929198
2739.175889
2738.493568
2738.256084
2746.701954
2746.705718
2746.784887
2746.731557
2746.593241
2754.19565
2754.320129
2755.076006
2754.265767
2754.07093
2761.763856
2762.350703
2761.830851
2761.945975
2762.373662
2769.6383
2768.849221
2769.419221
2769.65772
2769.5696
2777.927079
2777.213769
2777.162975
2777.827918
2777.068366
2785.296011
2784.666122
2785.183057
2784.916698
2784.318742
2792.889443
2792.597527
2792.548671
2792.814531
2792.892591
2800.706486
2800.717704
2800.538479
2800.225897
2800.533811
2809.004776
2808.786564
2809.053378
2808.792782
2808.430693
2816.630319
2817.33476
2816.538352
2816.539502
2816.800776
2824.112503
2824.598665
2824.079096
2824.208706
2824.399297
2832.071406
2832.511188
2831.703833
2832.596095
2832.064517
2839.716732
2839.618956
2840.577132
2840.646328
2840.352477
2847.963233
2848.387661
2847.713054
2848.554126
2848.437213
2856.697834
2856.458012
2856.411984
2856.590513
2856.690873
2864.39267
2864.67032
2864.656369
2864.48454
2864.91422
2873.244878
2873.038221
2873.536641
2873.185383
2873.684079
2881.89569
2881.787931
2882.487701
2882.394911
2881.76817
2891.797329
2891.403121
2891.212388
2890.827294
2891.316843
2900.829812
2901.65768
2901.396862
2901.512321
2900.642861
2912.068328
2912.134171
2912.040679
2911.500832
2911.489135
2924.317703
2924.485617
2924.172083
2924.011393
2924.501804
)
;

boundaryField
{
    upperWall
    {
        type            calculated;
        value           nonuniform List<scalar> 5(2935.043945 2933.386073 2932.918977 2932.94696 2935.74294);
    }
    lowerWall
    {
        type            calculated;
        value           nonuniform List<scalar> 5(2058.52068 2058.49005 2058.102487 2057.545899 2058.674295);
    }
    periodicX_half0
    {
        type            cyclic;
    }
    periodicX_half1
    {
        type            cyclic;
    }
    frontAndBack
    {
        type            empty;
    }
}


// ************************************************************************* //
