/*--------------------------------*- C++ -*----------------------------------*\
| =========                 |                                                 |
| \\      /  F ield         | OpenFOAM: The Open Source CFD Toolbox           |
|  \\    /   O peration     | Version:  v1706                                 |
|   \\  /    A nd           | Web:      www.OpenFOAM.com                      |
|    \\/     M anipulation  |                                                 |
\*---------------------------------------------------------------------------*/
FoamFile
{
    version     2.0;
    format      ascii;
    class       volScalarField;
    location    "5";
    object      p_mixture;
}
// * * * * * * * * * * * * * * * * * * * * * * * * * * * * * * * * * * * * * //

dimensions      [1 -1 -2 0 0 0 0];


internalField   nonuniform List<scalar> 
500
(
1.400520733
1.401164598
1.401132901
1.400440538
1.400625855
1.401333345
1.401708666
1.401593803
1.401874274
1.40205137
1.403042245
1.402375458
1.402504564
1.402721967
1.402011511
1.403219585
1.40309231
1.403091946
1.403529707
1.402876175
1.403057397
1.403515576
1.403706263
1.403572049
1.403011176
1.403961614
1.404211597
1.404198131
1.404027431
1.404034299
1.4045824
1.404028993
1.404025848
1.403753453
1.404097782
1.4041946
1.40454169
1.404100678
1.404488593
1.404419854
1.404148797
1.404709037
1.404635258
1.404281018
1.40468466
1.405019461
1.404570695
1.404752555
1.40441228
1.404847136
1.404620799
1.404594402
1.404505381
1.405214652
1.404884048
1.405402819
1.40517223
1.404858172
1.40511948
1.4048303
1.405260562
1.405274385
1.405612881
1.404820153
1.405071937
1.404934092
1.405286414
1.405079214
1.405846545
1.405144755
1.405363949
1.405119673
1.404874745
1.405037433
1.405309394
1.405364073
1.404887157
1.405550479
1.405544741
1.404942299
1.405310939
1.405677434
1.405313
1.405757081
1.405586283
1.4056712
1.40535229
1.405338895
1.405275789
1.405665919
1.406767461
1.405901839
1.405518022
1.405837751
1.406389892
1.405781868
1.406212762
1.405581566
1.405399615
1.406261503
1.405846177
1.406283368
1.405651169
1.40599285
1.405548155
1.405918689
1.406249513
1.405975331
1.406018565
1.405759793
1.405358996
1.405680221
1.40601412
1.405639845
1.406055003
1.405902731
1.405420359
1.406129708
1.405827325
1.405239276
1.405406127
1.405695246
1.405987959
1.405924562
1.4056666
1.405317409
1.405638744
1.405535356
1.40629303
1.405562652
1.405637895
1.405677491
1.406010005
1.40582619
1.406399403
1.405985728
1.405746863
1.405854694
1.406066689
1.406406099
1.40570456
1.406115723
1.405942564
1.405443525
1.405763639
1.40590692
1.406104184
1.405882582
1.406252218
1.406385034
1.40623483
1.406386461
1.405862421
1.405534453
1.405611627
1.406129403
1.405355349
1.406117547
1.406062283
1.405928937
1.406304394
1.405844019
1.406451631
1.406214073
1.405866523
1.406078642
1.405259514
1.405894214
1.405857416
1.40603924
1.406301077
1.405620655
1.405592682
1.405459219
1.405478104
1.405665448
1.40652783
1.405517506
1.405774514
1.405856025
1.405947112
1.405383725
1.405728412
1.405476518
1.405663796
1.405740988
1.40611466
1.405796973
1.405675291
1.405806791
1.406185558
1.406098836
1.405971812
1.406231857
1.406273885
1.405572304
1.40599917
1.406292075
1.405874826
1.405778319
1.405619581
1.405811055
1.406267407
1.405955865
1.406030583
1.406098415
1.406244654
1.405757923
1.406467364
1.406311241
1.406066891
1.406202367
1.406302304
1.406379731
1.405789149
1.405998978
1.406054876
1.406015282
1.406087931
1.406548891
1.406360342
1.406161807
1.405718771
1.406333786
1.406375103
1.406373897
1.406299489
1.406292244
1.406247834
1.406218482
1.405647724
1.406294145
1.406268829
1.406384164
1.406054271
1.406481335
1.406209486
1.406332064
1.405577356
1.405715083
1.406594281
1.405665913
1.406316038
1.406342572
1.406231094
1.40633845
1.406029338
1.405490569
1.406469704
1.406054665
1.406273338
1.40610051
1.406022908
1.406383338
1.406868458
1.406275375
1.406065385
1.405348496
1.406107832
1.405695862
1.40571335
1.405104718
1.40575516
1.405880537
1.406300668
1.406347606
1.406166355
1.406053126
1.406051628
1.406086493
1.406225464
1.406379198
1.405665196
1.405962029
1.4063113
1.406577432
1.406405762
1.406324422
1.40603143
1.405711389
1.406689964
1.405869298
1.406044562
1.406370296
1.40683488
1.406029476
1.405936674
1.406623532
1.40592864
1.406401172
1.406175995
1.406519361
1.406141544
1.406350138
1.40628838
1.406425701
1.406615802
1.405899991
1.406290464
1.405864236
1.406470728
1.405357053
1.40645976
1.406058177
1.405759172
1.406460713
1.405655348
1.405740972
1.406175062
1.406415577
1.406396033
1.406798339
1.405876359
1.406231212
1.406251691
1.405988334
1.406324573
1.405919124
1.405904606
1.406192945
1.406786578
1.406042326
1.406421792
1.405957673
1.405902974
1.406532293
1.405782301
1.406116663
1.406593153
1.406238395
1.406081401
1.406498941
1.405881968
1.405774392
1.40640228
1.406146883
1.406454097
1.406206507
1.406310427
1.406323447
1.406346871
1.406336727
1.406682748
1.406000337
1.406326749
1.406778172
1.406441565
1.406377025
1.406271981
1.406021728
1.406323233
1.40663509
1.40583694
1.405735005
1.405952327
1.405869937
1.406717238
1.406257223
1.40634441
1.406445897
1.406170286
1.405933562
1.406221103
1.406136101
1.40611244
1.406467404
1.406400573
1.406253118
1.405969153
1.40600854
1.406276822
1.406107514
1.406676589
1.406379407
1.406171234
1.406674609
1.406735987
1.406479542
1.406703467
1.406707014
1.40656234
1.406787595
1.405960944
1.406713141
1.406847655
1.406708047
1.407223556
1.406495576
1.406065562
1.406409044
1.406242206
1.406258075
1.406899102
1.406204254
1.4066542
1.406180688
1.406363749
1.406592488
1.406245013
1.406129042
1.406369831
1.406830689
1.406025521
1.406429966
1.406709121
1.406575045
1.406315962
1.406107302
1.40622042
1.406197081
1.406836439
1.406948821
1.40649017
1.4068614
1.406307472
1.406499271
1.4067494
1.406516681
1.406646918
1.406694996
1.406739696
1.406983705
1.407194942
1.407118959
1.406993715
1.407101438
1.407330738
1.406767064
1.40668409
1.407233968
1.406783246
1.407452679
1.406822844
1.407236316
1.407112355
1.407507906
1.406582243
1.406981695
1.407032324
1.406423964
1.407546659
1.406560767
1.407388029
1.408002101
1.407362035
1.407283128
1.407479208
1.406930023
1.40773275
1.407599018
1.407340713
1.407748916
1.407855672
1.407441539
1.407261576
1.408250429
1.408425897
1.407669065
1.407998827
1.408196826
1.408075156
1.407910303
1.408180663
1.408007889
1.407866208
1.408131183
1.408411736
1.408360069
1.408447908
1.408217377
1.408531663
1.408665945
1.408695513
1.408046627
1.408147276
1.40905718
1.408419809
1.408054311
1.408927958
1.408431736
1.408367165
1.408702302
1.40920172
1.408802589
1.408834737
1.409371209
1.409659467
1.409136716
1.409030488
1.408961494
1.409691683
1.409298997
1.409425036
1.409840653
1.40962666
1.410101579
1.410038044
1.409942633
1.409551583
1.409757528
)
;

boundaryField
{
    upperWall
    {
        type            calculated;
        value           nonuniform List<scalar> 5(1.405113504 1.405425253 1.40578369 1.406276844 1.404802915);
    }
    lowerWall
    {
        type            calculated;
        value           nonuniform List<scalar> 5(1.405859665 1.40551818 1.405385779 1.405307672 1.405331464);
    }
    periodicX_half0
    {
        type            cyclic;
    }
    periodicX_half1
    {
        type            cyclic;
    }
    frontAndBack
    {
        type            empty;
    }
}


// ************************************************************************* //
