/*--------------------------------*- C++ -*----------------------------------*\
| =========                 |                                                 |
| \\      /  F ield         | OpenFOAM: The Open Source CFD Toolbox           |
|  \\    /   O peration     | Version:  v1706                                 |
|   \\  /    A nd           | Web:      www.OpenFOAM.com                      |
|    \\/     M anipulation  |                                                 |
\*---------------------------------------------------------------------------*/
FoamFile
{
    version     2.0;
    format      ascii;
    class       volScalarField;
    location    "5";
    object      p_mixture;
}
// * * * * * * * * * * * * * * * * * * * * * * * * * * * * * * * * * * * * * //

dimensions      [1 -1 -2 0 0 0 0];


internalField   nonuniform List<scalar> 
500
(
1.400687101
1.400571677
1.400798206
1.401262946
1.400373515
1.401832758
1.401807269
1.401802865
1.401890714
1.401705372
1.402275605
1.402568301
1.402564708
1.402303306
1.402811242
1.403436797
1.403370749
1.403322524
1.403075991
1.403238334
1.403810295
1.403984357
1.403897326
1.403967472
1.403834714
1.404101703
1.403722069
1.404021038
1.40397991
1.404418276
1.40441584
1.403491866
1.404366471
1.404258591
1.404420982
1.404900589
1.404609681
1.404050318
1.404281398
1.404372376
1.404508647
1.404626452
1.404269786
1.404401727
1.404597683
1.404685175
1.405038124
1.404301623
1.404574516
1.404936107
1.404815703
1.405257273
1.405144117
1.405389823
1.40535194
1.405140404
1.405273367
1.405173701
1.405300307
1.405323656
1.40504003
1.405314369
1.405846445
1.405135491
1.405059047
1.405306882
1.405435379
1.405536945
1.405379151
1.404904407
1.405091805
1.405751453
1.405505504
1.405240081
1.405654476
1.405475715
1.405333904
1.405609452
1.405272903
1.40561037
1.405321152
1.405428069
1.405984823
1.405829179
1.405679096
1.406015325
1.405569203
1.405793194
1.405406999
1.405542785
1.406075637
1.4054602
1.405575934
1.405403043
1.405536634
1.405798469
1.405754342
1.406035295
1.406037027
1.405747723
1.405708767
1.40512876
1.405679583
1.405855788
1.406011033
1.405912429
1.405733672
1.405778579
1.405667343
1.406031122
1.405180465
1.405439786
1.405689668
1.405781808
1.405695281
1.405738895
1.405475411
1.40531123
1.405848881
1.406410969
1.406290468
1.405420635
1.40589878
1.405291749
1.405743988
1.405411605
1.405926659
1.40621096
1.405824021
1.405501876
1.405550051
1.405413509
1.406051156
1.405728072
1.406131105
1.406009037
1.406244425
1.406743644
1.406641409
1.405435396
1.406009505
1.405923683
1.405511753
1.406544589
1.406028862
1.406190126
1.405724665
1.4058491
1.405751551
1.405725902
1.405665413
1.406011929
1.40593714
1.405277799
1.405732059
1.405991675
1.405303776
1.405790029
1.40597725
1.405576553
1.405938854
1.405308711
1.406031877
1.406336654
1.40581589
1.40571898
1.405871712
1.40592396
1.406303296
1.405627603
1.405810099
1.405801479
1.406470321
1.406356681
1.406299201
1.406064025
1.406024192
1.405763564
1.40605337
1.406374224
1.406577819
1.406120299
1.405989072
1.405931537
1.405921413
1.406173502
1.406104116
1.405555525
1.405885821
1.405932056
1.406105182
1.406158327
1.406446798
1.405937475
1.40596869
1.406078999
1.406350945
1.40631861
1.406135946
1.405649893
1.405780965
1.406413623
1.40643899
1.406191755
1.406020547
1.405887022
1.406453009
1.406532861
1.405919886
1.406272215
1.406261543
1.406087571
1.406281118
1.405697144
1.40600859
1.406359319
1.406241382
1.406873284
1.406467266
1.4065117
1.405865017
1.406443054
1.406281839
1.40582329
1.405821848
1.405694919
1.406134876
1.406364008
1.406157572
1.405875507
1.406294141
1.406178444
1.406242028
1.406530849
1.406201997
1.406061012
1.406079615
1.406157917
1.405973767
1.405830417
1.406178602
1.406548763
1.406276673
1.40641608
1.406211832
1.405974537
1.406447565
1.406323912
1.405958279
1.406512936
1.406528406
1.406092662
1.406071148
1.406193008
1.405670454
1.406291268
1.405985317
1.406031756
1.406380156
1.405720584
1.40631284
1.405996188
1.406100157
1.406176615
1.40603196
1.405987759
1.40619939
1.405871835
1.406369118
1.406018877
1.406144506
1.405720938
1.405785147
1.406341594
1.406246744
1.406381221
1.406013651
1.405930115
1.405856431
1.406245137
1.406154793
1.405935863
1.406187263
1.405953824
1.405345114
1.406336348
1.40682841
1.406669988
1.406039598
1.406289699
1.406322882
1.406118054
1.406500403
1.406012169
1.406099944
1.406299138
1.406514015
1.405690782
1.406091501
1.406264788
1.406282762
1.406464114
1.405997595
1.406299092
1.406454905
1.406770293
1.406621677
1.406504654
1.406113881
1.40676735
1.40662963
1.405969028
1.406231795
1.406837478
1.40607404
1.406298256
1.406291683
1.406387066
1.406860747
1.406027989
1.406432599
1.406259696
1.406464741
1.406565848
1.406273219
1.406586528
1.406568795
1.406512107
1.406267123
1.406699077
1.406658848
1.406099302
1.406333027
1.407054489
1.406729682
1.406146134
1.405782828
1.406972517
1.406145822
1.406256587
1.4065582
1.406545499
1.405940462
1.406363206
1.406643154
1.405711256
1.406117794
1.405498565
1.406091947
1.406648961
1.406732559
1.405928954
1.406104723
1.406567632
1.406501475
1.406596116
1.406640676
1.406571718
1.405869765
1.406564313
1.406715141
1.406158604
1.406631335
1.406816746
1.406226743
1.406703642
1.40661188
1.40650571
1.405789842
1.405990917
1.406342456
1.406652666
1.406181755
1.406660002
1.406070338
1.406729596
1.405978581
1.406153696
1.406755899
1.405988431
1.406359413
1.406611253
1.406194893
1.406099107
1.4067396
1.406257092
1.406403193
1.406595868
1.406369771
1.406302998
1.406184677
1.406065084
1.40612521
1.406530864
1.406429874
1.406627978
1.40683916
1.406800325
1.406617569
1.406650274
1.406713823
1.406835601
1.406583554
1.407455178
1.406855117
1.406736244
1.406778187
1.406577088
1.406609921
1.406592384
1.407309881
1.406462635
1.406972142
1.406837504
1.406572672
1.406339553
1.406372302
1.406449783
1.406561361
1.406559575
1.407098953
1.407204476
1.406407275
1.406862657
1.407100577
1.406800338
1.407677716
1.407285076
1.407123537
1.406790616
1.407528506
1.406584801
1.407300292
1.406923097
1.406907291
1.40730371
1.407652745
1.407138314
1.407351618
1.407336823
1.406930812
1.406769298
1.407479643
1.407084248
1.407040886
1.40748131
1.407773214
1.406838464
1.407406402
1.407600327
1.407123748
1.407279727
1.407704673
1.407479426
1.407932185
1.407833019
1.408131114
1.408055671
1.407816939
1.407991296
1.408171771
1.408152667
1.407841505
1.407880976
1.408054854
1.407715142
1.407461158
1.408461333
1.408019106
1.408054006
1.408245121
1.408533323
1.408790702
1.408703911
1.408718367
1.409072331
1.408954889
1.408937599
1.408625794
1.408554931
1.40916627
1.408861771
1.409172944
1.408613909
1.409367347
1.409007706
1.409514411
1.409463787
1.409126151
1.408582637
1.409464341
1.409677207
1.410015272
1.409597121
1.409697115
1.410190555
1.410068213
1.410058973
1.409989574
1.410438529
)
;

boundaryField
{
    upperWall
    {
        type            calculated;
        value           nonuniform List<scalar> 5(1.405212221 1.405995958 1.405565015 1.405751986 1.405201618);
    }
    lowerWall
    {
        type            calculated;
        value           nonuniform List<scalar> 5(1.405820303 1.404658325 1.405894495 1.405758261 1.405567808);
    }
    periodicX_half0
    {
        type            cyclic;
    }
    periodicX_half1
    {
        type            cyclic;
    }
    frontAndBack
    {
        type            empty;
    }
}


// ************************************************************************* //
