/*--------------------------------*- C++ -*----------------------------------*\
| =========                 |                                                 |
| \\      /  F ield         | OpenFOAM: The Open Source CFD Toolbox           |
|  \\    /   O peration     | Version:  v1706                                 |
|   \\  /    A nd           | Web:      www.OpenFOAM.com                      |
|    \\/     M anipulation  |                                                 |
\*---------------------------------------------------------------------------*/
FoamFile
{
    version     2.0;
    format      ascii;
    class       volScalarField;
    location    "5";
    object      p_O2;
}
// * * * * * * * * * * * * * * * * * * * * * * * * * * * * * * * * * * * * * //

dimensions      [1 -1 -2 0 0 0 0];


internalField   nonuniform List<scalar> 
500
(
0.2947664849
0.2947129302
0.2947978945
0.2945445035
0.2947812267
0.2949441996
0.2949873813
0.2946588343
0.2948801099
0.2949509726
0.2951879112
0.2950890327
0.2947639349
0.2949946283
0.2949750992
0.295029216
0.2949710548
0.294696813
0.2949959554
0.2949729399
0.2947786094
0.2950401825
0.2952026968
0.2951381994
0.2948726035
0.2952078458
0.2948953404
0.2952405111
0.2952168294
0.2953155858
0.2952982357
0.2950194514
0.2951005634
0.2951708076
0.2950684264
0.2953692616
0.295167813
0.2950444745
0.2952081346
0.2950022713
0.2952945043
0.295219641
0.29508176
0.2949826915
0.2951062915
0.2953030711
0.2953939891
0.2953401696
0.2950975428
0.2951230045
0.2951968107
0.2952581448
0.2954261826
0.2953752377
0.295258255
0.2953868578
0.2952515862
0.2952590056
0.2950848793
0.2950774721
0.2955224558
0.2952936891
0.2953926178
0.2952617552
0.2952719227
0.2952017932
0.2954079519
0.29513888
0.2955344919
0.295281621
0.2953645576
0.2951657038
0.2953649418
0.2952753599
0.2952581912
0.2955002164
0.2951745536
0.2953927849
0.2951896736
0.2952613893
0.2953313626
0.2952749486
0.2951208764
0.2954073176
0.2952630795
0.2953945331
0.2952618532
0.2952215984
0.2952005125
0.2953611331
0.29539645
0.2952362482
0.2952491029
0.2953141075
0.2957181765
0.2953772989
0.2953719838
0.2950216113
0.2949829964
0.2953925903
0.2954243845
0.2951962809
0.2951231032
0.2953588879
0.2951311769
0.2952090423
0.2951158991
0.2952898464
0.2951454814
0.2950666868
0.2953215237
0.2952129547
0.2953891091
0.2951588371
0.2950386089
0.2953440003
0.295138099
0.2953705133
0.2952867125
0.2950634055
0.2949537295
0.2950437187
0.2952260693
0.2953128855
0.2952477896
0.2949692206
0.2952207161
0.2951022225
0.2951691301
0.295007834
0.2949276946
0.2949688829
0.2951622281
0.2951959642
0.2951305567
0.2952010567
0.2950602335
0.2951952935
0.2952177973
0.295292288
0.29505083
0.2952767069
0.2950649839
0.2950337342
0.2951403156
0.2951309761
0.2950268118
0.2950191112
0.2948192886
0.2951557108
0.2947646439
0.2952263475
0.2949425356
0.2950029098
0.2948557705
0.2951890394
0.2948340566
0.2951030586
0.2951426745
0.2951369588
0.2952380873
0.2947943175
0.2952163239
0.294979253
0.2950303922
0.2948704959
0.294953379
0.2948953898
0.2950877008
0.2948723457
0.2950867665
0.2947223821
0.2948077094
0.2948848186
0.2947587986
0.2946698086
0.2951019258
0.2948894025
0.2949826394
0.2950643489
0.2947791243
0.2947929929
0.2948957659
0.2948574256
0.2949491674
0.294866759
0.2952357887
0.2949884061
0.2949407043
0.2949007696
0.2950978135
0.2949591422
0.2948784503
0.2951619041
0.2949353581
0.2947871563
0.2951622447
0.2951356784
0.2947368544
0.2949332871
0.2948403643
0.2949450918
0.2950593859
0.2947174694
0.2948623008
0.2949296258
0.2949892386
0.2947675858
0.294824636
0.2946600398
0.2947464816
0.2947213653
0.2949361893
0.2949390138
0.2945286403
0.2947282067
0.2949874047
0.2948418201
0.295044425
0.2951267792
0.29482235
0.2948353076
0.2945859473
0.2949113321
0.2950176541
0.2949338405
0.2950008802
0.2947991378
0.2949383561
0.2948206398
0.2946622562
0.2947714483
0.2947792152
0.2948289167
0.2949278038
0.2948238572
0.2947690098
0.2945917967
0.294674269
0.2948139814
0.2949237715
0.2946527015
0.2947639108
0.2946977387
0.2948040239
0.2950096991
0.2947153035
0.294673146
0.2949359379
0.2946844378
0.2948465681
0.2945795554
0.2950664449
0.2948857674
0.2949053604
0.2945874031
0.2946828794
0.294580775
0.2947239764
0.294417181
0.2944605807
0.2945343037
0.2945083622
0.2945650505
0.2945845689
0.294858086
0.2947146145
0.2944311656
0.2944357016
0.2948171395
0.2946929767
0.2945548135
0.2944784444
0.2946130088
0.2948027555
0.2944866487
0.2946318918
0.2946019993
0.2944815631
0.2946117727
0.2948202545
0.2945795826
0.2944932874
0.2946300574
0.294638011
0.2946747895
0.2945059949
0.2946531677
0.2943405024
0.2948148238
0.2944389219
0.2944791416
0.2945643209
0.2945708663
0.2947156928
0.2944775322
0.2947255285
0.2945445022
0.2946223969
0.2945931622
0.2946329837
0.2945525814
0.2946998716
0.294541743
0.294410361
0.2946440267
0.2943295792
0.2944300316
0.2946268041
0.2945492302
0.2946330415
0.2945032723
0.2945562787
0.2945541188
0.2942774493
0.2944833569
0.2946790145
0.2945847239
0.2944737773
0.2945398717
0.2946339531
0.2944810225
0.2944567613
0.2944574119
0.2945263066
0.2945296752
0.2945681761
0.2947082578
0.2944609176
0.2944580747
0.294304297
0.2944765238
0.2944284104
0.2943444677
0.2946799961
0.2942877955
0.294476357
0.2945978986
0.2944644695
0.2945962863
0.294458794
0.2943641793
0.2947044738
0.2945181786
0.2944425653
0.2944773635
0.2944606453
0.2944561405
0.294692482
0.2944247853
0.2944795213
0.2942933899
0.2944167563
0.2943934095
0.2944981711
0.2943578112
0.2947954344
0.2944615894
0.2943891257
0.2945718865
0.2944961567
0.2943681728
0.2947005186
0.2945171353
0.2943948543
0.2942357903
0.2944241476
0.2943708628
0.2945020493
0.2944212685
0.2943455381
0.2943592315
0.2944647927
0.2941871062
0.2942860174
0.2944675087
0.2944185186
0.2942656936
0.294299072
0.2944947281
0.2944797848
0.2943913807
0.2942282337
0.2942225954
0.2946667707
0.2945319395
0.2946752602
0.2943047108
0.294318529
0.2942997188
0.2944366633
0.2943176251
0.2944972224
0.2940119347
0.2943467212
0.2942827657
0.2942049271
0.2944170801
0.2943875895
0.2942712677
0.2942959505
0.2944777401
0.2941343315
0.294438586
0.2944095789
0.293917569
0.2942352876
0.2941614891
0.2941003534
0.2941565213
0.2944093575
0.2943236113
0.2941036934
0.294242146
0.2942138505
0.2942039584
0.2942495472
0.2940454582
0.2942382899
0.2940824694
0.2940550072
0.2942301979
0.2944473925
0.2942414242
0.2943508975
0.2940291068
0.2942723302
0.2941176238
0.2940847686
0.2942560035
0.2940705926
0.2944010878
0.2943315875
0.2943634088
0.2940093556
0.2941814721
0.2941431336
0.2942973466
0.294151614
0.2940857962
0.2945845551
0.2941840859
0.2945148201
0.2943996773
0.2944912071
0.2942086823
0.2942949775
0.2941158903
0.2944280213
0.2941693268
0.2943666644
0.2946101084
0.2946660662
0.2944117702
0.2942936528
0.2945636039
0.2946102734
0.2943789731
0.2948900685
0.2944806907
0.2945327963
0.2946572948
0.2947063498
0.2943406618
0.2945979478
0.2944433318
0.2946532971
0.2947072076
0.2943612114
0.2945208004
0.2946365996
0.2945914447
0.2945528101
0.2946552979
0.2945724459
0.2947924933
0.294596001
0.2943378797
0.2946420725
0.2945579889
0.2945896623
0.2945262004
0.2947826101
0.2945548802
0.294667
0.2947551656
0.2944463111
0.2943840592
0.2946429542
0.2945022138
0.2946753892
0.2947439534
0.2946956637
0.2946353548
0.2946720641
0.2947876816
0.2946434218
0.2946360606
0.2946564018
0.2948481416
)
;

boundaryField
{
    upperWall
    {
        type            calculated;
        value           nonuniform List<scalar> 5(0.2936353016 0.293669229 0.2935598268 0.294030011 0.2935845258);
    }
    lowerWall
    {
        type            calculated;
        value           nonuniform List<scalar> 5(0.2959877781 0.2959206185 0.2956905482 0.2956336555 0.2956114705);
    }
    periodicX_half0
    {
        type            cyclic;
    }
    periodicX_half1
    {
        type            cyclic;
    }
    frontAndBack
    {
        type            empty;
    }
}


// ************************************************************************* //
