/*--------------------------------*- C++ -*----------------------------------*\
| =========                 |                                                 |
| \\      /  F ield         | OpenFOAM: The Open Source CFD Toolbox           |
|  \\    /   O peration     | Version:  v1706                                 |
|   \\  /    A nd           | Web:      www.OpenFOAM.com                      |
|    \\/     M anipulation  |                                                 |
\*---------------------------------------------------------------------------*/
FoamFile
{
    version     2.0;
    format      ascii;
    class       volScalarField;
    location    "5";
    object      p_O2;
}
// * * * * * * * * * * * * * * * * * * * * * * * * * * * * * * * * * * * * * //

dimensions      [1 -1 -2 0 0 0 0];


internalField   nonuniform List<scalar> 
500
(
0.2965039079
0.296520925
0.2963315351
0.2967011822
0.2963071584
0.2968675483
0.2965796994
0.2966738144
0.2965749388
0.2966497042
0.2965993654
0.2968382403
0.2967129208
0.2967249445
0.2967855863
0.2970179307
0.2966977608
0.2968076081
0.2969822955
0.2968331335
0.296880705
0.2970459366
0.297053955
0.2971388039
0.2969530558
0.2969099334
0.2969071796
0.2971513172
0.2971371537
0.2972754306
0.2970014025
0.2968457076
0.2971071393
0.2970518129
0.297083762
0.2970942585
0.2970649808
0.2969747232
0.2970111555
0.297075558
0.2969867401
0.2971009461
0.2969208227
0.2969836336
0.2971582129
0.2971364894
0.2969030237
0.2969745178
0.2971564497
0.297170138
0.2969768468
0.2971606764
0.2971688236
0.2972736501
0.2972366067
0.2972482394
0.2971261695
0.297274975
0.2973286108
0.297166936
0.297312941
0.2971403489
0.2974560208
0.2970481964
0.2971395398
0.2973226852
0.2972680902
0.2973758833
0.2971787799
0.2969321721
0.296983429
0.297258299
0.2972028111
0.2970660015
0.2974731857
0.297305398
0.2970106769
0.2970651871
0.2971559616
0.2972445868
0.2971432847
0.297050143
0.2973635176
0.2971369081
0.2970373031
0.2971610254
0.2971675275
0.2973099249
0.2969843671
0.2970360004
0.297267085
0.2971134251
0.2970324549
0.2972169044
0.2971330891
0.2973730622
0.2973181965
0.2973292872
0.2971719613
0.2972661197
0.2974220436
0.2971963396
0.2969434829
0.2972885993
0.297322221
0.2972435329
0.2971499199
0.2973466162
0.2972134152
0.2973484707
0.2971815449
0.296872086
0.2970877938
0.2973087986
0.2973894445
0.2974051173
0.2971576919
0.297160755
0.2972237397
0.2974052631
0.2973822065
0.2972077353
0.2971426635
0.2971463025
0.2970857656
0.2970932212
0.2971259391
0.2972253992
0.2970465881
0.2971412095
0.2971405573
0.2971798751
0.2970642869
0.296873802
0.2973247057
0.2972468225
0.2970305598
0.2973592216
0.2971414145
0.2969767694
0.2969676352
0.2970121527
0.296986151
0.2970618265
0.2969714863
0.2969978325
0.297149711
0.2972036636
0.2970338119
0.2971024477
0.2969902477
0.2972287797
0.2970217546
0.2968145511
0.2971076338
0.2971043695
0.2970221867
0.2971488908
0.2971169511
0.297013699
0.2969401042
0.2969058725
0.2971820912
0.2974118144
0.2970730236
0.2968787132
0.2972299061
0.2970794078
0.297013124
0.2971387344
0.2969912981
0.2970190944
0.2972749958
0.2971482965
0.2969660272
0.296855657
0.297019691
0.2967066271
0.29690298
0.2972816141
0.2971249898
0.297026433
0.2969137142
0.2970445949
0.2970130347
0.29716058
0.2968263468
0.2967927674
0.2971658336
0.2971632675
0.2969527743
0.2970636044
0.2970886867
0.2971549628
0.2970207577
0.2968689858
0.296996038
0.2971676469
0.2969736107
0.2967686091
0.2967284752
0.2970665478
0.2969244337
0.2968101643
0.2969376209
0.2967635507
0.2968939023
0.2967895265
0.2968490103
0.2968708593
0.2970038044
0.2967216568
0.2968118943
0.2969534777
0.2969744186
0.2972103527
0.2969032248
0.297126264
0.2969110514
0.2969765855
0.2969568522
0.2971620054
0.2969915666
0.2967318969
0.2967502616
0.2967831748
0.2968347833
0.2968810796
0.296937083
0.2968193479
0.2971791594
0.2966907156
0.2968121176
0.2969776253
0.2969380076
0.2970000964
0.2967383834
0.2967357711
0.2965355933
0.2968957717
0.2969016036
0.2968686836
0.2964933708
0.2966923365
0.2967029178
0.2968203979
0.2969237547
0.2968432288
0.2964449559
0.2968602546
0.2967754057
0.2965546517
0.2966233344
0.2967016454
0.2966551159
0.2965931928
0.2967332772
0.2965605434
0.2967252563
0.2965575328
0.2963998003
0.296717275
0.2964061595
0.2965386124
0.2965943905
0.2964927764
0.2967490307
0.2965698668
0.2967233583
0.2964806561
0.2966308545
0.2965883735
0.2965756538
0.2966920458
0.2966996784
0.296685351
0.2965621977
0.2966001477
0.2967783718
0.2966785487
0.2964593583
0.2966654426
0.2967798553
0.2967188384
0.2964858613
0.2964762807
0.2969174516
0.2966008465
0.296702235
0.2965203641
0.2965083255
0.296350665
0.2965249406
0.2964102901
0.2965830903
0.2964587952
0.296698421
0.2963176491
0.2965406304
0.2964892308
0.2967690041
0.296557037
0.2964110809
0.296542066
0.2967602043
0.2965990074
0.2966129577
0.2964727496
0.2964911865
0.296703911
0.2965856347
0.2964774307
0.2964854256
0.2967467828
0.2965669457
0.2967129437
0.2967023702
0.2965573725
0.2966038337
0.2965801328
0.2964354133
0.2966196136
0.2966778642
0.2965377944
0.2967397014
0.2965741298
0.2964428951
0.2964097678
0.2965804557
0.2967109668
0.2964718626
0.2966160416
0.2963702982
0.2966686122
0.2966239098
0.296427879
0.2965328625
0.2966414835
0.2963257186
0.2964911453
0.2963495387
0.2965030692
0.2963600712
0.2966992445
0.2963425492
0.2964710166
0.2964642223
0.2961831358
0.2963492859
0.296614785
0.2963522753
0.296097639
0.2960920053
0.296396377
0.2964635807
0.2962708606
0.2963551243
0.2964162313
0.2963895755
0.2963715564
0.2963808199
0.2962673891
0.2964351881
0.2963237663
0.2963279692
0.2963010603
0.2962169796
0.2965275133
0.2959547056
0.2965250663
0.29617924
0.296322094
0.2962279822
0.2962901378
0.2963663366
0.2963577684
0.2962088329
0.2963971439
0.2964748406
0.2962573369
0.2961698735
0.2961629563
0.2962350535
0.296232777
0.2961461202
0.2961022619
0.2962637166
0.2962462706
0.2961039506
0.2962862613
0.2962297733
0.295989455
0.2960887725
0.2961916511
0.296250473
0.2963592546
0.2962565525
0.2962542615
0.2961253746
0.2961024149
0.2961314699
0.296070665
0.2960571094
0.2961068251
0.2962385902
0.2962141783
0.2963148452
0.2961977877
0.2959038365
0.2962581603
0.2963464036
0.2961751054
0.2964107368
0.2960465317
0.2962932975
0.2958545601
0.2959244688
0.2962358551
0.2961235313
0.2959040943
0.2963736742
0.2963685082
0.2960753115
0.295950026
0.2961248314
0.2960634848
0.2961994
0.296267393
0.2960698041
0.2961073019
0.2960607828
0.295870364
0.2960001592
0.2961540631
0.2960899431
0.2960854677
0.2962330652
0.2962272465
0.2962008375
0.2962193767
0.2960912412
0.2961469793
0.2961264853
0.296044093
0.296308133
0.2962112793
0.2962547478
0.2962584297
0.2962059669
0.2963924542
0.2961828884
0.2963627889
0.2963236204
0.296175075
0.2963681369
0.2963491298
0.2963497513
0.2965247259
0.2964462996
0.296473236
0.2963873127
0.2964266077
0.2966274503
0.2963570166
0.2964052691
0.2962022326
0.2963380404
0.2964136055
0.2965268219
0.2964123098
0.2964809741
0.296537719
0.296530395
0.2965334243
0.2967797929
0.2966805185
0.2966230455
0.2965690917
0.2964287976
0.2965911516
0.2967917543
0.296593142
0.296846485
0.2966651696
0.2967928779
0.2967311292
0.2969344837
0.2968320951
0.2965226575
0.296636188
0.2966122159
0.2968444248
0.296986557
0.2968287677
0.2968466064
0.2969004246
0.296796909
0.2967154918
0.2967712072
0.2967226132
)
;

boundaryField
{
    upperWall
    {
        type            calculated;
        value           nonuniform List<scalar> 5(0.2958174894 0.2958423519 0.2957924557 0.2959143958 0.2955832296);
    }
    lowerWall
    {
        type            calculated;
        value           nonuniform List<scalar> 5(0.2975798732 0.2974934701 0.2976731528 0.2975589118 0.297468548);
    }
    periodicX_half0
    {
        type            cyclic;
    }
    periodicX_half1
    {
        type            cyclic;
    }
    frontAndBack
    {
        type            empty;
    }
}


// ************************************************************************* //
