/*--------------------------------*- C++ -*----------------------------------*\
| =========                 |                                                 |
| \\      /  F ield         | OpenFOAM: The Open Source CFD Toolbox           |
|  \\    /   O peration     | Version:  v1706                                 |
|   \\  /    A nd           | Web:      www.OpenFOAM.com                      |
|    \\/     M anipulation  |                                                 |
\*---------------------------------------------------------------------------*/
FoamFile
{
    version     2.0;
    format      ascii;
    class       volScalarField;
    location    "5";
    object      rhoM_mixture;
}
// * * * * * * * * * * * * * * * * * * * * * * * * * * * * * * * * * * * * * //

dimensions      [1 -3 0 0 0 0 0];


internalField   nonuniform List<scalar> 
500
(
2.340476672e-06
2.341543278e-06
2.341641663e-06
2.340658369e-06
2.340589262e-06
2.325044618e-06
2.326070335e-06
2.325829698e-06
2.325813048e-06
2.326513091e-06
2.313371534e-06
2.31305381e-06
2.313249105e-06
2.313512814e-06
2.312511048e-06
2.3021874e-06
2.301588371e-06
2.301446634e-06
2.302425424e-06
2.300800597e-06
2.290538276e-06
2.290582633e-06
2.290932227e-06
2.29071969e-06
2.290190503e-06
2.280217297e-06
2.280371641e-06
2.280270534e-06
2.280161389e-06
2.280283655e-06
2.269683856e-06
2.269427957e-06
2.269211221e-06
2.268984107e-06
2.269871949e-06
2.259181585e-06
2.25971344e-06
2.258564922e-06
2.259397214e-06
2.259259866e-06
2.248913759e-06
2.249397451e-06
2.24946227e-06
2.2488109e-06
2.249234282e-06
2.239775747e-06
2.239331882e-06
2.239357552e-06
2.239847272e-06
2.239534902e-06
2.230450029e-06
2.229812861e-06
2.229971029e-06
2.230673916e-06
2.230314462e-06
2.221183833e-06
2.221158608e-06
2.221125483e-06
2.221151991e-06
2.220699332e-06
2.2118442e-06
2.211753198e-06
2.212394886e-06
2.21166516e-06
2.211459522e-06
2.202798682e-06
2.202824339e-06
2.202223485e-06
2.203095193e-06
2.202297275e-06
2.193755396e-06
2.193629233e-06
2.193287717e-06
2.193561885e-06
2.193473076e-06
2.185092059e-06
2.184446344e-06
2.184713183e-06
2.185224494e-06
2.184501261e-06
2.175571589e-06
2.176722034e-06
2.175691153e-06
2.176243023e-06
2.176096116e-06
2.167666822e-06
2.167365407e-06
2.167934131e-06
2.166942656e-06
2.167510758e-06
2.160291255e-06
2.159195871e-06
2.159382277e-06
2.159273857e-06
2.159998275e-06
2.150808942e-06
2.151294682e-06
2.150535961e-06
2.150036928e-06
2.151056553e-06
2.142342575e-06
2.142880556e-06
2.14226227e-06
2.14206462e-06
2.142271036e-06
2.134888803e-06
2.135386072e-06
2.134405832e-06
2.134043883e-06
2.134802165e-06
2.12617485e-06
2.126329767e-06
2.126024406e-06
2.1255883e-06
2.126481213e-06
2.117983517e-06
2.117932619e-06
2.118050214e-06
2.117917793e-06
2.117999632e-06
2.109442676e-06
2.109743245e-06
2.109901039e-06
2.109958091e-06
2.109840771e-06
2.101329423e-06
2.101644298e-06
2.101868796e-06
2.102619039e-06
2.101301068e-06
2.094159754e-06
2.093650143e-06
2.094608031e-06
2.094402682e-06
2.094988986e-06
2.086576982e-06
2.086434636e-06
2.086962654e-06
2.086870923e-06
2.087324868e-06
2.079193589e-06
2.079349619e-06
2.079807631e-06
2.078757008e-06
2.079408397e-06
2.07189155e-06
2.072246873e-06
2.072152959e-06
2.072022828e-06
2.072238746e-06
2.064841183e-06
2.064718685e-06
2.063912946e-06
2.063724492e-06
2.064289797e-06
2.057738255e-06
2.056943308e-06
2.057321716e-06
2.057223652e-06
2.056705845e-06
2.050376841e-06
2.049587216e-06
2.050261633e-06
2.049602061e-06
2.049702542e-06
2.042689712e-06
2.041958079e-06
2.042370882e-06
2.041724616e-06
2.043056137e-06
2.035971696e-06
2.035316524e-06
2.034748208e-06
2.0347473e-06
2.034921273e-06
2.027903563e-06
2.028786025e-06
2.027676475e-06
2.027849667e-06
2.028138557e-06
2.020939723e-06
2.02080159e-06
2.021433286e-06
2.020612054e-06
2.021396871e-06
2.013641125e-06
2.014635757e-06
2.014494255e-06
2.014291025e-06
2.01463767e-06
2.007494166e-06
2.00733097e-06
2.007657552e-06
2.008239673e-06
2.007911576e-06
2.000333119e-06
2.000511627e-06
2.000932401e-06
2.000707374e-06
2.001152928e-06
1.993393804e-06
1.993933336e-06
1.993773756e-06
1.993673662e-06
1.993573913e-06
1.987155799e-06
1.987742475e-06
1.98718422e-06
1.98765413e-06
1.987146958e-06
1.980863162e-06
1.980889361e-06
1.98099411e-06
1.981141704e-06
1.980387598e-06
1.974462989e-06
1.974303479e-06
1.97427305e-06
1.974337937e-06
1.974541665e-06
1.968162112e-06
1.967896775e-06
1.967818806e-06
1.968050983e-06
1.968476278e-06
1.961975878e-06
1.961299572e-06
1.961976247e-06
1.961745172e-06
1.961596137e-06
1.954220862e-06
1.954926533e-06
1.954999454e-06
1.955753214e-06
1.954853446e-06
1.949020795e-06
1.948538645e-06
1.948628941e-06
1.948128245e-06
1.94860006e-06
1.94294817e-06
1.942123247e-06
1.94291978e-06
1.942756812e-06
1.942676603e-06
1.936909674e-06
1.936173707e-06
1.936138808e-06
1.936662788e-06
1.936355638e-06
1.929860942e-06
1.929826129e-06
1.930353546e-06
1.930803277e-06
1.931284956e-06
1.924442225e-06
1.924102537e-06
1.923519261e-06
1.92393957e-06
1.923898214e-06
1.917591921e-06
1.917344143e-06
1.917741298e-06
1.91805732e-06
1.918066456e-06
1.9124439e-06
1.911968989e-06
1.912253525e-06
1.912233053e-06
1.911981982e-06
1.906736418e-06
1.906146966e-06
1.905637211e-06
1.906445423e-06
1.906269821e-06
1.900755736e-06
1.900726363e-06
1.900333648e-06
1.900445735e-06
1.899680214e-06
1.895373193e-06
1.894380796e-06
1.89491233e-06
1.894751556e-06
1.895293863e-06
1.888774525e-06
1.888877283e-06
1.889467794e-06
1.889119519e-06
1.888772134e-06
1.883292484e-06
1.883350937e-06
1.883142844e-06
1.883827931e-06
1.883056096e-06
1.878013874e-06
1.877849099e-06
1.877436288e-06
1.877729349e-06
1.877215716e-06
1.872233359e-06
1.871635234e-06
1.872604289e-06
1.871984585e-06
1.871496549e-06
1.866406517e-06
1.866300795e-06
1.866499912e-06
1.866590967e-06
1.866889575e-06
1.8613034e-06
1.86128721e-06
1.860497528e-06
1.861661977e-06
1.861130899e-06
1.85544171e-06
1.855771525e-06
1.855411235e-06
1.855613811e-06
1.85575323e-06
1.850767039e-06
1.849903209e-06
1.8500994e-06
1.849849025e-06
1.849961736e-06
1.844853973e-06
1.844783748e-06
1.844787339e-06
1.844910499e-06
1.84451922e-06
1.838986855e-06
1.839847493e-06
1.839472792e-06
1.838818967e-06
1.839226298e-06
1.833686559e-06
1.834293873e-06
1.83407713e-06
1.834351907e-06
1.83401284e-06
1.828735331e-06
1.829321943e-06
1.829206486e-06
1.828344118e-06
1.829249271e-06
1.824229232e-06
1.82359262e-06
1.823882352e-06
1.823266387e-06
1.823407087e-06
1.819123573e-06
1.818852323e-06
1.818011838e-06
1.817838331e-06
1.818054465e-06
1.813395489e-06
1.813765735e-06
1.813176381e-06
1.812871368e-06
1.813017174e-06
1.808463602e-06
1.80781923e-06
1.808248975e-06
1.808208153e-06
1.808061417e-06
1.803410783e-06
1.80349239e-06
1.803375939e-06
1.803157308e-06
1.803136712e-06
1.798356581e-06
1.79817557e-06
1.798806924e-06
1.798481014e-06
1.798230702e-06
1.794191846e-06
1.794492555e-06
1.794071814e-06
1.793448407e-06
1.793942404e-06
1.788863963e-06
1.789482044e-06
1.788655136e-06
1.788675711e-06
1.788814847e-06
1.783937206e-06
1.784179007e-06
1.78384384e-06
1.783393433e-06
1.783825965e-06
1.77877777e-06
1.778773165e-06
1.779355809e-06
1.778788671e-06
1.779434069e-06
1.773991857e-06
1.773731723e-06
1.774343923e-06
1.773869338e-06
1.774062251e-06
1.769147225e-06
1.76929528e-06
1.768715767e-06
1.769340398e-06
1.769673974e-06
1.764059167e-06
1.764316618e-06
1.764225744e-06
1.764342801e-06
1.764193193e-06
1.760499885e-06
1.760233785e-06
1.760033262e-06
1.760089247e-06
1.760013326e-06
1.755180015e-06
1.755079469e-06
1.755162726e-06
1.755233471e-06
1.755062571e-06
1.750399446e-06
1.750231694e-06
1.750836627e-06
1.750786373e-06
1.750302624e-06
1.745939257e-06
1.746088535e-06
1.745620248e-06
1.7454487e-06
1.746469645e-06
1.740804084e-06
1.740791219e-06
1.740738072e-06
1.741215488e-06
1.741087032e-06
1.736831313e-06
1.735857489e-06
1.736393951e-06
1.73653718e-06
1.736507545e-06
1.732070692e-06
1.731240107e-06
1.73218074e-06
1.732708407e-06
1.732292992e-06
1.727182804e-06
1.727317698e-06
1.727244556e-06
1.727708958e-06
1.72732671e-06
1.722205687e-06
1.722778522e-06
1.723288499e-06
1.722593448e-06
1.722250627e-06
1.718499966e-06
1.718740996e-06
1.717951652e-06
1.71849737e-06
1.718357438e-06
1.714152802e-06
1.71376167e-06
1.713816119e-06
1.713827287e-06
1.714021519e-06
1.709228348e-06
1.709415483e-06
1.709130199e-06
1.709600161e-06
1.708935448e-06
1.70437415e-06
1.704584504e-06
1.704674038e-06
1.70439272e-06
1.704198272e-06
1.699610427e-06
1.699458544e-06
1.698671219e-06
1.699971001e-06
1.69943438e-06
1.694131913e-06
1.694223118e-06
1.694565056e-06
1.694359778e-06
1.694513416e-06
1.689294264e-06
1.689635349e-06
1.689406514e-06
1.689052005e-06
1.689271888e-06
1.683785811e-06
1.683353366e-06
1.6837447e-06
1.683796164e-06
1.683828838e-06
1.677218042e-06
1.6769021e-06
1.67749322e-06
1.677070504e-06
1.676962308e-06
)
;

boundaryField
{
    upperWall
    {
        type            calculated;
        value           nonuniform List<scalar> 5(1.672038632e-06 1.672324936e-06 1.673053726e-06 1.673131008e-06 1.671111799e-06);
    }
    lowerWall
    {
        type            calculated;
        value           nonuniform List<scalar> 5(2.35273749e-06 2.349177433e-06 2.352584584e-06 2.352154162e-06 2.353867908e-06);
    }
    periodicX_half0
    {
        type            cyclic;
    }
    periodicX_half1
    {
        type            cyclic;
    }
    frontAndBack
    {
        type            empty;
    }
}


// ************************************************************************* //
