/*--------------------------------*- C++ -*----------------------------------*\
| =========                 |                                                 |
| \\      /  F ield         | OpenFOAM: The Open Source CFD Toolbox           |
|  \\    /   O peration     | Version:  v1706                                 |
|   \\  /    A nd           | Web:      www.OpenFOAM.com                      |
|    \\/     M anipulation  |                                                 |
\*---------------------------------------------------------------------------*/
FoamFile
{
    version     2.0;
    format      ascii;
    class       volScalarField;
    location    "5";
    object      rhoM_O2;
}
// * * * * * * * * * * * * * * * * * * * * * * * * * * * * * * * * * * * * * //

dimensions      [1 -3 0 0 0 0 0];


internalField   nonuniform List<scalar> 
500
(
5.492731781e-07
5.493980555e-07
5.49010017e-07
5.494793485e-07
5.492885239e-07
5.457869349e-07
5.456751785e-07
5.457342799e-07
5.458757582e-07
5.457142561e-07
5.424848989e-07
5.428719677e-07
5.426079508e-07
5.426547299e-07
5.42757644e-07
5.401715568e-07
5.396862519e-07
5.397931593e-07
5.402139433e-07
5.397561353e-07
5.372747878e-07
5.373086741e-07
5.371952633e-07
5.374595653e-07
5.373516311e-07
5.34654529e-07
5.34453721e-07
5.348126082e-07
5.349923656e-07
5.352390399e-07
5.321979972e-07
5.320047195e-07
5.322926394e-07
5.322926394e-07
5.324383392e-07
5.298124898e-07
5.296536689e-07
5.296241182e-07
5.297275457e-07
5.296436856e-07
5.275157486e-07
5.276045149e-07
5.272632554e-07
5.274144889e-07
5.275251615e-07
5.253833049e-07
5.250993213e-07
5.25145473e-07
5.250669753e-07
5.25235209e-07
5.227040017e-07
5.232405355e-07
5.230899296e-07
5.230194756e-07
5.229354443e-07
5.207431575e-07
5.208104168e-07
5.208945051e-07
5.209416266e-07
5.206895897e-07
5.189251608e-07
5.187082654e-07
5.187594372e-07
5.184487553e-07
5.187317691e-07
5.16504455e-07
5.166532925e-07
5.167215216e-07
5.163934972e-07
5.164115243e-07
5.140808397e-07
5.146873711e-07
5.144768079e-07
5.144294583e-07
5.14791312e-07
5.125416352e-07
5.119821112e-07
5.123284479e-07
5.12718312e-07
5.126762678e-07
5.10106154e-07
5.099613098e-07
5.107185042e-07
5.103150057e-07
5.103538552e-07
5.082152503e-07
5.083328827e-07
5.085076199e-07
5.079828379e-07
5.079731398e-07
5.064283446e-07
5.061629586e-07
5.063616558e-07
5.063346723e-07
5.06233926e-07
5.046410396e-07
5.041937284e-07
5.044587721e-07
5.043102769e-07
5.047795515e-07
5.027890995e-07
5.024670081e-07
5.020236903e-07
5.022913011e-07
5.025691235e-07
5.004452369e-07
5.002358147e-07
5.004413577e-07
5.002535566e-07
5.005156909e-07
4.983778846e-07
4.980886527e-07
4.982535206e-07
4.985513668e-07
4.989657614e-07
4.966325097e-07
4.964887494e-07
4.964402589e-07
4.965758043e-07
4.968596167e-07
4.951003221e-07
4.948436073e-07
4.948901583e-07
4.950164049e-07
4.94828889e-07
4.927641609e-07
4.9255742e-07
4.931042794e-07
4.92632723e-07
4.928626823e-07
4.91082166e-07
4.909898057e-07
4.909976783e-07
4.909261975e-07
4.913659784e-07
4.891529262e-07
4.891313051e-07
4.892755218e-07
4.893171666e-07
4.890427671e-07
4.870481507e-07
4.870838625e-07
4.87245878e-07
4.871960183e-07
4.872079413e-07
4.853295311e-07
4.853835553e-07
4.855499635e-07
4.855416345e-07
4.855452855e-07
4.83722725e-07
4.838134879e-07
4.838418407e-07
4.834554565e-07
4.837292285e-07
4.817888074e-07
4.820768983e-07
4.821070195e-07
4.819968604e-07
4.818894395e-07
4.80087131e-07
4.800790302e-07
4.804345516e-07
4.810126731e-07
4.802905631e-07
4.784616703e-07
4.784751336e-07
4.784980668e-07
4.787524425e-07
4.789420691e-07
4.769017575e-07
4.767931957e-07
4.770445479e-07
4.772129528e-07
4.769359291e-07
4.751384695e-07
4.754485809e-07
4.751005328e-07
4.752474877e-07
4.75757038e-07
4.737693243e-07
4.736736553e-07
4.738553523e-07
4.740607811e-07
4.739328231e-07
4.719194379e-07
4.7171515e-07
4.7186336e-07
4.722784963e-07
4.723504905e-07
4.700912867e-07
4.702237515e-07
4.703666561e-07
4.705675781e-07
4.703218166e-07
4.685620085e-07
4.687385142e-07
4.689748629e-07
4.68909315e-07
4.686299524e-07
4.670621099e-07
4.670917177e-07
4.668725974e-07
4.669767665e-07
4.671341041e-07
4.651779379e-07
4.654337969e-07
4.654628912e-07
4.652126799e-07
4.653736115e-07
4.640490776e-07
4.635974308e-07
4.637009724e-07
4.638936796e-07
4.640291109e-07
4.627758866e-07
4.623655994e-07
4.625924782e-07
4.624885372e-07
4.625281854e-07
4.60911339e-07
4.611009656e-07
4.606876549e-07
4.606264427e-07
4.608989026e-07
4.591562089e-07
4.591890683e-07
4.593849702e-07
4.596518394e-07
4.593696814e-07
4.580621477e-07
4.577437644e-07
4.576155211e-07
4.57775597e-07
4.579299111e-07
4.564542577e-07
4.562537921e-07
4.563320615e-07
4.55865126e-07
4.562965208e-07
4.549848226e-07
4.548356999e-07
4.545611292e-07
4.547266246e-07
4.541854129e-07
4.53200427e-07
4.533995236e-07
4.533686037e-07
4.528546608e-07
4.53083251e-07
4.520132069e-07
4.519085244e-07
4.516560882e-07
4.516108494e-07
4.513114629e-07
4.504454215e-07
4.504018371e-07
4.500255503e-07
4.50271483e-07
4.503002351e-07
4.487011875e-07
4.488785489e-07
4.484995809e-07
4.487523593e-07
4.490300676e-07
4.474481344e-07
4.475220112e-07
4.473016358e-07
4.472881726e-07
4.474570909e-07
4.461082546e-07
4.460759086e-07
4.459278697e-07
4.460319818e-07
4.462794548e-07
4.446509706e-07
4.445875336e-07
4.447500055e-07
4.448215433e-07
4.448112177e-07
4.431647635e-07
4.432432611e-07
4.434328877e-07
4.433862798e-07
4.431571761e-07
4.417237951e-07
4.421417838e-07
4.419724661e-07
4.420997967e-07
4.417111876e-07
4.404317214e-07
4.403171695e-07
4.403634352e-07
4.40481467e-07
4.406846139e-07
4.392427328e-07
4.394418293e-07
4.392095881e-07
4.393263077e-07
4.393359488e-07
4.383582079e-07
4.379378803e-07
4.378976046e-07
4.379107256e-07
4.380216264e-07
4.367280123e-07
4.365899568e-07
4.365332514e-07
4.364719822e-07
4.363403731e-07
4.355789001e-07
4.352131672e-07
4.350272487e-07
4.353616054e-07
4.352668491e-07
4.341312002e-07
4.343729684e-07
4.33974433e-07
4.339411742e-07
4.340007891e-07
4.327337592e-07
4.327278833e-07
4.326684966e-07
4.32543334e-07
4.328609757e-07
4.31408826e-07
4.313166369e-07
4.313775068e-07
4.316978868e-07
4.316828262e-07
4.299901063e-07
4.302505291e-07
4.300301538e-07
4.303136239e-07
4.302655897e-07
4.288637561e-07
4.289696937e-07
4.289014076e-07
4.285042414e-07
4.29053725e-07
4.276064814e-07
4.276114446e-07
4.272928901e-07
4.275052217e-07
4.274092675e-07
4.261524492e-07
4.262397322e-07
4.260742367e-07
4.262310039e-07
4.266051228e-07
4.251601611e-07
4.247716662e-07
4.248711004e-07
4.251977556e-07
4.251589631e-07
4.240923419e-07
4.240580563e-07
4.240776236e-07
4.240761974e-07
4.239741961e-07
4.228800779e-07
4.225808056e-07
4.227812142e-07
4.227022602e-07
4.227623314e-07
4.215799604e-07
4.213779544e-07
4.218021042e-07
4.212414963e-07
4.218479135e-07
4.203564009e-07
4.202816684e-07
4.20363703e-07
4.204166433e-07
4.203330684e-07
4.193538443e-07
4.191422543e-07
4.195318903e-07
4.193856199e-07
4.193348474e-07
4.180405488e-07
4.180346729e-07
4.179194365e-07
4.178536034e-07
4.180812238e-07
4.167557201e-07
4.168661645e-07
4.169019334e-07
4.165467543e-07
4.169229269e-07
4.154403138e-07
4.154727169e-07
4.155369526e-07
4.157867075e-07
4.157848249e-07
4.144753516e-07
4.145946384e-07
4.145616648e-07
4.145800912e-07
4.145930981e-07
4.134707983e-07
4.13239698e-07
4.132067815e-07
4.130324437e-07
4.133551056e-07
4.122718835e-07
4.124478186e-07
4.123030315e-07
4.121951543e-07
4.122791856e-07
4.109362252e-07
4.106415738e-07
4.110361728e-07
4.108449489e-07
4.10992189e-07
4.094035242e-07
4.096183088e-07
4.097446125e-07
4.097982944e-07
4.094247459e-07
4.087537507e-07
4.090247844e-07
4.086271047e-07
4.085447849e-07
4.086314974e-07
4.074537472e-07
4.077674526e-07
4.077244387e-07
4.074955062e-07
4.076491927e-07
4.064350461e-07
4.063924315e-07
4.063402328e-07
4.064173043e-07
4.065355642e-07
4.053185082e-07
4.055172624e-07
4.056172671e-07
4.054915339e-07
4.055942198e-07
4.044878934e-07
4.042583904e-07
4.043194885e-07
4.044757422e-07
4.045429444e-07
4.033831643e-07
4.032257126e-07
4.034293159e-07
4.034290307e-07
4.033641674e-07
4.022217869e-07
4.021006746e-07
4.022325118e-07
4.02212431e-07
4.024612161e-07
4.0122368e-07
4.011270411e-07
4.011451253e-07
4.013538058e-07
4.014883243e-07
4.001308739e-07
4.000550575e-07
4.001961935e-07
3.99915804e-07
4.00151297e-07
3.988631595e-07
3.990671051e-07
3.990182722e-07
3.989263113e-07
3.989633353e-07
3.982212585e-07
3.981195995e-07
3.981646672e-07
3.980789815e-07
3.983520119e-07
3.970574851e-07
3.97227145e-07
3.972335914e-07
3.968987783e-07
3.971759732e-07
3.962242461e-07
3.957521762e-07
3.958699798e-07
3.959520714e-07
3.960948619e-07
3.945159522e-07
3.948954336e-07
3.948503088e-07
3.945256503e-07
3.947869859e-07
3.933509236e-07
3.935034692e-07
3.93594061e-07
3.933759105e-07
3.935811112e-07
3.919934161e-07
3.919259857e-07
3.919016834e-07
3.917127413e-07
3.916967109e-07
)
;

boundaryField
{
    upperWall
    {
        type            calculated;
        value           nonuniform List<scalar> 5(3.909211421e-07 3.91060748e-07 3.915609715e-07 3.905318435e-07 3.901461423e-07);
    }
    lowerWall
    {
        type            calculated;
        value           nonuniform List<scalar> 5(5.519454378e-07 5.51096435e-07 5.526368296e-07 5.50390676e-07 5.512566927e-07);
    }
    periodicX_half0
    {
        type            cyclic;
    }
    periodicX_half1
    {
        type            cyclic;
    }
    frontAndBack
    {
        type            empty;
    }
}


// ************************************************************************* //
