/*--------------------------------*- C++ -*----------------------------------*\
| =========                 |                                                 |
| \\      /  F ield         | OpenFOAM: The Open Source CFD Toolbox           |
|  \\    /   O peration     | Version:  v1706                                 |
|   \\  /    A nd           | Web:      www.OpenFOAM.com                      |
|    \\/     M anipulation  |                                                 |
\*---------------------------------------------------------------------------*/
FoamFile
{
    version     2.0;
    format      ascii;
    class       volScalarField;
    location    "5";
    object      rhoM_N2;
}
// * * * * * * * * * * * * * * * * * * * * * * * * * * * * * * * * * * * * * //

dimensions      [1 -3 0 0 0 0 0];


internalField   nonuniform List<scalar> 
500
(
1.794357206e-06
1.79536511e-06
1.795479868e-06
1.794805202e-06
1.794403849e-06
1.782690587e-06
1.783419085e-06
1.783628327e-06
1.783396663e-06
1.784019693e-06
1.773851519e-06
1.773694214e-06
1.774023856e-06
1.774268853e-06
1.773255507e-06
1.765395978e-06
1.765281969e-06
1.765309035e-06
1.765859055e-06
1.764430073e-06
1.756770496e-06
1.756644452e-06
1.756739385e-06
1.756461529e-06
1.756532541e-06
1.748684248e-06
1.74910318e-06
1.748628867e-06
1.748432609e-06
1.74849663e-06
1.740525989e-06
1.740400045e-06
1.740489484e-06
1.740057169e-06
1.740857329e-06
1.732336718e-06
1.732931382e-06
1.732007575e-06
1.732441788e-06
1.732876001e-06
1.724510648e-06
1.725038095e-06
1.725216724e-06
1.724987908e-06
1.72532549e-06
1.717694079e-06
1.717034745e-06
1.71729682e-06
1.717829611e-06
1.717834256e-06
1.710350712e-06
1.710047387e-06
1.70998866e-06
1.710658232e-06
1.710467068e-06
1.703256437e-06
1.703565055e-06
1.703463131e-06
1.703615542e-06
1.703268821e-06
1.696191126e-06
1.696247306e-06
1.696731257e-06
1.69630069e-06
1.695897439e-06
1.689517879e-06
1.689516781e-06
1.689171558e-06
1.689382197e-06
1.688855199e-06
1.682447874e-06
1.682494167e-06
1.682211067e-06
1.682203876e-06
1.682420558e-06
1.675685139e-06
1.675471903e-06
1.675535424e-06
1.675880497e-06
1.675211175e-06
1.668562898e-06
1.669472373e-06
1.668826222e-06
1.668986574e-06
1.669131295e-06
1.662777055e-06
1.662321668e-06
1.66280482e-06
1.661959216e-06
1.662388635e-06
1.657067566e-06
1.656179665e-06
1.656169427e-06
1.656266607e-06
1.656442739e-06
1.649793114e-06
1.649891842e-06
1.649826023e-06
1.64942437e-06
1.649815386e-06
1.643044112e-06
1.643756031e-06
1.643534056e-06
1.643082714e-06
1.643206011e-06
1.637549358e-06
1.638025919e-06
1.637124633e-06
1.637035544e-06
1.637856578e-06
1.631117713e-06
1.630976837e-06
1.630632513e-06
1.630455632e-06
1.631439365e-06
1.624632734e-06
1.624424042e-06
1.624420297e-06
1.62458789e-06
1.624582047e-06
1.618252576e-06
1.618382914e-06
1.618400143e-06
1.618425761e-06
1.618339818e-06
1.612089898e-06
1.612008349e-06
1.612391725e-06
1.613024792e-06
1.612168051e-06
1.60680868e-06
1.606301008e-06
1.607013477e-06
1.606619015e-06
1.607638254e-06
1.600897692e-06
1.600902585e-06
1.601031326e-06
1.600705529e-06
1.601140192e-06
1.595211924e-06
1.59519105e-06
1.595796301e-06
1.594776313e-06
1.595284285e-06
1.589602662e-06
1.590104142e-06
1.589939945e-06
1.589945588e-06
1.590009359e-06
1.584488837e-06
1.584169582e-06
1.583794097e-06
1.583221655e-06
1.583962039e-06
1.578748437e-06
1.578395724e-06
1.578387634e-06
1.578356772e-06
1.577911872e-06
1.573266118e-06
1.572820719e-06
1.573132883e-06
1.572782566e-06
1.572729132e-06
1.567646569e-06
1.566629527e-06
1.567206114e-06
1.566607654e-06
1.567715034e-06
1.562031914e-06
1.561815781e-06
1.561335775e-06
1.56141228e-06
1.561426063e-06
1.556171812e-06
1.556649521e-06
1.555836676e-06
1.555973357e-06
1.556040274e-06
1.550677807e-06
1.550414683e-06
1.550975639e-06
1.550309063e-06
1.550917261e-06
1.545043576e-06
1.545437439e-06
1.545464056e-06
1.545435791e-06
1.545607528e-06
1.540377348e-06
1.54030229e-06
1.540429034e-06
1.540594479e-06
1.54070679e-06
1.534565536e-06
1.534761044e-06
1.535318904e-06
1.535347169e-06
1.535388768e-06
1.529488316e-06
1.530025052e-06
1.529884925e-06
1.530126377e-06
1.530006775e-06
1.524776394e-06
1.525302144e-06
1.525135749e-06
1.525417401e-06
1.525243616e-06
1.520343227e-06
1.520361155e-06
1.520248494e-06
1.520359807e-06
1.520095284e-06
1.51536109e-06
1.515018913e-06
1.515099613e-06
1.514889473e-06
1.515112197e-06
1.510621152e-06
1.510303845e-06
1.510505695e-06
1.510488516e-06
1.510715286e-06
1.505828081e-06
1.505087597e-06
1.505890004e-06
1.505384529e-06
1.505325402e-06
1.499628699e-06
1.500270305e-06
1.50042007e-06
1.500956306e-06
1.500018317e-06
1.495759784e-06
1.495550093e-06
1.495874342e-06
1.494990286e-06
1.495408818e-06
1.491261448e-06
1.490517818e-06
1.491189986e-06
1.491164218e-06
1.490981095e-06
1.486613946e-06
1.486063727e-06
1.485864473e-06
1.486352969e-06
1.486440361e-06
1.481205336e-06
1.481256722e-06
1.481314751e-06
1.481766592e-06
1.482074161e-06
1.477415673e-06
1.47690895e-06
1.476363724e-06
1.476800634e-06
1.476759335e-06
1.472111534e-06
1.471584336e-06
1.472038424e-06
1.47226819e-06
1.472354683e-06
1.467786483e-06
1.467496692e-06
1.467903539e-06
1.467856597e-06
1.467399013e-06
1.463523506e-06
1.463393916e-06
1.462519798e-06
1.463287049e-06
1.463167696e-06
1.459282152e-06
1.45908175e-06
1.458886991e-06
1.458694329e-06
1.458070001e-06
1.454711056e-06
1.454242985e-06
1.454803442e-06
1.45448938e-06
1.4549986e-06
1.449669392e-06
1.450019509e-06
1.45043939e-06
1.450128424e-06
1.449647319e-06
1.445711837e-06
1.445746045e-06
1.445420947e-06
1.446020405e-06
1.445238472e-06
1.441851262e-06
1.441420645e-06
1.441337797e-06
1.441320518e-06
1.440948479e-06
1.436997715e-06
1.436448594e-06
1.437258942e-06
1.437006454e-06
1.436543177e-06
1.432782129e-06
1.432718108e-06
1.432651441e-06
1.432932294e-06
1.433077614e-06
1.428688243e-06
1.428948221e-06
1.428320498e-06
1.428995763e-06
1.428798756e-06
1.424473806e-06
1.424774584e-06
1.424117247e-06
1.424529187e-06
1.424600149e-06
1.420771685e-06
1.420259668e-06
1.420317347e-06
1.420085683e-06
1.420216821e-06
1.416230502e-06
1.416050974e-06
1.415861458e-06
1.416476997e-06
1.416139115e-06
1.411848621e-06
1.412516495e-06
1.412173969e-06
1.411524422e-06
1.411781205e-06
1.407771714e-06
1.408163729e-06
1.40788857e-06
1.408119534e-06
1.407830441e-06
1.403992189e-06
1.404499162e-06
1.404301956e-06
1.403657053e-06
1.404183352e-06
1.40059544e-06
1.400142351e-06
1.400308345e-06
1.399548735e-06
1.399894407e-06
1.396327869e-06
1.396638734e-06
1.395724715e-06
1.395715676e-06
1.395703791e-06
1.392264495e-06
1.392361824e-06
1.392193482e-06
1.391911231e-06
1.39207438e-06
1.388571512e-06
1.388048709e-06
1.38787797e-06
1.388165514e-06
1.388310635e-06
1.384770264e-06
1.384703546e-06
1.384713684e-06
1.384311132e-06
1.384505491e-06
1.380833683e-06
1.380705841e-06
1.380987093e-06
1.381128119e-06
1.380777403e-06
1.377547597e-06
1.377837239e-06
1.377755191e-06
1.377313936e-06
1.377462453e-06
1.373426445e-06
1.373933568e-06
1.373500403e-06
1.373621154e-06
1.373332661e-06
1.369707844e-06
1.36978375e-06
1.369740953e-06
1.369273032e-06
1.369663349e-06
1.365702199e-06
1.366069145e-06
1.366337513e-06
1.366028745e-06
1.36656598e-06
1.362001276e-06
1.362107845e-06
1.362405027e-06
1.362112938e-06
1.362242128e-06
1.358575364e-06
1.358644978e-06
1.358445974e-06
1.358728774e-06
1.358970275e-06
1.354861358e-06
1.354881433e-06
1.354937114e-06
1.354992845e-06
1.354775464e-06
1.351983167e-06
1.351798246e-06
1.351600691e-06
1.351831355e-06
1.351587257e-06
1.347907908e-06
1.347874849e-06
1.348115102e-06
1.347895473e-06
1.348046836e-06
1.344543719e-06
1.344271456e-06
1.3445191e-06
1.344662522e-06
1.344068956e-06
1.341148269e-06
1.341128743e-06
1.340656577e-06
1.340493529e-06
1.341233913e-06
1.337183772e-06
1.336883044e-06
1.336767487e-06
1.337111412e-06
1.337296433e-06
1.333859234e-06
1.33311925e-06
1.333233558e-06
1.333737785e-06
1.333575286e-06
1.330005102e-06
1.329427866e-06
1.329914114e-06
1.330537393e-06
1.330319363e-06
1.326365304e-06
1.326427577e-06
1.326509375e-06
1.326937096e-06
1.326803462e-06
1.32249514e-06
1.322654893e-06
1.323151579e-06
1.322846106e-06
1.322695593e-06
1.319757976e-06
1.319947492e-06
1.31931018e-06
1.319623942e-06
1.319804618e-06
1.316493064e-06
1.315916527e-06
1.316158378e-06
1.316492265e-06
1.316306046e-06
1.312840432e-06
1.312668395e-06
1.312662302e-06
1.313049374e-06
1.312453461e-06
1.308942354e-06
1.309119335e-06
1.309247376e-06
1.308880031e-06
1.308878233e-06
1.305255464e-06
1.30508892e-06
1.304567664e-06
1.305596642e-06
1.305060705e-06
1.301026295e-06
1.301143e-06
1.301343802e-06
1.30132912e-06
1.301317435e-06
1.297422302e-06
1.297879537e-06
1.297791895e-06
1.297193735e-06
1.297490918e-06
1.293070036e-06
1.292850607e-06
1.293150037e-06
1.293398429e-06
1.293150486e-06
1.288244105e-06
1.288117561e-06
1.28859567e-06
1.288164453e-06
1.287971142e-06
)
;

boundaryField
{
    upperWall
    {
        type            calculated;
        value           nonuniform List<scalar> 5(1.283679171e-06 1.284504098e-06 1.285343588e-06 1.285108498e-06 1.283961696e-06);
    }
    lowerWall
    {
        type            calculated;
        value           nonuniform List<scalar> 5(1.803344993e-06 1.80127937e-06 1.804292049e-06 1.803958047e-06 1.804885254e-06);
    }
    periodicX_half0
    {
        type            cyclic;
    }
    periodicX_half1
    {
        type            cyclic;
    }
    frontAndBack
    {
        type            empty;
    }
}


// ************************************************************************* //
