/*--------------------------------*- C++ -*----------------------------------*\
| =========                 |                                                 |
| \\      /  F ield         | OpenFOAM: The Open Source CFD Toolbox           |
|  \\    /   O peration     | Version:  v1706                                 |
|   \\  /    A nd           | Web:      www.OpenFOAM.com                      |
|    \\/     M anipulation  |                                                 |
\*---------------------------------------------------------------------------*/
FoamFile
{
    version     2.0;
    format      ascii;
    class       volScalarField;
    location    "5";
    object      rhoN_O2;
}
// * * * * * * * * * * * * * * * * * * * * * * * * * * * * * * * * * * * * * //

dimensions      [0 -3 0 0 0 0 0];


internalField   nonuniform List<scalar> 
500
(
1.028086344e+19
1.028196853e+19
1.028166031e+19
1.027585029e+19
1.028210492e+19
1.0209978e+19
1.021557323e+19
1.020710414e+19
1.021115182e+19
1.021260164e+19
1.015662679e+19
1.015360687e+19
1.015107774e+19
1.015142999e+19
1.0151648e+19
1.010526021e+19
1.009612957e+19
1.009295178e+19
1.010102352e+19
1.009733668e+19
1.004833922e+19
1.005154708e+19
1.005634115e+19
1.005757081e+19
1.004627188e+19
1.000626975e+19
1.000128881e+19
1.000831453e+19
1.000995444e+19
1.001105093e+19
9.961556237e+18
9.9591098e+18
9.953345962e+18
9.957208926e+18
9.958859572e+18
9.91801332e+18
9.916830911e+18
9.91260066e+18
9.920094616e+18
9.909334807e+18
9.872046519e+18
9.871222807e+18
9.869080295e+18
9.861125618e+18
9.862740825e+18
9.828344659e+18
9.832400932e+18
9.827950522e+18
9.827139697e+18
9.82117181e+18
9.791026301e+18
9.784741601e+18
9.788824723e+18
9.789451904e+18
9.786283779e+18
9.750139238e+18
9.743854539e+18
9.745149711e+18
9.742779524e+18
9.740785217e+18
9.707324453e+18
9.704553686e+18
9.707523132e+18
9.701891388e+18
9.705611518e+18
9.662665712e+18
9.66316939e+18
9.658357062e+18
9.670801885e+18
9.665701741e+18
9.62551811e+18
9.622271588e+18
9.621171873e+18
9.626468547e+18
9.620717596e+18
9.589738709e+18
9.581597166e+18
9.58542469e+18
9.588554152e+18
9.587539279e+18
9.544591324e+18
9.549127649e+18
9.541884994e+18
9.549255448e+18
9.543765464e+18
9.504701953e+18
9.507600518e+18
9.509211429e+18
9.506465363e+18
9.509076112e+18
9.473337521e+18
9.469431599e+18
9.473133472e+18
9.469262991e+18
9.479584633e+18
9.431773876e+18
9.439059488e+18
9.426015407e+18
9.424182191e+18
9.436015941e+18
9.399443972e+18
9.396169527e+18
9.388708862e+18
9.393484676e+18
9.395049407e+18
9.362564855e+18
9.362954696e+18
9.361468362e+18
9.356331705e+18
9.35515037e+18
9.319599718e+18
9.3251681e+18
9.325901601e+18
9.321021615e+18
9.319311902e+18
9.287477084e+18
9.290447604e+18
9.292731875e+18
9.287084022e+18
9.288734668e+18
9.246801588e+18
9.250006227e+18
9.252652416e+18
9.253244157e+18
9.25265349e+18
9.210081415e+18
9.217544227e+18
9.214553303e+18
9.216759177e+18
9.208076368e+18
9.174530763e+18
9.174494249e+18
9.179114341e+18
9.182674454e+18
9.174524319e+18
9.143058937e+18
9.140287096e+18
9.147803606e+18
9.152209984e+18
9.152572976e+18
9.111100616e+18
9.114430905e+18
9.111659065e+18
9.111082359e+18
9.113782245e+18
9.07923358e+18
9.076482144e+18
9.077805239e+18
9.07524926e+18
9.07811346e+18
9.042777596e+18
9.046481617e+18
9.038381957e+18
9.045610651e+18
9.042314727e+18
9.017127601e+18
9.008802415e+18
9.016078361e+18
9.014813259e+18
9.013440763e+18
8.981753075e+18
8.975272919e+18
8.982092441e+18
8.976270609e+18
8.979168101e+18
8.94283025e+18
8.948203175e+18
8.945119891e+18
8.944219929e+18
8.948439441e+18
8.922059167e+18
8.913794121e+18
8.912131661e+18
8.910674324e+18
8.913689949e+18
8.880492301e+18
8.888111908e+18
8.882526344e+18
8.883213666e+18
8.887392368e+18
8.852822224e+18
8.855175228e+18
8.856506914e+18
8.853595461e+18
8.856920381e+18
8.82149001e+18
8.832799677e+18
8.829634775e+18
8.826340999e+18
8.829633701e+18
8.793614811e+18
8.791955573e+18
8.795717586e+18
8.803561648e+18
8.795270827e+18
8.768215044e+18
8.76789501e+18
8.765314331e+18
8.760546035e+18
8.768150608e+18
8.733160553e+18
8.733213176e+18
8.732846962e+18
8.726417281e+18
8.726791012e+18
8.704431571e+18
8.705578539e+18
8.698201642e+18
8.701745646e+18
8.695469537e+18
8.669426481e+18
8.669582202e+18
8.673674989e+18
8.674358015e+18
8.665141458e+18
8.642731542e+18
8.646170299e+18
8.644078263e+18
8.64925573e+18
8.648898108e+18
8.613346382e+18
8.614324742e+18
8.609057064e+18
8.613751258e+18
8.617488571e+18
8.587119682e+18
8.588327865e+18
8.5859609e+18
8.591126553e+18
8.589434023e+18
8.557834398e+18
8.559040434e+18
8.557593836e+18
8.561688771e+18
8.562408311e+18
8.532775071e+18
8.527645931e+18
8.523241701e+18
8.530458581e+18
8.531461642e+18
8.503138609e+18
8.501608244e+18
8.503949434e+18
8.501366607e+18
8.503303996e+18
8.476952718e+18
8.473455968e+18
8.476549991e+18
8.477217982e+18
8.469790609e+18
8.446076929e+18
8.444454205e+18
8.453290588e+18
8.453250852e+18
8.456528518e+18
8.415409485e+18
8.418553982e+18
8.417837664e+18
8.417525147e+18
8.417524073e+18
8.386302476e+18
8.391562636e+18
8.390490843e+18
8.392114641e+18
8.390658378e+18
8.37080981e+18
8.367324873e+18
8.365022345e+18
8.365520653e+18
8.369408318e+18
8.343616563e+18
8.334959529e+18
8.341818787e+18
8.342589876e+18
8.341530971e+18
8.310873191e+18
8.314092865e+18
8.310366291e+18
8.316103282e+18
8.313445279e+18
8.295597462e+18
8.285726875e+18
8.285182387e+18
8.288068065e+18
8.288690951e+18
8.266286404e+18
8.261629798e+18
8.264841954e+18
8.264139597e+18
8.266656914e+18
8.237587492e+18
8.238043917e+18
8.240246569e+18
8.241858554e+18
8.242048641e+18
8.210892554e+18
8.215897116e+18
8.209685445e+18
8.215527681e+18
8.212862161e+18
8.193442095e+18
8.19251958e+18
8.195507282e+18
8.188594327e+18
8.188128237e+18
8.16310972e+18
8.162324669e+18
8.167328158e+18
8.163755158e+18
8.166640836e+18
8.144110638e+18
8.138911692e+18
8.135862775e+18
8.145071815e+18
8.13878282e+18
8.113100607e+18
8.113647242e+18
8.119239251e+18
8.115297889e+18
8.116586618e+18
8.094792069e+18
8.088169078e+18
8.090776606e+18
8.090424353e+18
8.09007747e+18
8.068965948e+18
8.071023618e+18
8.074658907e+18
8.065389727e+18
8.064384518e+18
8.041005908e+18
8.044634753e+18
8.04402905e+18
8.043948505e+18
8.046782634e+18
8.017975254e+18
8.022028305e+18
8.02312802e+18
8.023952807e+18
8.023012035e+18
7.99591759e+18
7.997416811e+18
7.998955768e+18
7.994861907e+18
8.001993946e+18
7.975033743e+18
7.971578877e+18
7.973908254e+18
7.976612436e+18
7.972753768e+18
7.959256484e+18
7.948297995e+18
7.949682304e+18
7.946586134e+18
7.950878674e+18
7.927917826e+18
7.933055558e+18
7.925129877e+18
7.924701375e+18
7.924374897e+18
7.904595061e+18
7.902306494e+18
7.913610791e+18
7.90742919e+18
7.90193491e+18
7.88103388e+18
7.883826126e+18
7.881443052e+18
7.884905436e+18
7.880858828e+18
7.859994312e+18
7.8589934e+18
7.865584173e+18
7.85679397e+18
7.858684105e+18
7.843453481e+18
7.843661825e+18
7.837285841e+18
7.833856749e+18
7.840360532e+18
7.820736418e+18
7.822825232e+18
7.815412895e+18
7.813527055e+18
7.821577313e+18
7.797992506e+18
7.801115525e+18
7.79561158e+18
7.79594128e+18
7.796735996e+18
7.77627206e+18
7.769277485e+18
7.775193823e+18
7.770329947e+18
7.772366138e+18
7.755846785e+18
7.748943496e+18
7.754873795e+18
7.75143826e+18
7.752637851e+18
7.729138959e+18
7.730615628e+18
7.723452445e+18
7.729887496e+18
7.731620836e+18
7.703272029e+18
7.707740695e+18
7.704981742e+18
7.706136228e+18
7.707412069e+18
7.690450253e+18
7.688922036e+18
7.688866191e+18
7.685577785e+18
7.688743762e+18
7.667020094e+18
7.665749622e+18
7.662794138e+18
7.668260495e+18
7.662193805e+18
7.640356299e+18
7.642323758e+18
7.649049847e+18
7.64540382e+18
7.647471155e+18
7.620312274e+18
7.623490064e+18
7.623563092e+18
7.623403075e+18
7.628684714e+18
7.598273941e+18
7.603693045e+18
7.604867936e+18
7.607380957e+18
7.601479654e+18
7.586070755e+18
7.581668673e+18
7.589615833e+18
7.582819938e+18
7.585321145e+18
7.569005841e+18
7.564236471e+18
7.572790407e+18
7.570990483e+18
7.567274649e+18
7.545510171e+18
7.546877297e+18
7.543960475e+18
7.544651019e+18
7.539970786e+18
7.52467143e+18
7.532447833e+18
7.532698061e+18
7.525364121e+18
7.521743868e+18
7.506438068e+18
7.507407836e+18
7.504545785e+18
7.508912427e+18
7.502876881e+18
7.486064343e+18
7.48955465e+18
7.486026755e+18
7.479951474e+18
7.487113583e+18
7.462121914e+18
7.468883443e+18
7.463627578e+18
7.465188014e+18
7.463892842e+18
7.444122671e+18
7.444750926e+18
7.444026017e+18
7.445645519e+18
7.442018822e+18
7.423850971e+18
7.424126973e+18
7.419118115e+18
7.42421611e+18
7.424203223e+18
7.400331674e+18
7.399851622e+18
7.402508551e+18
7.398920516e+18
7.402032796e+18
7.377107711e+18
7.374921168e+18
7.372263165e+18
7.376849965e+18
7.375394776e+18
7.355342159e+18
7.351332065e+18
7.353062183e+18
7.349354941e+18
7.354637654e+18
7.322551534e+18
7.318986052e+18
7.321113528e+18
7.321273545e+18
7.322875864e+18
)
;

boundaryField
{
    upperWall
    {
        type            calculated;
        value           nonuniform List<scalar> 5(7.31098383e+18 7.300844095e+18 7.298760135e+18 7.304640632e+18 7.288217288e+18);
    }
    lowerWall
    {
        type            calculated;
        value           nonuniform List<scalar> 5(1.034247924e+19 1.031434606e+19 1.032177211e+19 1.031995697e+19 1.033476381e+19);
    }
    periodicX_half0
    {
        type            cyclic;
    }
    periodicX_half1
    {
        type            cyclic;
    }
    frontAndBack
    {
        type            empty;
    }
}


// ************************************************************************* //
