/*--------------------------------*- C++ -*----------------------------------*\
| =========                 |                                                 |
| \\      /  F ield         | OpenFOAM: The Open Source CFD Toolbox           |
|  \\    /   O peration     | Version:  v1706                                 |
|   \\  /    A nd           | Web:      www.OpenFOAM.com                      |
|    \\/     M anipulation  |                                                 |
\*---------------------------------------------------------------------------*/
FoamFile
{
    version     2.0;
    format      ascii;
    class       volScalarField;
    location    "5";
    object      rhoN_O2;
}
// * * * * * * * * * * * * * * * * * * * * * * * * * * * * * * * * * * * * * //

dimensions      [0 -3 0 0 0 0 0];


internalField   nonuniform List<scalar> 
500
(
1.034023302e+19
1.034258388e+19
1.033527894e+19
1.034411424e+19
1.034052191e+19
1.027460345e+19
1.02724996e+19
1.02736122e+19
1.027627557e+19
1.027323525e+19
1.021244162e+19
1.021972831e+19
1.021475811e+19
1.021563874e+19
1.021757613e+19
1.016889226e+19
1.015975625e+19
1.016176881e+19
1.01696902e+19
1.016107183e+19
1.011435971e+19
1.011499763e+19
1.011286264e+19
1.01178382e+19
1.011580631e+19
1.006503255e+19
1.006125228e+19
1.006800844e+19
1.007139243e+19
1.007603615e+19
1.00187876e+19
1.001514909e+19
1.002056927e+19
1.002056927e+19
1.002331211e+19
9.973879704e+18
9.970889854e+18
9.970333553e+18
9.972280607e+18
9.970701914e+18
9.93064286e+18
9.932313911e+18
9.925889599e+18
9.928736616e+18
9.93082006e+18
9.890498964e+18
9.885152889e+18
9.886021707e+18
9.884543964e+18
9.887711015e+18
9.840060275e+18
9.850160686e+18
9.847325483e+18
9.845999166e+18
9.844417252e+18
9.803146793e+18
9.804412969e+18
9.805995957e+18
9.806883032e+18
9.802138363e+18
9.768922457e+18
9.764839336e+18
9.76580266e+18
9.75995398e+18
9.765281799e+18
9.723351941e+18
9.726153851e+18
9.727438284e+18
9.721263126e+18
9.721602492e+18
9.677726653e+18
9.689144788e+18
9.685180874e+18
9.684289503e+18
9.691101508e+18
9.648750665e+18
9.638217456e+18
9.644737349e+18
9.652076658e+18
9.651285164e+18
9.602901997e+18
9.600175262e+18
9.614429674e+18
9.606833693e+18
9.607565047e+18
9.567305166e+18
9.569519631e+18
9.572809111e+18
9.562929932e+18
9.562747362e+18
9.533666128e+18
9.528670157e+18
9.532410691e+18
9.531902718e+18
9.530006139e+18
9.500019572e+18
9.491598805e+18
9.496588332e+18
9.493792865e+18
9.5026271e+18
9.465156242e+18
9.459092774e+18
9.450747183e+18
9.455785038e+18
9.461015128e+18
9.421032323e+18
9.417089888e+18
9.420959295e+18
9.417423883e+18
9.42235864e+18
9.382113794e+18
9.376668916e+18
9.379772604e+18
9.385379647e+18
9.393180751e+18
9.349256585e+18
9.346550255e+18
9.345637405e+18
9.348189088e+18
9.353531942e+18
9.320412691e+18
9.315579959e+18
9.316456294e+18
9.318832925e+18
9.315302882e+18
9.276433754e+18
9.272541794e+18
9.282836587e+18
9.273959395e+18
9.278288449e+18
9.244769693e+18
9.243030983e+18
9.243179187e+18
9.241833539e+18
9.250112547e+18
9.208451173e+18
9.20804415e+18
9.210759071e+18
9.211543048e+18
9.206377394e+18
9.168828139e+18
9.169500426e+18
9.172550417e+18
9.171611793e+18
9.171836246e+18
9.136474608e+18
9.137491629e+18
9.140624314e+18
9.140467518e+18
9.140536251e+18
9.106226e+18
9.107934639e+18
9.108468388e+18
9.101194589e+18
9.106348429e+18
9.069819417e+18
9.075242817e+18
9.075809857e+18
9.073736078e+18
9.071713848e+18
9.037784846e+18
9.037632347e+18
9.044325144e+18
9.055208457e+18
9.041614518e+18
9.00718506e+18
9.00743851e+18
9.007870234e+18
9.012658935e+18
9.016228713e+18
8.977819231e+18
8.975775523e+18
8.980507304e+18
8.983677577e+18
8.978462522e+18
8.944624805e+18
8.950462745e+18
8.943910634e+18
8.946677105e+18
8.956269542e+18
8.918850233e+18
8.917049235e+18
8.920469735e+18
8.924336995e+18
8.921928147e+18
8.884025565e+18
8.880179784e+18
8.882969881e+18
8.890784946e+18
8.892140259e+18
8.849610068e+18
8.852103758e+18
8.854793979e+18
8.858576397e+18
8.853949861e+18
8.820820945e+18
8.824143717e+18
8.828593053e+18
8.827359095e+18
8.822100008e+18
8.792584902e+18
8.793142277e+18
8.789017272e+18
8.790978287e+18
8.793940215e+18
8.757114795e+18
8.761931419e+18
8.762479128e+18
8.757768825e+18
8.760798411e+18
8.735863661e+18
8.727361274e+18
8.729310476e+18
8.732938247e+18
8.735487782e+18
8.711895457e+18
8.704171677e+18
8.708442739e+18
8.706486019e+18
8.707232408e+18
8.676794786e+18
8.680364564e+18
8.672583866e+18
8.671431528e+18
8.676560667e+18
8.643753933e+18
8.644372523e+18
8.648060435e+18
8.653084328e+18
8.647772619e+18
8.623157903e+18
8.617164241e+18
8.614750022e+18
8.617763499e+18
8.620668508e+18
8.59288889e+18
8.589115063e+18
8.590588509e+18
8.581798306e+18
8.589919444e+18
8.565226331e+18
8.56241905e+18
8.557250175e+18
8.560365676e+18
8.550177203e+18
8.531634546e+18
8.535382598e+18
8.534800523e+18
8.525125393e+18
8.529428672e+18
8.509284771e+18
8.50731409e+18
8.502561903e+18
8.501710268e+18
8.496074229e+18
8.479770738e+18
8.478950248e+18
8.471866536e+18
8.476496294e+18
8.47703756e+18
8.446935008e+18
8.450273889e+18
8.443139702e+18
8.447898332e+18
8.453126275e+18
8.423345905e+18
8.424736658e+18
8.420588026e+18
8.420334576e+18
8.423514514e+18
8.398122265e+18
8.39751334e+18
8.394726465e+18
8.396686406e+18
8.40134516e+18
8.370688455e+18
8.369494233e+18
8.372552815e+18
8.373899537e+18
8.373705154e+18
8.342710157e+18
8.344187899e+18
8.347757677e+18
8.346880268e+18
8.342567323e+18
8.315583494e+18
8.323452256e+18
8.320264801e+18
8.322661836e+18
8.315346154e+18
8.291259816e+18
8.289103344e+18
8.289974309e+18
8.292196292e+18
8.296020594e+18
8.268876749e+18
8.272624801e+18
8.268252789e+18
8.270450071e+18
8.270631567e+18
8.252225301e+18
8.244312508e+18
8.243554306e+18
8.243801312e+18
8.245889052e+18
8.221536378e+18
8.218937442e+18
8.217869945e+18
8.216716533e+18
8.214238952e+18
8.199903995e+18
8.193018962e+18
8.18951899e+18
8.195813355e+18
8.19402954e+18
8.172650607e+18
8.177201967e+18
8.169699418e+18
8.169073311e+18
8.170195579e+18
8.146343361e+18
8.146232745e+18
8.145114773e+18
8.142758547e+18
8.148738248e+18
8.121401093e+18
8.119665605e+18
8.120811499e+18
8.126842749e+18
8.126559229e+18
8.094693267e+18
8.099595805e+18
8.095447173e+18
8.100783583e+18
8.099879325e+18
8.073489386e+18
8.075483693e+18
8.074198186e+18
8.066721413e+18
8.077065608e+18
8.049820811e+18
8.049914244e+18
8.04391736e+18
8.047914567e+18
8.046108199e+18
8.022448216e+18
8.024091345e+18
8.020975844e+18
8.023927032e+18
8.030969934e+18
8.003768095e+18
7.99645456e+18
7.998326439e+18
8.004475822e+18
8.003745542e+18
7.983666077e+18
7.983020639e+18
7.983389e+18
7.983362152e+18
7.981441946e+18
7.960844842e+18
7.95521095e+18
7.958983703e+18
7.957497369e+18
7.958628229e+18
7.936369738e+18
7.932566915e+18
7.940551662e+18
7.929998049e+18
7.941414036e+18
7.913335862e+18
7.911929e+18
7.913473327e+18
7.914469944e+18
7.912896621e+18
7.894462432e+18
7.890479187e+18
7.897814201e+18
7.895060617e+18
7.89410481e+18
7.869739248e+18
7.869628632e+18
7.867459273e+18
7.866219945e+18
7.870504968e+18
7.845551961e+18
7.847631109e+18
7.84830447e+18
7.841618117e+18
7.84869968e+18
7.820789041e+18
7.821399039e+18
7.822608296e+18
7.827310007e+18
7.827274567e+18
7.802623337e+18
7.804868947e+18
7.804248209e+18
7.804595092e+18
7.804839951e+18
7.783712319e+18
7.779361786e+18
7.778742123e+18
7.775460161e+18
7.781534368e+18
7.761142386e+18
7.764454418e+18
7.761728758e+18
7.759697936e+18
7.76127985e+18
7.735998217e+18
7.730451315e+18
7.737879761e+18
7.734279913e+18
7.737051753e+18
7.707144658e+18
7.711188044e+18
7.713565748e+18
7.714576326e+18
7.707544164e+18
7.694912476e+18
7.700014767e+18
7.692528328e+18
7.690978632e+18
7.692611022e+18
7.67043952e+18
7.676345119e+18
7.675535368e+18
7.671225645e+18
7.67411884e+18
7.651262165e+18
7.650459931e+18
7.649477276e+18
7.650928169e+18
7.653154448e+18
7.630243002e+18
7.63398461e+18
7.635867228e+18
7.633500263e+18
7.635433356e+18
7.614606428e+18
7.610285966e+18
7.611436156e+18
7.614377679e+18
7.615642781e+18
7.593809571e+18
7.590845495e+18
7.594678388e+18
7.594673019e+18
7.593451948e+18
7.57194629e+18
7.569666314e+18
7.572148191e+18
7.571770164e+18
7.576453618e+18
7.553156627e+18
7.551337372e+18
7.551677811e+18
7.555606286e+18
7.558138637e+18
7.532584223e+18
7.531156956e+18
7.533813885e+18
7.528535468e+18
7.532968694e+18
7.508719118e+18
7.512558455e+18
7.511639162e+18
7.50990797e+18
7.510604957e+18
7.496635139e+18
7.494721377e+18
7.49556979e+18
7.493956732e+18
7.499096611e+18
7.474726753e+18
7.477920652e+18
7.478042008e+18
7.471739051e+18
7.476957328e+18
7.459040779e+18
7.450153921e+18
7.452371608e+18
7.453917009e+18
7.456605082e+18
7.426881631e+18
7.434025483e+18
7.433175996e+18
7.427064201e+18
7.431983922e+18
7.404949618e+18
7.407821335e+18
7.409526752e+18
7.405420004e+18
7.409282968e+18
7.37939413e+18
7.378124732e+18
7.377667234e+18
7.374110343e+18
7.373808566e+18
)
;

boundaryField
{
    upperWall
    {
        type            calculated;
        value           nonuniform List<scalar> 5(7.359208247e+18 7.361836371e+18 7.371253229e+18 7.351879584e+18 7.344618642e+18);
    }
    lowerWall
    {
        type            calculated;
        value           nonuniform List<scalar> 5(1.039053912e+19 1.037455638e+19 1.040355477e+19 1.036127026e+19 1.037757328e+19);
    }
    periodicX_half0
    {
        type            cyclic;
    }
    periodicX_half1
    {
        type            cyclic;
    }
    frontAndBack
    {
        type            empty;
    }
}


// ************************************************************************* //
