/*--------------------------------*- C++ -*----------------------------------*\
| =========                 |                                                 |
| \\      /  F ield         | OpenFOAM: The Open Source CFD Toolbox           |
|  \\    /   O peration     | Version:  v1706                                 |
|   \\  /    A nd           | Web:      www.OpenFOAM.com                      |
|    \\/     M anipulation  |                                                 |
\*---------------------------------------------------------------------------*/
FoamFile
{
    version     2.0;
    format      ascii;
    class       volScalarField;
    location    "5";
    object      rhoN_N2;
}
// * * * * * * * * * * * * * * * * * * * * * * * * * * * * * * * * * * * * * //

dimensions      [0 -3 0 0 0 0 0];


internalField   nonuniform List<scalar> 
500
(
3.85349318e+19
3.853144257e+19
3.854596976e+19
3.855278177e+19
3.852878242e+19
3.829706365e+19
3.828553597e+19
3.827951009e+19
3.829526695e+19
3.829371618e+19
3.80883315e+19
3.807792394e+19
3.808258914e+19
3.808403789e+19
3.809193779e+19
3.789383873e+19
3.79019255e+19
3.789582874e+19
3.789479776e+19
3.788965144e+19
3.77161338e+19
3.771618427e+19
3.77088106e+19
3.770922943e+19
3.771303441e+19
3.753144288e+19
3.753312253e+19
3.75356087e+19
3.753057729e+19
3.753173607e+19
3.736290511e+19
3.734712677e+19
3.735410202e+19
3.735999365e+19
3.736331213e+19
3.72048404e+19
3.71953822e+19
3.718716871e+19
3.719142258e+19
3.718875492e+19
3.703767297e+19
3.703263619e+19
3.703610179e+19
3.702829425e+19
3.7037107e+19
3.687134966e+19
3.688348733e+19
3.686778417e+19
3.687278981e+19
3.688771114e+19
3.673202306e+19
3.671879534e+19
3.672049753e+19
3.672752969e+19
3.67261776e+19
3.655925181e+19
3.657836258e+19
3.656933074e+19
3.655935491e+19
3.657257297e+19
3.641206504e+19
3.641941939e+19
3.642145128e+19
3.641621045e+19
3.641543614e+19
3.62767378e+19
3.627134555e+19
3.62692127e+19
3.627626849e+19
3.626916974e+19
3.612556779e+19
3.613389298e+19
3.61324045e+19
3.613065075e+19
3.612825909e+19
3.597167212e+19
3.598809589e+19
3.599155076e+19
3.598207001e+19
3.597528271e+19
3.583608498e+19
3.584346618e+19
3.583265267e+19
3.583802237e+19
3.584209798e+19
3.570326754e+19
3.568992168e+19
3.56997418e+19
3.569772923e+19
3.570025407e+19
3.55590717e+19
3.555250885e+19
3.55520739e+19
3.554884993e+19
3.554116267e+19
3.542086737e+19
3.541558036e+19
3.542226135e+19
3.542117774e+19
3.541037068e+19
3.527287945e+19
3.526347925e+19
3.527539999e+19
3.527246598e+19
3.528422563e+19
3.514329779e+19
3.514488185e+19
3.514999058e+19
3.513827282e+19
3.514411291e+19
3.500258473e+19
3.501444104e+19
3.50133177e+19
3.50113395e+19
3.498640045e+19
3.486945585e+19
3.487633873e+19
3.486864073e+19
3.488120691e+19
3.488623402e+19
3.47592223e+19
3.47388765e+19
3.474880186e+19
3.473768872e+19
3.475898067e+19
3.461485463e+19
3.462523641e+19
3.462515479e+19
3.46303677e+19
3.461938881e+19
3.447813127e+19
3.44868667e+19
3.449396652e+19
3.449222566e+19
3.44855479e+19
3.43571218e+19
3.43736637e+19
3.438049289e+19
3.438285234e+19
3.435919236e+19
3.424437631e+19
3.423935349e+19
3.424190195e+19
3.425534016e+19
3.423943833e+19
3.412409927e+19
3.411875319e+19
3.41123278e+19
3.411206684e+19
3.411494607e+19
3.39935618e+19
3.398903729e+19
3.398942391e+19
3.39819321e+19
3.397836662e+19
3.386349042e+19
3.385589015e+19
3.386423144e+19
3.386498642e+19
3.386439039e+19
3.375383466e+19
3.373733893e+19
3.375809068e+19
3.374518084e+19
3.375102201e+19
3.363520934e+19
3.362147149e+19
3.362159929e+19
3.36368224e+19
3.362602178e+19
3.351724986e+19
3.350869163e+19
3.351662268e+19
3.351763541e+19
3.352295034e+19
3.340859501e+19
3.340495327e+19
3.340362266e+19
3.339922273e+19
3.340384175e+19
3.329458763e+19
3.328305566e+19
3.328891293e+19
3.328661899e+19
3.327775469e+19
3.316797112e+19
3.317907137e+19
3.317041756e+19
3.316929529e+19
3.316124074e+19
3.306055237e+19
3.306195064e+19
3.306979148e+19
3.30590843e+19
3.304697454e+19
3.295295535e+19
3.29499655e+19
3.295381235e+19
3.295202317e+19
3.293723393e+19
3.283417216e+19
3.284004017e+19
3.28554641e+19
3.284712925e+19
3.28344879e+19
3.273921434e+19
3.274614878e+19
3.274414588e+19
3.273683879e+19
3.273532131e+19
3.262175103e+19
3.263391985e+19
3.262795625e+19
3.261429251e+19
3.261033074e+19
3.251965795e+19
3.252447135e+19
3.252614133e+19
3.252082103e+19
3.252163507e+19
3.240450575e+19
3.241070991e+19
3.240760192e+19
3.240552063e+19
3.240308815e+19
3.230870597e+19
3.232024546e+19
3.231704619e+19
3.23066483e+19
3.231082163e+19
3.219826944e+19
3.221285141e+19
3.221247231e+19
3.221736088e+19
3.221056928e+19
3.210608991e+19
3.211094305e+19
3.211772498e+19
3.21152227e+19
3.21008566e+19
3.200685029e+19
3.200931498e+19
3.202010379e+19
3.202157509e+19
3.201214267e+19
3.190181032e+19
3.190270169e+19
3.190532855e+19
3.191215451e+19
3.190427179e+19
3.180273609e+19
3.179468583e+19
3.179847576e+19
3.180047115e+19
3.179189681e+19
3.170411935e+19
3.169987944e+19
3.169666835e+19
3.170369085e+19
3.169997716e+19
3.161095931e+19
3.159661254e+19
3.160170409e+19
3.160877169e+19
3.159927913e+19
3.1502385e+19
3.149832551e+19
3.149557837e+19
3.150319475e+19
3.150649605e+19
3.140744651e+19
3.139900212e+19
3.140600743e+19
3.141569545e+19
3.141137391e+19
3.131794861e+19
3.131704328e+19
3.131449589e+19
3.131272711e+19
3.131625715e+19
3.121827941e+19
3.12119045e+19
3.121070599e+19
3.121784554e+19
3.120740362e+19
3.113781872e+19
3.113244365e+19
3.113517038e+19
3.112677861e+19
3.113292477e+19
3.104095358e+19
3.104514302e+19
3.10410889e+19
3.103891524e+19
3.103479883e+19
3.094581856e+19
3.094239914e+19
3.093358209e+19
3.093972288e+19
3.094585186e+19
3.085462706e+19
3.086619125e+19
3.084141866e+19
3.085425655e+19
3.085166513e+19
3.07730602e+19
3.076649628e+19
3.077024003e+19
3.076414972e+19
3.07685271e+19
3.068605062e+19
3.067364231e+19
3.067725075e+19
3.067218927e+19
3.067496648e+19
3.058612905e+19
3.058398868e+19
3.057853843e+19
3.059881765e+19
3.057260277e+19
3.049922256e+19
3.049786939e+19
3.048979551e+19
3.049935788e+19
3.048572313e+19
3.041033573e+19
3.040674554e+19
3.040947443e+19
3.039839673e+19
3.040200839e+19
3.032680464e+19
3.030863893e+19
3.0318197e+19
3.032499827e+19
3.031481409e+19
3.022473948e+19
3.02159235e+19
3.024556319e+19
3.023093504e+19
3.023920546e+19
3.015017257e+19
3.014654372e+19
3.014328861e+19
3.01454773e+19
3.015808966e+19
3.006090664e+19
3.005377567e+19
3.004705495e+19
3.006098396e+19
3.006939506e+19
2.999408284e+19
2.997570235e+19
2.997702866e+19
2.998138564e+19
2.998059414e+19
2.990921899e+19
2.99091481e+19
2.990576627e+19
2.989086212e+19
2.989797483e+19
2.982013455e+19
2.981538773e+19
2.982052976e+19
2.9824208e+19
2.981293807e+19
2.974178951e+19
2.973822725e+19
2.973984461e+19
2.972387404e+19
2.972183033e+19
2.96495101e+19
2.964798511e+19
2.964869176e+19
2.965909932e+19
2.964315882e+19
2.957213699e+19
2.95662228e+19
2.956075214e+19
2.956552151e+19
2.956234695e+19
2.948831164e+19
2.948904084e+19
2.947892754e+19
2.948038596e+19
2.950226642e+19
2.9404671e+19
2.939911658e+19
2.940395039e+19
2.941040692e+19
2.940642475e+19
2.931214888e+19
2.931988448e+19
2.93168216e+19
2.932397082e+19
2.932225896e+19
2.924694566e+19
2.924912254e+19
2.924169946e+19
2.924515325e+19
2.924921812e+19
2.917177734e+19
2.917244856e+19
2.917087416e+19
2.918391287e+19
2.916428553e+19
2.908684905e+19
2.909610857e+19
2.909106427e+19
2.908965741e+19
2.908455512e+19
2.900783174e+19
2.90057934e+19
2.901201903e+19
2.900920745e+19
2.900166624e+19
2.893215544e+19
2.89333894e+19
2.892515657e+19
2.89258439e+19
2.894176829e+19
2.885514317e+19
2.886039474e+19
2.885427758e+19
2.886175435e+19
2.885629981e+19
2.877250775e+19
2.878510185e+19
2.878415248e+19
2.878695762e+19
2.877028469e+19
2.871026323e+19
2.869010215e+19
2.869918124e+19
2.869147142e+19
2.869883973e+19
2.862719179e+19
2.862797039e+19
2.861422503e+19
2.862646258e+19
2.862541227e+19
2.854410531e+19
2.853665323e+19
2.85604539e+19
2.855205247e+19
2.853585637e+19
2.847672843e+19
2.848019403e+19
2.846238488e+19
2.846980688e+19
2.847000556e+19
2.83958199e+19
2.839536025e+19
2.839546335e+19
2.839190753e+19
2.839899447e+19
2.83231442e+19
2.83276569e+19
2.832689977e+19
2.832452958e+19
2.832008239e+19
2.824582156e+19
2.824808864e+19
2.823890968e+19
2.824628657e+19
2.825100117e+19
2.816616846e+19
2.815443674e+19
2.817161012e+19
2.815762742e+19
2.816167939e+19
2.80845404e+19
2.809321676e+19
2.809434547e+19
2.809777456e+19
2.808150329e+19
2.801182174e+19
2.801502638e+19
2.801123429e+19
2.800682254e+19
2.800997456e+19
2.792323239e+19
2.792915732e+19
2.792466932e+19
2.792559183e+19
2.793508976e+19
2.783203336e+19
2.783656754e+19
2.784285009e+19
2.783974425e+19
2.783783371e+19
2.774643815e+19
2.774419577e+19
2.774965461e+19
2.775064585e+19
2.775158126e+19
2.764204792e+19
2.764092672e+19
2.764557796e+19
2.764377696e+19
2.764374796e+19
)
;

boundaryField
{
    upperWall
    {
        type            calculated;
        value           nonuniform List<scalar> 5(2.75400234e+19 2.758825861e+19 2.75578451e+19 2.756114429e+19 2.75616879e+19);
    }
    lowerWall
    {
        type            calculated;
        value           nonuniform List<scalar> 5(3.871452745e+19 3.870175819e+19 3.873985501e+19 3.868487086e+19 3.874256103e+19);
    }
    periodicX_half0
    {
        type            cyclic;
    }
    periodicX_half1
    {
        type            cyclic;
    }
    frontAndBack
    {
        type            empty;
    }
}


// ************************************************************************* //
