/*--------------------------------*- C++ -*----------------------------------*\
| =========                 |                                                 |
| \\      /  F ield         | OpenFOAM: The Open Source CFD Toolbox           |
|  \\    /   O peration     | Version:  v1706                                 |
|   \\  /    A nd           | Web:      www.OpenFOAM.com                      |
|    \\/     M anipulation  |                                                 |
\*---------------------------------------------------------------------------*/
FoamFile
{
    version     2.0;
    format      ascii;
    class       volScalarField;
    location    "5";
    object      rhoN_mixture;
}
// * * * * * * * * * * * * * * * * * * * * * * * * * * * * * * * * * * * * * //

dimensions      [0 -3 0 0 0 0 0];


internalField   nonuniform List<scalar> 
500
(
4.887516484e+19
4.887402646e+19
4.888124871e+19
4.889689602e+19
4.886930434e+19
4.857166711e+19
4.855803558e+19
4.85531223e+19
4.857154253e+19
4.856695143e+19
4.830077314e+19
4.829765227e+19
4.829734727e+19
4.829967664e+19
4.830951394e+19
4.806273101e+19
4.806168177e+19
4.805759757e+19
4.806448797e+19
4.805072328e+19
4.783049352e+19
4.783118192e+19
4.782167325e+19
4.782706765e+19
4.782884073e+19
4.759647545e+19
4.759437482e+19
4.760361715e+19
4.760196972e+19
4.760777223e+19
4.738169272e+19
4.736227587e+19
4.737467129e+19
4.738056293e+19
4.738662425e+19
4.717872011e+19
4.716627207e+19
4.715750227e+19
4.71637032e+19
4.715945684e+19
4.696831584e+19
4.696495011e+19
4.69619914e+19
4.695703087e+19
4.696792707e+19
4.676184863e+19
4.676864023e+19
4.675380589e+19
4.675733379e+19
4.677542217e+19
4.657208335e+19
4.656895603e+19
4.656782303e+19
4.657352887e+19
4.657059487e+19
4.636239861e+19
4.638277556e+19
4.637532671e+19
4.636623795e+19
4.637471134e+19
4.618098751e+19
4.618425874e+19
4.618725396e+19
4.617616445e+19
4.618071795e+19
4.600008976e+19
4.599749941e+19
4.5996651e+19
4.599753163e+19
4.599077225e+19
4.580329446e+19
4.582303778e+19
4.581758538e+19
4.581494027e+19
4.581936061e+19
4.56204228e+19
4.562631336e+19
4.563628812e+19
4.563414668e+19
4.562656788e+19
4.543898699e+19
4.544364145e+19
4.544708236e+19
4.544485608e+19
4.544966304e+19
4.527057272e+19
4.525944133e+19
4.527255092e+19
4.526065917e+19
4.526300144e+19
4.509273784e+19
4.508117902e+19
4.508448461e+19
4.508075266e+19
4.507116882e+19
4.492088696e+19
4.490717918e+19
4.491884969e+19
4.491497062e+19
4.491299779e+19
4.47380357e+19
4.472257203e+19
4.472614718e+19
4.472825103e+19
4.474524077e+19
4.456433012e+19
4.456197175e+19
4.457094989e+19
4.455569671e+19
4.456647156e+19
4.438469854e+19
4.439110996e+19
4.439309031e+19
4.439671916e+19
4.437958121e+19
4.421871245e+19
4.4222889e+19
4.421427815e+19
4.422939601e+19
4.423976598e+19
4.4079635e+19
4.405445647e+19
4.406525816e+19
4.405652166e+19
4.407428356e+19
4.38912884e+19
4.389777822e+19
4.390799139e+19
4.390432711e+19
4.389767727e+19
4.372290097e+19
4.372989769e+19
4.373714572e+19
4.373405921e+19
4.373566046e+19
4.356557298e+19
4.358170787e+19
4.359125197e+19
4.35943954e+19
4.356556976e+19
4.341320446e+19
4.340885392e+19
4.341445237e+19
4.342695197e+19
4.341127458e+19
4.326057388e+19
4.325624483e+19
4.325295213e+19
4.325253437e+19
4.325548233e+19
4.309978781e+19
4.309697194e+19
4.309789231e+19
4.30831267e+19
4.308471506e+19
4.293330985e+19
4.293113297e+19
4.294004131e+19
4.293872251e+19
4.293610424e+19
4.279161951e+19
4.277497129e+19
4.280241584e+19
4.280038931e+19
4.279263653e+19
4.264239441e+19
4.262891001e+19
4.262946953e+19
4.264948134e+19
4.26422505e+19
4.24950691e+19
4.248446716e+19
4.249713e+19
4.250131299e+19
4.250141287e+19
4.235321982e+19
4.235541603e+19
4.234753331e+19
4.234589984e+19
4.23601113e+19
4.221343788e+19
4.22001049e+19
4.220938268e+19
4.2210956e+19
4.219968285e+19
4.20519967e+19
4.205925117e+19
4.205338745e+19
4.206008025e+19
4.205338101e+19
4.191016245e+19
4.191405441e+19
4.192458547e+19
4.19176607e+19
4.190092441e+19
4.17737763e+19
4.177410923e+19
4.178240542e+19
4.177938227e+19
4.175933395e+19
4.162675707e+19
4.163318246e+19
4.164448139e+19
4.163810755e+19
4.162842812e+19
4.149632915e+19
4.15080802e+19
4.150662502e+19
4.149460762e+19
4.149611973e+19
4.13576147e+19
4.136128113e+19
4.135726674e+19
4.134723077e+19
4.134581854e+19
4.123155342e+19
4.122864304e+19
4.123458408e+19
4.122730706e+19
4.122886749e+19
4.108130055e+19
4.109107448e+19
4.10801858e+19
4.107695216e+19
4.107964883e+19
4.095245991e+19
4.096461799e+19
4.096510663e+19
4.095973263e+19
4.095859426e+19
4.082142736e+19
4.083001566e+19
4.082722234e+19
4.083512439e+19
4.08312378e+19
4.069897881e+19
4.070005812e+19
4.07083135e+19
4.069702102e+19
4.069077605e+19
4.057207663e+19
4.057173404e+19
4.057735397e+19
4.058194077e+19
4.056231988e+19
4.043344488e+19
4.04380843e+19
4.044012908e+19
4.043727992e+19
4.043370047e+19
4.031202087e+19
4.030199993e+19
4.030103768e+19
4.030218142e+19
4.028797104e+19
4.01838901e+19
4.017882969e+19
4.01685349e+19
4.018018715e+19
4.017701473e+19
4.005789433e+19
4.004688644e+19
4.00448438e+19
4.005667004e+19
4.005240542e+19
3.992573092e+19
3.992306217e+19
3.99161664e+19
3.992352934e+19
3.993001057e+19
3.980556879e+19
3.979651547e+19
3.980073391e+19
3.981238187e+19
3.981271909e+19
3.968863707e+19
3.968653752e+19
3.968704872e+19
3.968662666e+19
3.968996232e+19
3.956098958e+19
3.955609241e+19
3.955846367e+19
3.956472582e+19
3.954997095e+19
3.945340222e+19
3.945589591e+19
3.945543519e+19
3.944944046e+19
3.944827094e+19
3.933221341e+19
3.933424638e+19
3.933106322e+19
3.933111155e+19
3.933081943e+19
3.921469532e+19
3.921502395e+19
3.920183489e+19
3.921017296e+19
3.921648343e+19
3.910685237e+19
3.911050376e+19
3.908497298e+19
3.909805787e+19
3.909755419e+19
3.899459659e+19
3.898543373e+19
3.898810999e+19
3.898086626e+19
3.898276606e+19
3.888595462e+19
3.886666128e+19
3.886676975e+19
3.886800263e+19
3.886899603e+19
3.875877966e+19
3.876119066e+19
3.874823786e+19
3.876789097e+19
3.874279835e+19
3.864556593e+19
3.864410215e+19
3.863491029e+19
3.864211643e+19
3.863446139e+19
3.853173683e+19
3.852641116e+19
3.853028594e+19
3.852523949e+19
3.852856763e+19
3.842149791e+19
3.840823475e+19
3.841364419e+19
3.842578186e+19
3.841469343e+19
3.829822887e+19
3.82914072e+19
3.831976138e+19
3.829765646e+19
3.831627108e+19
3.819999339e+19
3.819645798e+19
3.818720598e+19
3.819339188e+19
3.820419787e+19
3.808335486e+19
3.807786703e+19
3.80680308e+19
3.8084911e+19
3.8100365e+19
3.799785094e+19
3.797215692e+19
3.797535511e+19
3.798586147e+19
3.79843397e+19
3.789288507e+19
3.789216875e+19
3.788915528e+19
3.787422428e+19
3.787941678e+19
3.77809794e+19
3.777059869e+19
3.777951347e+19
3.778170538e+19
3.777156631e+19
3.767815926e+19
3.767079418e+19
3.768039628e+19
3.76538721e+19
3.766324438e+19
3.756284598e+19
3.755991412e+19
3.75621651e+19
3.757356927e+19
3.755605545e+19
3.746659943e+19
3.745670199e+19
3.745856635e+19
3.746058214e+19
3.745645177e+19
3.735805089e+19
3.735866948e+19
3.734638683e+19
3.734660591e+19
3.73727714e+19
3.725022297e+19
3.72467477e+19
3.725225487e+19
3.725202505e+19
3.725512444e+19
3.713293793e+19
3.714128352e+19
3.71394299e+19
3.715128084e+19
3.714953353e+19
3.704956901e+19
3.705399149e+19
3.704594768e+19
3.704974835e+19
3.705405808e+19
3.695548967e+19
3.695181035e+19
3.694961629e+19
3.695937304e+19
3.694581991e+19
3.684799145e+19
3.6860563e+19
3.685279304e+19
3.684935535e+19
3.684583498e+19
3.674382996e+19
3.673624472e+19
3.67498988e+19
3.674348737e+19
3.673871801e+19
3.663930011e+19
3.664457746e+19
3.663872233e+19
3.664042023e+19
3.664931246e+19
3.655005566e+19
3.656040952e+19
3.654680591e+19
3.655273299e+19
3.654891084e+19
3.644294728e+19
3.646144698e+19
3.645968786e+19
3.645818327e+19
3.644440354e+19
3.63615254e+19
3.634056209e+19
3.634865852e+19
3.63423996e+19
3.635199418e+19
3.62574348e+19
3.626195501e+19
3.625009227e+19
3.625996285e+19
3.626084563e+19
3.615871174e+19
3.614693921e+19
3.617189007e+19
3.616643015e+19
3.615149916e+19
3.607053801e+19
3.607103954e+19
3.605706328e+19
3.606447991e+19
3.606345752e+19
3.59677662e+19
3.596502658e+19
3.596761155e+19
3.596367771e+19
3.597544809e+19
3.587630083e+19
3.587899428e+19
3.587857759e+19
3.588013588e+19
3.587822104e+19
3.577840579e+19
3.577924561e+19
3.577272357e+19
3.577482205e+19
3.578396987e+19
3.567488759e+19
3.56669952e+19
3.568324929e+19
3.566753539e+19
3.567228436e+19
3.558117554e+19
3.558793815e+19
3.558991527e+19
3.55917313e+19
3.558059991e+19
3.54865485e+19
3.549294704e+19
3.548927631e+19
3.54785616e+19
3.54869319e+19
3.538227317e+19
3.537931125e+19
3.537704094e+19
3.537950885e+19
3.539169485e+19
3.5258915e+19
3.527059303e+19
3.527602609e+19
3.526680846e+19
3.526981764e+19
3.515138778e+19
3.515201711e+19
3.515918137e+19
3.515606587e+19
3.516086423e+19
3.502144206e+19
3.501905146e+19
3.50232452e+19
3.501788731e+19
3.501755654e+19
)
;

boundaryField
{
    upperWall
    {
        type            calculated;
        value           nonuniform List<scalar> 5(3.489923164e+19 3.495009498e+19 3.492909833e+19 3.491302388e+19 3.490630654e+19);
    }
    lowerWall
    {
        type            calculated;
        value           nonuniform List<scalar> 5(4.910506656e+19 4.907631457e+19 4.914340979e+19 4.904614112e+19 4.912013431e+19);
    }
    periodicX_half0
    {
        type            cyclic;
    }
    periodicX_half1
    {
        type            cyclic;
    }
    frontAndBack
    {
        type            empty;
    }
}


// ************************************************************************* //
