/*--------------------------------*- C++ -*----------------------------------*\
| =========                 |                                                 |
| \\      /  F ield         | OpenFOAM: The Open Source CFD Toolbox           |
|  \\    /   O peration     | Version:  v1706                                 |
|   \\  /    A nd           | Web:      www.OpenFOAM.com                      |
|    \\/     M anipulation  |                                                 |
\*---------------------------------------------------------------------------*/
FoamFile
{
    version     2.0;
    format      ascii;
    class       volScalarField;
    location    "5";
    object      rhoN_mixture;
}
// * * * * * * * * * * * * * * * * * * * * * * * * * * * * * * * * * * * * * //

dimensions      [0 -3 0 0 0 0 0];


internalField   nonuniform List<scalar> 
500
(
4.886919051e+19
4.889197093e+19
4.889413063e+19
4.887381167e+19
4.887143504e+19
4.854741001e+19
4.856867189e+19
4.85647026e+19
4.856376828e+19
4.857861658e+19
4.830397133e+19
4.82975685e+19
4.830212845e+19
4.830774945e+19
4.828617506e+19
4.807076515e+19
4.805918271e+19
4.805658699e+19
4.807648711e+19
4.804206946e+19
4.782834994e+19
4.782884717e+19
4.78356828e+19
4.783093706e+19
4.782116527e+19
4.761238265e+19
4.7616411e+19
4.761323643e+19
4.761065576e+19
4.761312904e+19
4.73922227e+19
4.738706779e+19
4.738322738e+19
4.737779324e+19
4.739665163e+19
4.717256643e+19
4.718417251e+19
4.716007543e+19
4.71769073e+19
4.71754854e+19
4.695829705e+19
4.69688163e+19
4.697051527e+19
4.69576398e+19
4.696651484e+19
4.676800231e+19
4.675787935e+19
4.675906498e+19
4.676971202e+19
4.676384401e+19
4.657276208e+19
4.655995426e+19
4.656277443e+19
4.657780101e+19
4.657052184e+19
4.637930996e+19
4.637966221e+19
4.637876547e+19
4.637967295e+19
4.637022227e+19
4.6184553e+19
4.618299041e+19
4.619636741e+19
4.618147616e+19
4.617652422e+19
4.599638359e+19
4.599686364e+19
4.598462716e+19
4.600160186e+19
4.598516843e+19
4.580719286e+19
4.580494188e+19
4.5797754e+19
4.580289602e+19
4.58018049e+19
4.562597829e+19
4.561325102e+19
4.56184446e+19
4.562899499e+19
4.561358609e+19
4.542766444e+19
4.545175937e+19
4.5430621e+19
4.544143987e+19
4.543906217e+19
4.526334832e+19
4.525645362e+19
4.526845491e+19
4.524752381e+19
4.525936937e+19
4.51091992e+19
4.508619862e+19
4.508968033e+19
4.508789974e+19
4.510200917e+19
4.491119572e+19
4.492060451e+19
4.490614498e+19
4.489567406e+19
4.491591676e+19
4.473372598e+19
4.474576163e+19
4.47335273e+19
4.472859684e+19
4.473281313e+19
4.457868012e+19
4.458931857e+19
4.456844976e+19
4.456139719e+19
4.457787251e+19
4.439740003e+19
4.439993883e+19
4.439326751e+19
4.438458363e+19
4.440402947e+19
4.422581549e+19
4.422429801e+19
4.422650174e+19
4.422445803e+19
4.422598302e+19
4.404793228e+19
4.40539399e+19
4.40569566e+19
4.405809928e+19
4.405566036e+19
4.387868141e+19
4.388439048e+19
4.388964419e+19
4.390546441e+19
4.387835708e+19
4.372955618e+19
4.371860199e+19
4.373854399e+19
4.373362104e+19
4.374739003e+19
4.357096631e+19
4.356829972e+19
4.357858485e+19
4.357598484e+19
4.358569541e+19
4.341673342e+19
4.341961481e+19
4.342985912e+19
4.340734718e+19
4.342097119e+19
4.32642371e+19
4.327227017e+19
4.327006215e+19
4.326762753e+19
4.327186315e+19
4.311780638e+19
4.31146447e+19
4.309847009e+19
4.30933882e+19
4.310601452e+19
4.296870693e+19
4.29527965e+19
4.295989847e+19
4.295796967e+19
4.294702944e+19
4.281543307e+19
4.279937444e+19
4.281290716e+19
4.279955164e+19
4.280130001e+19
4.265565972e+19
4.263916077e+19
4.264847721e+19
4.263470714e+19
4.266274128e+19
4.251414336e+19
4.25012303e+19
4.248924512e+19
4.248943306e+19
4.24927451e+19
4.23465528e+19
4.236444572e+19
4.234137963e+19
4.234500632e+19
4.235062411e+19
4.220073209e+19
4.21974265e+19
4.221082176e+19
4.219357535e+19
4.220997979e+19
4.204823361e+19
4.206801345e+19
4.206542095e+19
4.206151933e+19
4.206850531e+19
4.192000941e+19
4.191673604e+19
4.192322371e+19
4.193462574e+19
4.192875021e+19
4.176962445e+19
4.177350889e+19
4.17829252e+19
4.177876476e+19
4.178726392e+19
4.162538243e+19
4.163697776e+19
4.163359807e+19
4.163236089e+19
4.163016254e+19
4.149532179e+19
4.150777521e+19
4.149681994e+19
4.150642097e+19
4.149640755e+19
4.136497978e+19
4.136552105e+19
4.136719103e+19
4.137026787e+19
4.135536265e+19
4.12311421e+19
4.122722221e+19
4.122686567e+19
4.122752399e+19
4.123195614e+19
4.10998228e+19
4.109397734e+19
4.109305053e+19
4.109737529e+19
4.110598937e+19
4.097051929e+19
4.095580309e+19
4.09706922e+19
4.096498742e+19
4.096202335e+19
4.080791396e+19
4.082291799e+19
4.082469214e+19
4.084031904e+19
4.082086676e+19
4.069965217e+19
4.069001355e+19
4.069258242e+19
4.068078733e+19
4.069079109e+19
4.05732773e+19
4.055575488e+19
4.057255131e+19
4.056941433e+19
4.056741358e+19
4.044714513e+19
4.043181571e+19
4.043062471e+19
4.044179798e+19
4.043625001e+19
4.029995515e+19
4.029943751e+19
4.030952181e+19
4.031919909e+19
4.032909115e+19
4.018778958e+19
4.01800368e+19
4.01675952e+19
4.017667859e+19
4.017578937e+19
4.004461506e+19
4.003853763e+19
4.004723117e+19
4.005379617e+19
4.005419997e+19
3.993611055e+19
3.992639354e+19
3.99328404e+19
3.993232921e+19
3.992637636e+19
3.981724037e+19
3.980579646e+19
3.979385747e+19
3.981112858e+19
3.980750296e+19
3.969328509e+19
3.969219504e+19
3.96842801e+19
3.968587383e+19
3.966978942e+19
3.957970622e+19
3.955976959e+19
3.957127793e+19
3.95674096e+19
3.957898345e+19
3.944197228e+19
3.944484507e+19
3.945708691e+19
3.944969713e+19
3.94418681e+19
3.932816465e+19
3.932935673e+19
3.932456803e+19
3.933907159e+19
3.932244592e+19
3.92184466e+19
3.921419057e+19
3.920619723e+19
3.921166788e+19
3.920100151e+19
3.909661879e+19
3.908388722e+19
3.910430176e+19
3.909195896e+19
3.908152992e+19
3.897562865e+19
3.897346681e+19
3.897703659e+19
3.897950343e+19
3.898551427e+19
3.8868589e+19
3.886898099e+19
3.885243264e+19
3.887616351e+19
3.886563782e+19
3.874694591e+19
3.875396089e+19
3.874541662e+19
3.875033419e+19
3.875314899e+19
3.864902187e+19
3.863138777e+19
3.86352357e+19
3.862990143e+19
3.863237472e+19
3.85255359e+19
3.852373275e+19
3.852329244e+19
3.852726065e+19
3.851898916e+19
3.840334187e+19
3.84213336e+19
3.841336174e+19
3.839931245e+19
3.840766878e+19
3.829263579e+19
3.830511928e+19
3.830030158e+19
3.830609334e+19
3.829893553e+19
3.818929802e+19
3.820169988e+19
3.819899785e+19
3.818103512e+19
3.819948542e+19
3.809536581e+19
3.808216708e+19
3.808806624e+19
3.807443471e+19
3.807800986e+19
3.798781282e+19
3.798353961e+19
3.796526759e+19
3.796197703e+19
3.796601398e+19
3.786908977e+19
3.787632061e+19
3.786477468e+19
3.785827627e+19
3.786145835e+19
3.776634803e+19
3.775281638e+19
3.776044888e+19
3.776045103e+19
3.775807762e+19
3.766103958e+19
3.766239704e+19
3.766023197e+19
3.765503732e+19
3.765517049e+19
3.755534235e+19
3.755159215e+19
3.756423136e+19
3.755847396e+19
3.755282182e+19
3.746813302e+19
3.747457022e+19
3.746642975e+19
3.745351132e+19
3.7463209e+19
3.735678901e+19
3.736978369e+19
3.7353056e+19
3.735376695e+19
3.735561305e+19
3.72540752e+19
3.725883061e+19
3.725240629e+19
3.724267317e+19
3.725186181e+19
3.714621184e+19
3.714710858e+19
3.715879627e+19
3.714729222e+19
3.716088186e+19
3.704619683e+19
3.704158533e+19
3.705390665e+19
3.704418964e+19
3.704816751e+19
3.694581347e+19
3.694878721e+19
3.693734437e+19
3.694986115e+19
3.695678807e+19
3.684007543e+19
3.684497583e+19
3.684341432e+19
3.684576732e+19
3.68423683e+19
3.67653571e+19
3.675985208e+19
3.675554773e+19
3.675721985e+19
3.675513641e+19
3.665428695e+19
3.665230553e+19
3.665451678e+19
3.665525994e+19
3.665244837e+19
3.655527501e+19
3.655138734e+19
3.65634391e+19
3.656287743e+19
3.655217991e+19
3.646221055e+19
3.646496843e+19
3.645488735e+19
3.645122091e+19
3.64724248e+19
3.635491423e+19
3.635386606e+19
3.635255585e+19
3.63624651e+19
3.636054275e+19
3.62712156e+19
3.625089987e+19
3.626130528e+19
3.626535296e+19
3.626435956e+19
3.617126611e+19
3.615408306e+19
3.617309395e+19
3.618469788e+19
3.617629322e+19
3.606949521e+19
3.607220154e+19
3.607104383e+19
3.608093268e+19
3.607337858e+19
3.596542716e+19
3.597663909e+19
3.598757073e+19
3.59736675e+19
3.596681039e+19
3.588833004e+19
3.589337541e+19
3.587680773e+19
3.588792194e+19
3.588577192e+19
3.579774316e+19
3.578883482e+19
3.579050802e+19
3.579161311e+19
3.579477049e+19
3.56952495e+19
3.569831131e+19
3.569292442e+19
3.570280897e+19
3.568869847e+19
3.559342061e+19
3.559785491e+19
3.559988359e+19
3.559360318e+19
3.558993782e+19
3.549386096e+19
3.549055537e+19
3.547433672e+19
3.550156326e+19
3.549002484e+19
3.537939179e+19
3.538142154e+19
3.538839678e+19
3.538449301e+19
3.538735399e+19
3.527866262e+19
3.528630907e+19
3.52817663e+19
3.527348945e+19
3.527842528e+19
3.516329993e+19
3.515457094e+19
3.516274041e+19
3.516437494e+19
3.516432554e+19
3.502672584e+19
3.5020439e+19
3.503284838e+19
3.502373492e+19
3.502118001e+19
)
;

boundaryField
{
    upperWall
    {
        type            calculated;
        value           nonuniform List<scalar> 5(3.49169875e+19 3.492458813e+19 3.494055772e+19 3.494138252e+19 3.490029678e+19);
    }
    lowerWall
    {
        type            calculated;
        value           nonuniform List<scalar> 5(4.912409199e+19 4.905153682e+19 4.912375166e+19 4.911475369e+19 4.914950046e+19);
    }
    periodicX_half0
    {
        type            cyclic;
    }
    periodicX_half1
    {
        type            cyclic;
    }
    frontAndBack
    {
        type            empty;
    }
}


// ************************************************************************* //
