/*--------------------------------*- C++ -*----------------------------------*\
| =========                 |                                                 |
| \\      /  F ield         | OpenFOAM: The Open Source CFD Toolbox           |
|  \\    /   O peration     | Version:  v1706                                 |
|   \\  /    A nd           | Web:      www.OpenFOAM.com                      |
|    \\/     M anipulation  |                                                 |
\*---------------------------------------------------------------------------*/
FoamFile
{
    version     2.0;
    format      ascii;
    class       volScalarField;
    location    "5";
    object      rhoN_N2;
}
// * * * * * * * * * * * * * * * * * * * * * * * * * * * * * * * * * * * * * //

dimensions      [0 -3 0 0 0 0 0];


internalField   nonuniform List<scalar> 
500
(
3.858832705e+19
3.861000239e+19
3.861247031e+19
3.859796137e+19
3.858933011e+19
3.8337432e+19
3.835309864e+19
3.835759845e+19
3.835261644e+19
3.836601492e+19
3.814734453e+19
3.814396162e+19
3.81510507e+19
3.815631945e+19
3.813452705e+19
3.796550493e+19
3.796305312e+19
3.79636352e+19
3.797546358e+19
3.794473277e+19
3.77800107e+19
3.777730008e+19
3.777934164e+19
3.777336623e+19
3.777489338e+19
3.760611289e+19
3.761512218e+19
3.760492189e+19
3.76007013e+19
3.76020781e+19
3.743066645e+19
3.742795798e+19
3.74298814e+19
3.74205843e+19
3.743779205e+19
3.72545531e+19
3.726734158e+19
3.724747476e+19
3.725681267e+19
3.726615058e+19
3.708625052e+19
3.709759348e+19
3.710143496e+19
3.709651417e+19
3.7103774e+19
3.693965764e+19
3.69254784e+19
3.693111444e+19
3.694257232e+19
3.694267219e+19
3.678173577e+19
3.677521265e+19
3.67739497e+19
3.678834909e+19
3.678423805e+19
3.662917071e+19
3.663580766e+19
3.663361575e+19
3.663689341e+19
3.662943704e+19
3.647722853e+19
3.647843671e+19
3.648884427e+19
3.647958476e+19
3.647091269e+19
3.633371786e+19
3.633369424e+19
3.632627009e+19
3.633079997e+19
3.631946667e+19
3.618167474e+19
3.618267028e+19
3.617658211e+19
3.617642747e+19
3.618108729e+19
3.603623957e+19
3.603165384e+19
3.60330199e+19
3.604044082e+19
3.60260468e+19
3.58830731e+19
3.590263171e+19
3.588873599e+19
3.589218441e+19
3.589529669e+19
3.575864636e+19
3.574885309e+19
3.575924347e+19
3.574105843e+19
3.575029325e+19
3.563586167e+19
3.561676701e+19
3.561654685e+19
3.561863674e+19
3.562242452e+19
3.547942183e+19
3.548154501e+19
3.548012956e+19
3.547149185e+19
3.547990081e+19
3.533428199e+19
3.534959209e+19
3.534481842e+19
3.533511215e+19
3.533776371e+19
3.521611525e+19
3.522636386e+19
3.520698138e+19
3.520506547e+19
3.522272213e+19
3.50778003e+19
3.507477072e+19
3.50673659e+19
3.5063562e+19
3.508471756e+19
3.493833839e+19
3.49338504e+19
3.493376985e+19
3.493737399e+19
3.493724834e+19
3.480113068e+19
3.480393367e+19
3.480430418e+19
3.480485511e+19
3.480300686e+19
3.466859998e+19
3.466684624e+19
3.467509088e+19
3.468870522e+19
3.46702807e+19
3.455502541e+19
3.454410773e+19
3.455942964e+19
3.455094658e+19
3.45728657e+19
3.442790737e+19
3.442801261e+19
3.443078123e+19
3.442377484e+19
3.443312242e+19
3.43056328e+19
3.430518389e+19
3.431820005e+19
3.429626481e+19
3.430718894e+19
3.418500351e+19
3.419578802e+19
3.41922569e+19
3.419237825e+19
3.419374968e+19
3.407502878e+19
3.406816308e+19
3.406008812e+19
3.404777754e+19
3.406369978e+19
3.395157932e+19
3.394399408e+19
3.39438201e+19
3.39431564e+19
3.393358867e+19
3.383367998e+19
3.382410151e+19
3.383081471e+19
3.382328102e+19
3.38221319e+19
3.371282946e+19
3.369095759e+19
3.37033573e+19
3.36904872e+19
3.371430183e+19
3.359208418e+19
3.358743617e+19
3.357711345e+19
3.357875873e+19
3.357905514e+19
3.346606049e+19
3.34763338e+19
3.345885327e+19
3.346179265e+19
3.346323173e+19
3.334790985e+19
3.334225126e+19
3.335431483e+19
3.333997987e+19
3.33530594e+19
3.322674359e+19
3.323521376e+19
3.323578617e+19
3.323517832e+19
3.32388716e+19
3.312639459e+19
3.312478046e+19
3.312750612e+19
3.313106408e+19
3.313347937e+19
3.300140939e+19
3.300561387e+19
3.301761086e+19
3.301821871e+19
3.30191133e+19
3.289222187e+19
3.290376458e+19
3.29007511e+19
3.29059436e+19
3.290337152e+19
3.279089021e+19
3.280219666e+19
3.279861829e+19
3.280467531e+19
3.2800938e+19
3.269555329e+19
3.269593884e+19
3.269351603e+19
3.269590984e+19
3.269022118e+19
3.258841054e+19
3.25810519e+19
3.258278739e+19
3.257826825e+19
3.258305802e+19
3.248647641e+19
3.247965259e+19
3.248399346e+19
3.248362402e+19
3.248850079e+19
3.23833996e+19
3.236747521e+19
3.238473129e+19
3.237386086e+19
3.237258932e+19
3.225007955e+19
3.226387754e+19
3.226709829e+19
3.227863026e+19
3.225845844e+19
3.216687709e+19
3.216236761e+19
3.216934071e+19
3.215032874e+19
3.215932943e+19
3.207013868e+19
3.205414663e+19
3.206860187e+19
3.206804771e+19
3.206410958e+19
3.197019241e+19
3.195835973e+19
3.195407471e+19
3.196457999e+19
3.196645939e+19
3.185387821e+19
3.185498329e+19
3.185623121e+19
3.186594822e+19
3.187256262e+19
3.177238008e+19
3.176148281e+19
3.174975753e+19
3.175915343e+19
3.175826528e+19
3.165831257e+19
3.164697498e+19
3.165674032e+19
3.166168152e+19
3.166354159e+19
3.156530073e+19
3.155906865e+19
3.156781805e+19
3.156680854e+19
3.155696803e+19
3.14736238e+19
3.147083693e+19
3.145203867e+19
3.146853869e+19
3.146597198e+19
3.138241189e+19
3.137810216e+19
3.13739138e+19
3.136977053e+19
3.135634413e+19
3.128410874e+19
3.12740427e+19
3.128609553e+19
3.127934152e+19
3.129029249e+19
3.117568586e+19
3.118321526e+19
3.119224495e+19
3.118555752e+19
3.117521118e+19
3.109057715e+19
3.10913128e+19
3.108432145e+19
3.109721303e+19
3.108039727e+19
3.100755403e+19
3.099829344e+19
3.099651178e+19
3.099614019e+19
3.098813934e+19
3.090317668e+19
3.089136763e+19
3.090879447e+19
3.090336462e+19
3.089340168e+19
3.081251892e+19
3.081114213e+19
3.080970842e+19
3.081574826e+19
3.081887343e+19
3.072447836e+19
3.073006929e+19
3.071656986e+19
3.073109168e+19
3.072685499e+19
3.06338453e+19
3.064031364e+19
3.062617736e+19
3.06350363e+19
3.063656237e+19
3.055422979e+19
3.054321868e+19
3.054445908e+19
3.053947707e+19
3.054229724e+19
3.045656994e+19
3.045270912e+19
3.044863352e+19
3.046187091e+19
3.045460463e+19
3.036233596e+19
3.037669884e+19
3.036933268e+19
3.035536394e+19
3.036088614e+19
3.027466053e+19
3.028309096e+19
3.027717355e+19
3.028214052e+19
3.027592348e+19
3.019338042e+19
3.020428306e+19
3.020004207e+19
3.01861732e+19
3.019749146e+19
3.012033206e+19
3.01105882e+19
3.011415797e+19
3.009782227e+19
3.010525608e+19
3.002855633e+19
3.003524161e+19
3.001558527e+19
3.001539089e+19
3.001513529e+19
2.994117194e+19
2.994326505e+19
2.993964479e+19
2.993357488e+19
2.993708345e+19
2.986175296e+19
2.985050988e+19
2.984683808e+19
2.985302183e+19
2.98561427e+19
2.978000569e+19
2.97785709e+19
2.977878891e+19
2.977013188e+19
2.977431165e+19
2.969534803e+19
2.969259874e+19
2.969864718e+19
2.970167999e+19
2.96941377e+19
2.962467953e+19
2.963090838e+19
2.96291439e+19
2.961965456e+19
2.962284846e+19
2.953605259e+19
2.954695845e+19
2.953764309e+19
2.954023988e+19
2.953403573e+19
2.945608268e+19
2.945771507e+19
2.945679471e+19
2.944673188e+19
2.94551258e+19
2.936993977e+19
2.937783108e+19
2.938360244e+19
2.937696226e+19
2.938851572e+19
2.929035004e+19
2.929264183e+19
2.929903285e+19
2.929275137e+19
2.929552965e+19
2.92166745e+19
2.921817157e+19
2.921389192e+19
2.921997364e+19
2.922516722e+19
2.91368034e+19
2.913723512e+19
2.913843256e+19
2.913963108e+19
2.913495622e+19
2.907490684e+19
2.907093003e+19
2.906668153e+19
2.907164206e+19
2.906639264e+19
2.898726685e+19
2.89865559e+19
2.899172263e+19
2.898699944e+19
2.899025455e+19
2.89149187e+19
2.890906358e+19
2.891438925e+19
2.89174736e+19
2.890470875e+19
2.884189826e+19
2.884147835e+19
2.883132425e+19
2.882781783e+19
2.884374007e+19
2.875664028e+19
2.875017301e+19
2.874768791e+19
2.875508414e+19
2.875906309e+19
2.868514484e+19
2.866923119e+19
2.867168944e+19
2.868253301e+19
2.867903841e+19
2.860226026e+19
2.858984658e+19
2.860030354e+19
2.861370739e+19
2.860901856e+19
2.852398503e+19
2.852532423e+19
2.852708335e+19
2.853628165e+19
2.853340778e+19
2.844075572e+19
2.844419125e+19
2.845487266e+19
2.844830337e+19
2.844506651e+19
2.838189196e+19
2.838596757e+19
2.837226194e+19
2.837900951e+19
2.838289502e+19
2.831167881e+19
2.829928017e+19
2.830448126e+19
2.831166163e+19
2.83076569e+19
2.823312758e+19
2.822942785e+19
2.822929683e+19
2.823762095e+19
2.822480561e+19
2.814929793e+19
2.815310398e+19
2.815585756e+19
2.814795766e+19
2.814791899e+19
2.807000998e+19
2.806642839e+19
2.80552186e+19
2.807734714e+19
2.806582161e+19
2.797906011e+19
2.798156991e+19
2.798588822e+19
2.798557248e+19
2.798532118e+19
2.79015549e+19
2.79113879e+19
2.790950313e+19
2.789663947e+19
2.790303049e+19
2.780795776e+19
2.780323887e+19
2.780967821e+19
2.781501999e+19
2.780968788e+19
2.77041743e+19
2.770145293e+19
2.771173484e+19
2.770246137e+19
2.769830414e+19
)
;

boundaryField
{
    upperWall
    {
        type            calculated;
        value           nonuniform List<scalar> 5(2.760600367e+19 2.762374403e+19 2.764179759e+19 2.763674189e+19 2.761207949e+19);
    }
    lowerWall
    {
        type            calculated;
        value           nonuniform List<scalar> 5(3.878161275e+19 3.873719075e+19 3.880197955e+19 3.879479672e+19 3.881473665e+19);
    }
    periodicX_half0
    {
        type            cyclic;
    }
    periodicX_half1
    {
        type            cyclic;
    }
    frontAndBack
    {
        type            empty;
    }
}


// ************************************************************************* //
