/*--------------------------------*- C++ -*----------------------------------*\
| =========                 |                                                 |
| \\      /  F ield         | OpenFOAM: The Open Source CFD Toolbox           |
|  \\    /   O peration     | Version:  v1706                                 |
|   \\  /    A nd           | Web:      www.OpenFOAM.com                      |
|    \\/     M anipulation  |                                                 |
\*---------------------------------------------------------------------------*/
FoamFile
{
    version     2.0;
    format      ascii;
    class       volScalarField;
    location    "5";
    object      rotationalT_mixture;
}
// * * * * * * * * * * * * * * * * * * * * * * * * * * * * * * * * * * * * * //

dimensions      [0 0 0 1 0 0 0];


internalField   nonuniform List<scalar> 
500
(
2065.856031
2066.235051
2065.525335
2065.89335
2065.886942
2082.220855
2082.301537
2081.236976
2082.05674
2082.253529
2095.54277
2094.868273
2095.220059
2095.751275
2096.115803
2107.873075
2107.418137
2106.859131
2107.640309
2107.806926
2118.823401
2118.642676
2118.458941
2118.946473
2118.570547
2129.320311
2129.837873
2129.595878
2129.531712
2129.906844
2139.869762
2140.449046
2140.862597
2140.878106
2139.623108
2151.117531
2150.921884
2151.136611
2150.674084
2150.403487
2161.03854
2161.435461
2161.03464
2161.467176
2161.192217
2171.010233
2171.27084
2170.554053
2170.776687
2171.342474
2180.037344
2180.461168
2181.6737
2181.191059
2180.687952
2191.068542
2190.457104
2190.746383
2190.378898
2190.702562
2200.242598
2199.822531
2200.129973
2200.102748
2200.124267
2209.582947
2210.042359
2209.385662
2210.220954
2209.429367
2218.784438
2218.754296
2218.433723
2217.939588
2219.360605
2228.388565
2228.060599
2227.987461
2227.960758
2228.155576
2237.36418
2237.307862
2237.718938
2237.768885
2237.850439
2246.797233
2246.980881
2246.654617
2245.867585
2247.112896
2255.797913
2256.076631
2255.375007
2255.107494
2255.394273
2264.734103
2264.626142
2264.089462
2264.568104
2264.542035
2273.736055
2273.745508
2273.575057
2273.624641
2272.954989
2282.449153
2282.211381
2282.808228
2282.551306
2281.81332
2292.081251
2291.10576
2291.215029
2291.249417
2290.87881
2300.151026
2300.272756
2300.435269
2300.424331
2300.944034
2309.238355
2309.537598
2308.936904
2309.120553
2309.114603
2317.154485
2317.849138
2317.103967
2317.179912
2317.794455
2326.220237
2326.569372
2326.188073
2326.743653
2326.036446
2334.532648
2335.136111
2334.762811
2334.61696
2334.859772
2343.942773
2344.786477
2343.91749
2344.418486
2344.311986
2352.911991
2352.977806
2352.599944
2352.754848
2352.584068
2360.756359
2360.856637
2361.484828
2361.229543
2361.477358
2369.928652
2369.546757
2370.435376
2369.184016
2369.571
2378.504277
2377.974647
2378.136017
2377.198772
2377.357533
2386.842372
2386.529872
2386.71716
2385.926528
2385.390893
2395.726854
2395.394039
2394.616798
2394.810354
2395.046513
2403.473088
2403.173216
2403.046054
2402.915042
2403.485795
2411.642002
2411.302058
2411.319905
2411.837835
2411.323061
2419.701989
2420.097178
2420.097525
2419.614286
2419.677678
2428.845721
2428.746259
2428.209758
2428.817976
2428.582188
2437.634088
2436.861003
2436.613133
2436.475876
2436.493113
2445.472391
2445.882143
2445.481525
2444.915688
2445.264754
2454.154845
2454.200264
2453.901474
2453.573489
2453.793712
2462.167975
2462.255605
2461.987307
2462.303403
2461.976351
2470.083788
2469.412667
2469.409701
2469.736606
2469.926301
2476.401327
2478.327387
2478.141686
2477.078519
2477.606953
2485.864209
2486.185282
2485.994686
2485.904335
2485.581897
2493.342591
2493.582052
2494.558031
2493.585368
2493.007285
2501.810468
2501.117176
2501.845082
2501.260816
2501.627505
2510.253667
2510.123438
2511.481647
2510.735281
2509.978666
2518.748481
2518.112035
2518.288883
2518.230427
2518.135398
2526.547627
2525.652221
2526.775863
2526.120927
2526.698263
2534.648331
2534.12156
2535.380673
2534.312603
2535.118294
2543.11526
2543.153335
2542.321286
2542.427914
2542.043789
2550.469509
2549.882495
2550.293079
2549.649549
2549.799585
2558.938005
2558.730046
2557.667776
2557.522291
2558.305451
2566.441965
2566.207967
2565.895372
2567.2407
2567.079561
2574.316996
2574.734079
2574.3663
2573.148724
2573.560396
2582.030903
2581.644012
2582.797759
2582.224423
2582.526661
2589.01533
2589.127147
2589.607072
2590.696832
2590.280161
2597.743185
2597.746726
2598.262081
2598.2111
2597.716742
2605.547597
2605.565179
2605.303161
2605.593871
2606.411904
2613.279087
2613.376327
2613.023652
2612.422491
2614.007023
2621.502113
2619.817782
2620.482802
2621.106704
2621.324079
2628.965658
2628.602664
2628.982816
2628.558429
2629.153555
2636.449883
2635.587458
2636.316477
2637.374593
2636.386654
2644.532056
2644.49111
2644.259609
2644.833832
2644.471387
2652.990617
2652.213376
2652.358379
2652.699537
2652.482093
2660.31702
2659.970354
2659.163168
2659.895304
2659.600538
2667.402062
2668.447466
2667.006772
2667.417504
2668.132139
2674.754834
2675.082501
2674.49128
2673.974095
2674.79946
2682.602877
2683.170966
2682.437557
2681.542155
2683.272616
2689.995021
2689.891293
2689.685424
2688.986038
2690.331884
2697.110171
2697.384532
2697.463729
2697.607669
2698.022513
2705.347477
2705.702961
2706.143416
2706.15983
2706.713539
2713.986655
2713.598767
2713.267504
2712.707331
2712.618368
2721.520305
2721.592309
2721.232071
2720.389085
2721.257679
2729.108288
2728.662981
2728.752081
2728.689825
2728.525428
2736.768199
2736.752911
2736.924609
2736.285889
2736.520649
2744.566905
2745.564828
2744.971078
2744.708075
2745.221757
2752.513449
2752.48162
2753.564377
2752.168191
2752.439929
2760.586392
2760.256002
2760.065571
2760.180986
2760.745611
2767.594758
2767.57279
2768.233387
2767.716681
2768.226831
2775.801764
2776.118997
2776.2102
2776.445965
2775.635254
2784.136189
2783.420348
2784.882427
2783.700624
2783.989975
2791.510625
2791.435339
2791.70657
2791.124592
2791.219275
2799.246808
2798.249205
2798.974783
2798.796048
2798.73183
2807.538087
2807.086153
2807.169379
2807.239496
2807.278762
2815.32173
2816.32627
2814.01478
2815.058435
2815.922728
2823.110037
2823.598416
2823.078814
2823.099364
2823.382689
2831.229546
2831.797152
2830.734589
2831.977867
2830.950986
2839.253036
2839.100642
2840.151263
2839.94455
2839.773719
2847.297071
2847.616846
2847.335118
2849.226872
2848.335609
2856.654534
2855.822628
2856.809857
2856.492859
2856.421157
2864.321478
2864.680687
2863.951028
2863.309211
2864.426674
2872.977386
2872.760635
2873.169384
2872.947606
2873.276729
2881.880076
2881.547694
2882.167425
2882.430284
2882.620188
2892.413472
2892.793573
2891.552445
2891.28133
2892.482662
2901.479448
2903.66076
2902.591303
2902.32898
2901.867213
2913.939464
2913.837542
2913.494735
2912.744736
2912.892659
2926.343068
2926.583719
2926.116631
2926.440221
2925.728349
)
;

boundaryField
{
    upperWall
    {
        type            calculated;
        value           nonuniform List<scalar> 5(2937.715673 2935.325831 2935.130855 2934.961199 2934.986981);
    }
    lowerWall
    {
        type            calculated;
        value           nonuniform List<scalar> 5(2055.055963 2052.856497 2053.79706 2052.205389 2055.989604);
    }
    periodicX_half0
    {
        type            cyclic;
    }
    periodicX_half1
    {
        type            cyclic;
    }
    frontAndBack
    {
        type            empty;
    }
}


// ************************************************************************* //
