/*--------------------------------*- C++ -*----------------------------------*\
| =========                 |                                                 |
| \\      /  F ield         | OpenFOAM: The Open Source CFD Toolbox           |
|  \\    /   O peration     | Version:  v1706                                 |
|   \\  /    A nd           | Web:      www.OpenFOAM.com                      |
|    \\/     M anipulation  |                                                 |
\*---------------------------------------------------------------------------*/
FoamFile
{
    version     2.0;
    format      ascii;
    class       volScalarField;
    location    "5";
    object      rotationalT_O2;
}
// * * * * * * * * * * * * * * * * * * * * * * * * * * * * * * * * * * * * * //

dimensions      [0 0 0 1 0 0 0];


internalField   nonuniform List<scalar> 
500
(
2067.401783
2067.548999
2067.331109
2067.27317
2067.898642
2083.817406
2084.291605
2082.422017
2084.08237
2084.537945
2096.228275
2096.204721
2094.997985
2096.022357
2097.678871
2109.363297
2110.126012
2108.653947
2108.794989
2109.902739
2120.628131
2120.282008
2119.438164
2119.36945
2119.936893
2131.191933
2130.402268
2130.585807
2130.626927
2131.539303
2140.961227
2140.588224
2143.634952
2142.352545
2140.870564
2152.992821
2151.595642
2150.417693
2152.892963
2151.182723
2162.381207
2162.802986
2161.737963
2163.066798
2162.920144
2171.9229
2171.705761
2169.725863
2171.010161
2173.019392
2181.791167
2180.275246
2180.019214
2181.897675
2182.563765
2191.238485
2191.242538
2189.307287
2190.867968
2192.181566
2201.29244
2201.585809
2200.312927
2202.042362
2201.386993
2209.504436
2209.491728
2208.901807
2210.501023
2209.92126
2219.144001
2218.541201
2217.707879
2216.240152
2219.909048
2227.886284
2227.661701
2228.068828
2227.300265
2227.100561
2237.102588
2237.107718
2236.978508
2238.597802
2236.354258
2247.650918
2247.267523
2246.588673
2245.41041
2248.88324
2255.611884
2256.272332
2255.94879
2254.327919
2255.375863
2264.707075
2263.545084
2262.947443
2263.936557
2265.346928
2274.233107
2271.665926
2273.075722
2273.957766
2272.080199
2282.788532
2281.698921
2282.949306
2282.262456
2282.614314
2291.164441
2290.726702
2291.128856
2291.634364
2290.520089
2297.773923
2298.800846
2298.20491
2299.664391
2301.36588
2309.356458
2307.400284
2307.926833
2309.076417
2309.738609
2316.634737
2317.799985
2317.412384
2315.901076
2317.737462
2325.95666
2325.830019
2326.310607
2327.61839
2325.589463
2335.288106
2334.758554
2333.318855
2334.350796
2333.804093
2344.357397
2344.413711
2341.535074
2343.457071
2343.443095
2352.353915
2350.715865
2351.345916
2353.537278
2350.53927
2359.15136
2359.184261
2361.121554
2360.790191
2361.035599
2369.620357
2370.089888
2369.007897
2368.710238
2370.868895
2378.392235
2377.775532
2376.856664
2376.919375
2376.292583
2386.31123
2385.165426
2387.400777
2384.188653
2384.917541
2395.018994
2394.831864
2393.900641
2394.393778
2393.303828
2402.104129
2402.72264
2401.644716
2400.935042
2402.049484
2411.069973
2410.411706
2409.802114
2411.76206
2410.803399
2418.370777
2419.509221
2419.568493
2418.651653
2418.676332
2427.551528
2428.628322
2428.896459
2426.607324
2428.506075
2437.0634
2435.758409
2436.059296
2436.403441
2435.258857
2444.519287
2443.783033
2446.781754
2444.706774
2444.961986
2453.809406
2453.598983
2453.935833
2451.965598
2454.266659
2460.032074
2461.135804
2461.268784
2461.182432
2461.127949
2470.317414
2470.101853
2469.571921
2469.112665
2469.245189
2477.671648
2478.973953
2475.69233
2477.13248
2477.3349
2486.601945
2486.981088
2486.37536
2485.095091
2485.227762
2492.350424
2492.515916
2495.051356
2493.585555
2491.688078
2502.479337
2500.52632
2500.651691
2501.193361
2500.803168
2509.571311
2510.687064
2511.717751
2510.093515
2509.520088
2519.252302
2518.829909
2519.506999
2518.412739
2517.907983
2526.851421
2526.025053
2526.336787
2526.457284
2527.216341
2533.729872
2534.731515
2535.12002
2534.074868
2533.73019
2543.103779
2543.127971
2542.69375
2543.57034
2542.695181
2549.911272
2548.736793
2549.491552
2551.11497
2550.696865
2559.394261
2557.989767
2556.79436
2557.175753
2560.792272
2567.935629
2564.765793
2565.892886
2567.708333
2567.503284
2573.734889
2575.607945
2573.789442
2573.343912
2572.632099
2582.367124
2581.395449
2583.898413
2581.803798
2582.047362
2588.961452
2587.972279
2591.260323
2588.98851
2589.393641
2597.325473
2596.929829
2598.00917
2597.438734
2596.908994
2604.031425
2604.127822
2605.335662
2603.564894
2606.835044
2611.541424
2613.904841
2612.380595
2611.242007
2613.85186
2619.972039
2618.371994
2620.682505
2620.480222
2621.042645
2628.436321
2628.553703
2629.158819
2628.65476
2627.928116
2633.752315
2635.117972
2636.735416
2636.771422
2637.701289
2642.810731
2642.592695
2642.751697
2643.187548
2644.653391
2652.614001
2651.45462
2652.399709
2653.433957
2652.972978
2657.804084
2658.963672
2659.206563
2660.015965
2660.778915
2666.837186
2667.911342
2667.856884
2668.201479
2667.933433
2673.576068
2675.872311
2674.641609
2673.041133
2674.379931
2681.377818
2681.517241
2682.208902
2680.776208
2682.579771
2688.10281
2691.171074
2689.62993
2687.984856
2687.334718
2695.158978
2697.463761
2697.805332
2697.771798
2697.694605
2704.206092
2705.46986
2705.738078
2705.022861
2705.814041
2713.319369
2714.921425
2712.473573
2713.872538
2712.985984
2720.950195
2721.597483
2719.900044
2720.609464
2720.316993
2727.592318
2725.546628
2726.630911
2727.76688
2726.983986
2735.031203
2734.791428
2733.68757
2734.573591
2735.02638
2743.85583
2746.015755
2745.590105
2742.339315
2745.395874
2751.34506
2753.181398
2754.128108
2752.283756
2751.839049
2761.265044
2759.910233
2759.581139
2760.948946
2760.400754
2768.310112
2768.62676
2766.96293
2767.374559
2767.344989
2774.581206
2777.132394
2775.188598
2775.78034
2776.690585
2783.510796
2783.258663
2785.954734
2784.071298
2784.654666
2791.964656
2792.140795
2791.294755
2789.981622
2790.711441
2799.669439
2797.599052
2798.161051
2799.355177
2799.157253
2806.818397
2805.88538
2804.925487
2806.121878
2806.524429
2812.734625
2813.188844
2812.165981
2813.808745
2813.116121
2822.045449
2821.015267
2820.335116
2820.052524
2820.142264
2828.925822
2829.929237
2829.732494
2830.103706
2829.414202
2836.443979
2837.312695
2839.815477
2838.661168
2837.976088
2844.50099
2844.930004
2846.650412
2847.164859
2846.817173
2855.763418
2851.923708
2854.892874
2853.812364
2851.271266
2862.890374
2860.054145
2861.118509
2860.027738
2861.289525
2870.06412
2870.015376
2868.250356
2870.075873
2870.718073
2880.278346
2878.051367
2879.485153
2878.951607
2879.844654
2889.810062
2890.280029
2888.592789
2888.524615
2889.488148
2898.86324
2901.043023
2899.684724
2897.421728
2897.289841
2910.106618
2910.272571
2909.391536
2908.8419
2909.614999
2923.154519
2920.748199
2922.053597
2922.678956
2922.445884
)
;

boundaryField
{
    upperWall
    {
        type            calculated;
        value           nonuniform List<scalar> 5(2932.703374 2931.68396 2928.061376 2929.236402 2934.232122);
    }
    lowerWall
    {
        type            calculated;
        value           nonuniform List<scalar> 5(2056.563667 2056.265883 2055.411137 2055.990798 2054.836534);
    }
    periodicX_half0
    {
        type            cyclic;
    }
    periodicX_half1
    {
        type            cyclic;
    }
    frontAndBack
    {
        type            empty;
    }
}


// ************************************************************************* //
