/*--------------------------------*- C++ -*----------------------------------*\
| =========                 |                                                 |
| \\      /  F ield         | OpenFOAM: The Open Source CFD Toolbox           |
|  \\    /   O peration     | Version:  v1706                                 |
|   \\  /    A nd           | Web:      www.OpenFOAM.com                      |
|    \\/     M anipulation  |                                                 |
\*---------------------------------------------------------------------------*/
FoamFile
{
    version     2.0;
    format      ascii;
    class       volScalarField;
    location    "5";
    object      SOFP_N2;
}
// * * * * * * * * * * * * * * * * * * * * * * * * * * * * * * * * * * * * * //

dimensions      [0 0 0 0 0 0 0];


internalField   nonuniform List<scalar> 
500
(
0.04777664848
0.04778854104
0.0478053854
0.04776615286
0.04777474553
0.04735836555
0.04739359193
0.04741804613
0.04739213592
0.04741464969
0.04706451728
0.04705949611
0.04707442068
0.04707598722
0.04705862207
0.04677876643
0.04678027062
0.04677241448
0.0467912142
0.04675561503
0.0465182835
0.04648969171
0.04651047736
0.04649830159
0.04650860414
0.04624203233
0.04624906405
0.04623545589
0.04621894052
0.04621981271
0.04596424202
0.04596844273
0.04595192142
0.04595445889
0.04598301044
0.04569908862
0.04570482279
0.04569106861
0.04569787621
0.04570600567
0.0454474428
0.04544787646
0.04546408339
0.04546386555
0.04546045538
0.04519472641
0.04518275837
0.04521028343
0.045230852
0.04521814284
0.04496710363
0.04496460864
0.04496578353
0.04498231534
0.04496559786
0.04473447462
0.04475726333
0.04475039927
0.04474667872
0.044738041
0.04450843943
0.0445096267
0.04452098392
0.04451507241
0.0444814452
0.04429524969
0.04429674421
0.04427444687
0.04427658945
0.04427047052
0.04405593646
0.04406721871
0.04405783079
0.044059832
0.04405083684
0.04382681169
0.04385514291
0.04383235637
0.04382790797
0.04382082552
0.04360952688
0.04363528958
0.04361377452
0.0436104605
0.04363093349
0.04341132269
0.04340160338
0.0434100403
0.04338816572
0.04340567801
0.04322417314
0.04318946593
0.04320919047
0.04319878252
0.04321228433
0.04299437967
0.04299841474
0.04300192123
0.04299640168
0.04298805687
0.04278714731
0.04280066738
0.042794051
0.04279815601
0.0427920206
0.04259590998
0.04261696106
0.04259068847
0.04259239971
0.04262432115
0.04241044405
0.04239090306
0.04239091734
0.04237396678
0.04239478325
0.04219623916
0.04217540843
0.04218694981
0.04218552288
0.04221119885
0.04198409783
0.04197487438
0.04195556326
0.04199561091
0.04198161089
0.04178968116
0.04178177572
0.04179613907
0.04179247115
0.04179381134
0.04161852103
0.04159253434
0.04159855536
0.04161535148
0.0416344623
0.04142516873
0.04142485906
0.04142712545
0.04141110577
0.04140364719
0.04123607092
0.04123796246
0.04125212924
0.04122677267
0.04124299987
0.04105774133
0.04106350895
0.04106698567
0.04107043611
0.0410490823
0.04088218953
0.04088082389
0.04087857073
0.04086192399
0.04089244319
0.0406970244
0.04069996465
0.04069501997
0.04069816778
0.04067359232
0.04053183937
0.04050923981
0.04051548557
0.04052051107
0.04051873325
0.04034720836
0.04032563302
0.04034614514
0.04031709153
0.040342948
0.04016837917
0.04016937827
0.0401356586
0.04014303685
0.04015709652
0.03998899185
0.03999903384
0.03996679245
0.0399764801
0.03998722593
0.03982468449
0.03980510289
0.03982243617
0.03980556583
0.03982261556
0.03963981601
0.03964171272
0.03965235269
0.03964161268
0.03965053003
0.03950310202
0.03948226268
0.03948120026
0.03949360993
0.03949754065
0.03930673573
0.03927772878
0.03932861044
0.03930887691
0.03932294908
0.03913478496
0.03915337147
0.03915856918
0.03915897018
0.03914919004
0.03898711609
0.03899390842
0.03901044413
0.0389961797
0.03899810645
0.0388429578
0.0388471367
0.03884984241
0.03885451096
0.03882877503
0.03868403114
0.03868386467
0.03867756415
0.03868584695
0.0386875303
0.03853297574
0.03853033847
0.03853262892
0.038523017
0.03854326093
0.03838166925
0.03835408923
0.03839515462
0.03837729339
0.03836837555
0.03819986606
0.0382090037
0.03821267367
0.03823929014
0.03819987275
0.03805513659
0.03805571116
0.03806816455
0.0380394825
0.0380738369
0.03793320861
0.03792127172
0.03793724849
0.03792486754
0.03792430915
0.03777820817
0.03777164109
0.03777151103
0.0377729121
0.03777737884
0.0376078679
0.03761301806
0.03761082656
0.03762876296
0.03763180737
0.03749554507
0.03748296922
0.0374539725
0.0374669544
0.03746701132
0.03733126879
0.03731792837
0.03732011256
0.03732877138
0.03733444056
0.03717968238
0.03718521355
0.0371864017
0.03719230345
0.03716620335
0.03705048772
0.03704632058
0.03701650547
0.03704463756
0.03705009933
0.03689080383
0.03692532457
0.03690622687
0.03690748899
0.03688922059
0.0367621917
0.03675282178
0.03678789373
0.03676020609
0.03676414067
0.03661427994
0.03663035806
0.03665737937
0.03662673668
0.03660465914
0.03650059747
0.03648565947
0.03650182226
0.03650974738
0.03648244032
0.03635626597
0.03635918024
0.03635245519
0.03635155298
0.03633768236
0.0362207994
0.03620368623
0.03624363616
0.03622799391
0.03621679371
0.03608589404
0.03608210888
0.0360960249
0.0360737524
0.03609418697
0.03594803549
0.03596520714
0.03596093605
0.03596854991
0.03594911362
0.03582931289
0.03584809314
0.03581198858
0.03583212018
0.0358282975
0.03568718155
0.03570904278
0.03570651574
0.03568854509
0.03569729108
0.03556686381
0.03556542266
0.03556634851
0.03557368493
0.035565888
0.03543475619
0.03545239256
0.0354468452
0.03543468534
0.03542973273
0.03530184561
0.03531335146
0.03531033173
0.03530864877
0.03529862882
0.03518377043
0.03520817636
0.03519542946
0.03516486652
0.0351839157
0.03508205418
0.03506337986
0.03507930237
0.03506664763
0.03505060025
0.0349613368
0.03494928919
0.03493849883
0.03494244434
0.03493268904
0.03482300564
0.03482071875
0.03480919624
0.03482920369
0.03482856931
0.03471279083
0.03469063329
0.03469437584
0.03470108033
0.03470301526
0.03458601037
0.03459723103
0.03458711538
0.03458840332
0.0345889019
0.03447317846
0.03447742809
0.03446634234
0.03448116824
0.03447443741
0.0343645899
0.03437306951
0.03438525729
0.03435574424
0.03436923058
0.03425109745
0.03427314102
0.03423011559
0.03425164283
0.03423026236
0.03412243935
0.03411845879
0.03413941467
0.034102019
0.03413357481
0.03400527374
0.03401043959
0.03401247458
0.03402343886
0.03401838184
0.03388905575
0.03389535486
0.03390790803
0.0338921819
0.03388928746
0.03378031738
0.03378592383
0.03378950182
0.03379514638
0.03377900777
0.03365228733
0.0336630511
0.03367263705
0.03366491206
0.03365861258
0.03356917785
0.03356492455
0.03358482891
0.03356055221
0.03356406868
0.03347000381
0.03344780106
0.03344978049
0.03345468652
0.03345878551
0.0333418586
0.03333308968
0.03335379663
0.03335074788
0.03331486565
0.03324271157
0.03324906231
0.03322576762
0.03322979884
0.03324758564
0.03311966837
0.03311360352
0.03311275226
0.03311953243
0.03311102396
0.03301437269
0.03300554842
0.03299928858
0.03300718261
0.03300848674
0.03288655751
0.03287920785
0.03289226633
0.03292546756
0.03290062721
0.03278060296
0.03278999478
0.03279172663
0.03281715884
0.03277766917
0.03267371906
0.03266505445
0.03268859974
0.03267094631
0.03266939646
0.03258086591
0.03259911934
0.03255362406
0.03258016329
0.03258205604
0.03247695548
0.03247519882
0.0324589313
0.03248155263
0.03248614057
0.03237173548
0.03236106866
0.03234918116
0.03238090864
0.03236090312
0.0322437523
0.03223701247
0.0322512067
0.03225609148
0.03224365325
0.03211785675
0.03213867805
0.03210971262
0.03214142164
0.03213587409
0.03200109916
0.03201639309
0.03201197533
0.03200355642
0.03200454397
0.0318980602
0.03188927251
0.03190735476
0.03188545142
0.0318925676
0.03174603421
0.03174716947
0.03176334926
0.0317539057
0.0317465776
0.03161732832
0.03160227171
0.03161299294
0.03161646755
0.03159471471
)
;

boundaryField
{
    upperWall
    {
        type            calculated;
        value           nonuniform List<scalar> 5(0.03161732832 0.03160227171 0.03161299294 0.03161646755 0.03159471471);
    }
    lowerWall
    {
        type            calculated;
        value           nonuniform List<scalar> 5(0.04777664848 0.04778854104 0.0478053854 0.04776615286 0.04777474553);
    }
    periodicX_half0
    {
        type            cyclic;
    }
    periodicX_half1
    {
        type            cyclic;
    }
    frontAndBack
    {
        type            empty;
    }
}


// ************************************************************************* //
