/*--------------------------------*- C++ -*----------------------------------*\
| =========                 |                                                 |
| \\      /  F ield         | OpenFOAM: The Open Source CFD Toolbox           |
|  \\    /   O peration     | Version:  v1706                                 |
|   \\  /    A nd           | Web:      www.OpenFOAM.com                      |
|    \\/     M anipulation  |                                                 |
\*---------------------------------------------------------------------------*/
FoamFile
{
    version     2.0;
    format      ascii;
    class       volScalarField;
    location    "5";
    object      translationalT_mixture;
}
// * * * * * * * * * * * * * * * * * * * * * * * * * * * * * * * * * * * * * //

dimensions      [0 0 0 1 0 0 0];


internalField   nonuniform List<scalar> 
500
(
2075.722519
2075.599812
2075.6288
2075.652992
2075.506675
2090.400965
2090.949777
2091.154797
2090.49275
2090.41396
2102.789013
2103.363832
2103.371727
2102.878289
2103.211619
2114.953471
2114.900108
2115.007163
2114.332453
2115.182837
2125.788062
2126.021045
2126.311959
2126.178363
2125.8985
2136.683394
2136.199967
2136.240106
2136.251459
2136.658012
2146.849251
2146.316378
2147.091959
2146.66006
2146.633687
2156.829636
2156.952138
2156.494132
2156.565474
2156.899385
2165.887188
2166.224085
2165.810475
2166.242786
2166.042419
2175.723636
2175.954291
2175.503724
2175.762306
2175.480831
2184.791964
2185.625466
2185.502645
2185.617008
2185.695785
2195.180459
2194.423699
2194.62051
2195.248476
2194.883837
2203.646281
2203.920437
2204.611901
2204.026186
2203.688971
2212.732409
2213.059356
2213.260109
2212.969267
2212.54685
2221.899378
2221.984715
2221.860334
2221.569
2222.00974
2231.415487
2230.902282
2230.851996
2230.422517
2231.328712
2240.079054
2240.020026
2240.737737
2240.599443
2240.123291
2249.523157
2249.36248
2249.069486
2249.042384
2249.143285
2258.49161
2258.081895
2258.102263
2258.011419
2258.70624
2266.684871
2267.305599
2267.169547
2267.368143
2267.001188
2275.803937
2275.6515
2276.361601
2276.539863
2275.926759
2285.005715
2284.836099
2284.448828
2285.05006
2285.088819
2293.059014
2293.150941
2293.45634
2293.4192
2294.163627
2302.581291
2301.932284
2302.111639
2302.205217
2302.585825
2310.752578
2310.64316
2310.862675
2310.322956
2310.135086
2319.218191
2319.725139
2319.654537
2319.209798
2319.029595
2328.379403
2327.780711
2328.450914
2328.080171
2328.66239
2337.550944
2337.076731
2337.394522
2337.056124
2336.597414
2345.755892
2345.847791
2344.85805
2345.905745
2345.89247
2354.33452
2353.790757
2354.178318
2354.037703
2353.834321
2362.235705
2362.972411
2362.79626
2362.497589
2363.174149
2371.94591
2370.90562
2371.233945
2371.622581
2371.091261
2379.710421
2379.569613
2379.267585
2379.896002
2379.445739
2387.664646
2388.679415
2388.736835
2388.260212
2387.517495
2396.097698
2396.680944
2397.106743
2396.677157
2396.573569
2404.556948
2404.364151
2404.36594
2404.954378
2404.696152
2413.400757
2413.378003
2412.622354
2412.433704
2413.060782
2421.969617
2421.432383
2420.825164
2421.008738
2421.474044
2430.048085
2429.914278
2429.802275
2429.323615
2430.347907
2437.936489
2438.388571
2437.848361
2437.708092
2438.035378
2446.02833
2446.751467
2446.131737
2446.076118
2446.346992
2453.901606
2454.19452
2454.419906
2454.060778
2454.586327
2462.787951
2462.264989
2462.842953
2462.417774
2463.047473
2470.489434
2470.456639
2471.210651
2470.933536
2470.918076
2478.653635
2479.082946
2479.455806
2478.842448
2478.677183
2486.150892
2486.190906
2486.566374
2486.527574
2486.097888
2495.194383
2494.464298
2494.747766
2494.777288
2494.431414
2502.286636
2502.253385
2501.885262
2502.251739
2502.380606
2510.323262
2511.00528
2510.171834
2510.13693
2510.986426
2518.564712
2519.123012
2518.774169
2518.296732
2519.513234
2527.146041
2526.991299
2527.01297
2527.160258
2527.112192
2534.776694
2534.544411
2535.277726
2535.170528
2534.181654
2542.788438
2542.914685
2543.232446
2542.619838
2542.628974
2550.615926
2551.170374
2551.016741
2551.448443
2550.398999
2558.600751
2558.411915
2558.257599
2558.521457
2558.327229
2566.57096
2566.035911
2565.850404
2565.743214
2566.236925
2574.437706
2574.355557
2574.661541
2573.826686
2573.672144
2581.791368
2582.531476
2582.270812
2581.505811
2582.041547
2589.72148
2589.210465
2590.124125
2589.221843
2589.402715
2597.438468
2597.813577
2597.166572
2597.354498
2597.256594
2604.57096
2604.663645
2605.500522
2605.187071
2605.509281
2612.974429
2613.312456
2612.915673
2612.675135
2613.761949
2620.012716
2620.082227
2620.564589
2621.610143
2620.120528
2627.990231
2627.814483
2628.871204
2628.423491
2628.569006
2635.940819
2635.716597
2636.728077
2636.425881
2636.399661
2644.017169
2644.349325
2643.976835
2643.862586
2644.446235
2651.739713
2651.600231
2651.667523
2652.189833
2652.342977
2659.30512
2659.091673
2659.37279
2659.344277
2658.261709
2666.925119
2667.147883
2666.646505
2667.016298
2666.792677
2673.482377
2674.640977
2674.153896
2674.097136
2674.071382
2681.445087
2681.726669
2681.83606
2681.976955
2681.958255
2688.61207
2688.74807
2688.830096
2688.547706
2689.507213
2696.803808
2696.477759
2696.747779
2696.94677
2696.539344
2704.141025
2704.493287
2703.600019
2704.127474
2703.841252
2711.745956
2712.555831
2711.485237
2711.584163
2711.711467
2719.46047
2718.72682
2718.930107
2719.948153
2718.76403
2726.644495
2727.087606
2727.177014
2726.975249
2726.307332
2734.338338
2734.877569
2734.847879
2734.425148
2734.067843
2742.833546
2741.984015
2742.238126
2742.154233
2742.08631
2749.872094
2749.95669
2750.477862
2749.838433
2749.582531
2757.040823
2757.554041
2757.223716
2758.203978
2758.039415
2765.128128
2764.267479
2764.455054
2764.777486
2765.00717
2774.097476
2772.999824
2772.97372
2773.192179
2773.030079
2780.093645
2779.758001
2780.355395
2780.447118
2779.768969
2788.386684
2787.806068
2787.263838
2787.714223
2788.477242
2795.988456
2796.312723
2795.667634
2795.462087
2795.857411
2803.699782
2803.436238
2804.237502
2803.968709
2803.197149
2811.299793
2811.646515
2811.538757
2811.199485
2811.101495
2818.228449
2818.82267
2818.300663
2817.934282
2819.011246
2826.222954
2826.769793
2825.987812
2826.547261
2827.01687
2833.578372
2834.108344
2834.760391
2834.616828
2834.600946
2842.234406
2842.622809
2842.503524
2841.898155
2842.401815
2850.696952
2850.591367
2850.481067
2850.393777
2850.017045
2858.041769
2858.158425
2858.886655
2859.248157
2858.938374
2866.64798
2866.689804
2867.054347
2866.731436
2867.657722
2875.980447
2875.222313
2875.484416
2875.716276
2874.893348
2884.648564
2884.266686
2885.088867
2883.743149
2884.292145
2894.41518
2894.497385
2893.947644
2894.010607
2892.647538
2904.210024
2904.596633
2904.701204
2904.097129
2903.906791
2916.487903
2916.433961
2916.065632
2916.368263
2917.324419
)
;

boundaryField
{
    upperWall
    {
        type            calculated;
        value           nonuniform List<scalar> 5(2926.687132 2925.935591 2924.254776 2925.90344 2930.178431);
    }
    lowerWall
    {
        type            calculated;
        value           nonuniform List<scalar> 5(2064.087351 2065.711968 2064.665652 2065.044519 2063.722747);
    }
    periodicX_half0
    {
        type            cyclic;
    }
    periodicX_half1
    {
        type            cyclic;
    }
    frontAndBack
    {
        type            empty;
    }
}


// ************************************************************************* //
