/*--------------------------------*- C++ -*----------------------------------*\
| =========                 |                                                 |
| \\      /  F ield         | OpenFOAM: The Open Source CFD Toolbox           |
|  \\    /   O peration     | Version:  v1706                                 |
|   \\  /    A nd           | Web:      www.OpenFOAM.com                      |
|    \\/     M anipulation  |                                                 |
\*---------------------------------------------------------------------------*/
FoamFile
{
    version     2.0;
    format      ascii;
    class       volScalarField;
    location    "5";
    object      translationalT_O2;
}
// * * * * * * * * * * * * * * * * * * * * * * * * * * * * * * * * * * * * * //

dimensions      [0 0 0 1 0 0 0];


internalField   nonuniform List<scalar> 
500
(
2076.904363
2076.551456
2076.691912
2077.506404
2075.468217
2092.734141
2091.133168
2091.570221
2090.331236
2091.476982
2103.570314
2103.763427
2103.898455
2103.802339
2103.833303
2115.560379
2115.180251
2115.544288
2115.140589
2115.871351
2125.983945
2127.033026
2127.539507
2127.100665
2126.197956
2136.613394
2137.39635
2137.718381
2136.898249
2136.907399
2147.136889
2146.790958
2147.519401
2147.119497
2146.762813
2157.478794
2157.913055
2157.377779
2157.22117
2158.030566
2166.088011
2166.556407
2166.644295
2166.481222
2167.299984
2175.976441
2175.442619
2175.775233
2177.43363
2176.836465
2185.955093
2185.065328
2185.754368
2186.819933
2186.898792
2196.191407
2195.005997
2195.750772
2195.94829
2195.816583
2204.365236
2204.006798
2206.13062
2204.426142
2203.900933
2214.769038
2213.724445
2214.234757
2214.17274
2212.258125
2222.671438
2222.106887
2222.601381
2221.782745
2223.26425
2231.763207
2231.987427
2230.88795
2229.872789
2230.720762
2241.195934
2241.129782
2240.167855
2240.230626
2239.30919
2249.669002
2249.197623
2249.502143
2249.360261
2249.794283
2258.412602
2258.428704
2256.92726
2258.449105
2258.261552
2267.219289
2268.812047
2267.704596
2267.172063
2265.782039
2275.945031
2275.67571
2275.747401
2277.178459
2276.177018
2285.23214
2285.46884
2286.042373
2285.876128
2285.717121
2294.233107
2293.17493
2294.081811
2294.416831
2293.133152
2304.028043
2302.777799
2303.026465
2302.885836
2302.976037
2310.980281
2310.822638
2310.099381
2309.538508
2309.943015
2319.680106
2320.90931
2319.11143
2319.934808
2319.591024
2327.996055
2328.742074
2327.798985
2326.645062
2328.093314
2338.013604
2336.415849
2338.31164
2336.400031
2336.415654
2345.911861
2346.091506
2345.106083
2345.943702
2345.172879
2354.458452
2355.400283
2355.020554
2353.715036
2354.241208
2362.219046
2363.672791
2361.888038
2362.126712
2363.120948
2372.612432
2370.538647
2371.401704
2371.688728
2371.393038
2379.705756
2379.47157
2379.922804
2378.899892
2379.762583
2387.29658
2390.053381
2388.72872
2386.92683
2386.990839
2396.013556
2396.783409
2397.584454
2395.716869
2395.638024
2403.807047
2403.566573
2402.792116
2403.638745
2404.126401
2412.941047
2412.627856
2410.78753
2410.805067
2411.199753
2422.689742
2421.012833
2419.978606
2420.890647
2420.500761
2430.410622
2430.632795
2430.099498
2429.603786
2429.775485
2437.654916
2437.779865
2437.959178
2436.707882
2436.4774
2444.325604
2446.95539
2446.932683
2445.445367
2445.671477
2454.516289
2454.244527
2453.228364
2455.039765
2454.37142
2462.479182
2462.536599
2462.735457
2462.886677
2462.34149
2470.971183
2470.608147
2471.251492
2470.016525
2470.349928
2478.851027
2479.543421
2480.344538
2478.505212
2477.19335
2486.871149
2487.125607
2486.452731
2485.477892
2486.01845
2496.136978
2493.767659
2495.487222
2496.005635
2494.831664
2503.420457
2502.313439
2501.862221
2502.735356
2503.406205
2510.672713
2511.217394
2509.557561
2510.327678
2513.408645
2519.868639
2519.639182
2519.127648
2518.602861
2520.858778
2526.104149
2524.809852
2526.806077
2527.726358
2529.006508
2533.339947
2534.781734
2535.424404
2535.44702
2533.852063
2541.529511
2543.246463
2542.726515
2542.429829
2541.33536
2549.446392
2551.228615
2550.944469
2552.341548
2549.291145
2558.294473
2558.113577
2558.853072
2559.259784
2557.906413
2567.150486
2566.451017
2565.841764
2566.970657
2566.166811
2573.797718
2575.130766
2575.022261
2574.763472
2574.071881
2582.341222
2583.738963
2581.972667
2582.11138
2582.798911
2590.196848
2589.493079
2590.74367
2589.048017
2589.363175
2596.774415
2597.695907
2595.733943
2596.997102
2596.489983
2604.736918
2605.374696
2604.331924
2605.40472
2606.661137
2612.962116
2613.911307
2613.015104
2613.544422
2616.208434
2619.73732
2620.982258
2622.173101
2622.468995
2621.450261
2629.601643
2628.044375
2629.17231
2629.78576
2629.214419
2635.625959
2637.299507
2638.179481
2637.69696
2637.556007
2644.957561
2644.35224
2643.683644
2643.242901
2644.498326
2652.769331
2652.452961
2651.613593
2652.534083
2652.430475
2659.341866
2659.626724
2661.024554
2660.655772
2658.731738
2666.456145
2667.806597
2668.507901
2670.23501
2667.623575
2676.650841
2676.041403
2674.542609
2675.058705
2675.107246
2681.823377
2681.96974
2681.291052
2681.98532
2682.838188
2687.837308
2688.819145
2689.249476
2689.016683
2689.500098
2696.542927
2697.419872
2697.66826
2697.157973
2696.812978
2704.130931
2704.659562
2704.772378
2703.140204
2704.456343
2710.887022
2712.676814
2711.286054
2711.51346
2712.750066
2719.005939
2719.011404
2718.213122
2719.873954
2718.207642
2725.818531
2725.793181
2727.208531
2727.617242
2725.334743
2733.597853
2734.36376
2733.968155
2734.984794
2734.199534
2743.434132
2740.994715
2741.490581
2740.795804
2741.352521
2751.023208
2749.278605
2749.476016
2748.157692
2747.858407
2755.587391
2756.562302
2756.655674
2758.282348
2757.355707
2764.372691
2764.132567
2764.0109
2761.990516
2764.734177
2774.595661
2774.981583
2774.523176
2772.403859
2773.720704
2780.360819
2779.559567
2781.626656
2780.207703
2780.68219
2789.666856
2787.769734
2787.722199
2787.104038
2788.158485
2795.638415
2794.770082
2795.706535
2795.411591
2794.711613
2802.619909
2801.111031
2802.699839
2803.62532
2802.202921
2810.574655
2810.597496
2809.849352
2810.47004
2809.934364
2816.40108
2818.530467
2817.90953
2816.037206
2818.080599
2825.259165
2826.777137
2825.385629
2824.887293
2827.120348
2833.145261
2835.719962
2834.415858
2833.136421
2833.230731
2841.787296
2842.477896
2844.02797
2841.79743
2841.103419
2849.915711
2850.833726
2851.75922
2851.156892
2849.942907
2857.188356
2857.037516
2858.11579
2859.866567
2858.496855
2864.487012
2865.76684
2865.371696
2866.01774
2866.432911
2874.816381
2873.031845
2872.462643
2873.52579
2873.093046
2881.942106
2883.448919
2885.053101
2882.69311
2882.894405
2893.829968
2893.030374
2892.363314
2891.725791
2890.917997
2901.237806
2902.383525
2903.104868
2903.171534
2901.832296
2914.11385
2913.599027
2912.980396
2914.932713
2914.574691
)
;

boundaryField
{
    upperWall
    {
        type            calculated;
        value           nonuniform List<scalar> 5(2923.777155 2924.631444 2918.806228 2924.065718 2922.582892);
    }
    lowerWall
    {
        type            calculated;
        value           nonuniform List<scalar> 5(2065.480732 2067.213252 2066.587805 2066.811505 2065.057498);
    }
    periodicX_half0
    {
        type            cyclic;
    }
    periodicX_half1
    {
        type            cyclic;
    }
    frontAndBack
    {
        type            empty;
    }
}


// ************************************************************************* //
