/*--------------------------------*- C++ -*----------------------------------*\
| =========                 |                                                 |
| \\      /  F ield         | OpenFOAM: The Open Source CFD Toolbox           |
|  \\    /   O peration     | Version:  v1706                                 |
|   \\  /    A nd           | Web:      www.OpenFOAM.com                      |
|    \\/     M anipulation  |                                                 |
\*---------------------------------------------------------------------------*/
FoamFile
{
    version     2.0;
    format      ascii;
    class       volScalarField;
    location    "5";
    object      Trot_mixture;
}
// * * * * * * * * * * * * * * * * * * * * * * * * * * * * * * * * * * * * * //

dimensions      [0 0 0 1 0 0 0];


internalField   nonuniform List<scalar> 
500
(
2065.889474
2065.264403
2065.875208
2065.612419
2065.530308
2081.386675
2082.043267
2081.399101
2081.640026
2082.122975
2095.705113
2095.40339
2095.216088
2095.152279
2095.02035
2106.051536
2106.868946
2107.53366
2107.056211
2106.737366
2117.709441
2118.03326
2118.256218
2118.692925
2118.349368
2129.244402
2129.586309
2129.292443
2128.863063
2129.764067
2139.951222
2140.101209
2139.735207
2139.628942
2140.028416
2150.06282
2150.496339
2150.984588
2150.12486
2149.600917
2160.301326
2160.868811
2160.873712
2160.854046
2160.53814
2170.591912
2170.280953
2170.742996
2170.58305
2170.172115
2180.632719
2180.057134
2180.363156
2179.872531
2180.340643
2190.326015
2189.385254
2189.925433
2189.862984
2190.585199
2199.392324
2199.673387
2199.786525
2200.419318
2200.318119
2209.05267
2208.685159
2208.795541
2209.481779
2209.738496
2218.318582
2218.478821
2218.531586
2218.85166
2218.833216
2227.9028
2227.973663
2228.152761
2228.189939
2228.745752
2237.164867
2237.283448
2237.149864
2238.434345
2237.327252
2247.013097
2246.509664
2247.186571
2246.283655
2246.620557
2255.873101
2255.768511
2255.48855
2255.875283
2256.179405
2264.816058
2264.775359
2263.88375
2264.123899
2264.570925
2273.583403
2274.067386
2273.287811
2273.818235
2273.662519
2282.726102
2282.633488
2282.881694
2282.399902
2282.006335
2291.754827
2291.193471
2290.977887
2291.780738
2291.068398
2300.01892
2300.612822
2299.613444
2300.127551
2299.64332
2308.437459
2309.322605
2309.772264
2308.944871
2308.975198
2318.087516
2318.49156
2318.041563
2318.216448
2316.365924
2326.079735
2326.128183
2326.728408
2326.166158
2326.655243
2335.370656
2335.193906
2335.421239
2334.951806
2335.034097
2343.295201
2344.158497
2343.499642
2343.43591
2343.641986
2351.247504
2351.758698
2352.812195
2352.268151
2351.734831
2359.335637
2360.683524
2361.88022
2361.327884
2360.960739
2369.784749
2369.522278
2369.719232
2369.295835
2369.751643
2378.750255
2378.745145
2379.172283
2378.187899
2378.496576
2386.899899
2386.671265
2387.509593
2387.230451
2386.815024
2395.614279
2395.788387
2396.429451
2395.425543
2395.968522
2404.047991
2403.903552
2403.768886
2404.283474
2403.59718
2412.57862
2411.957551
2412.294552
2412.638521
2412.70623
2420.647119
2420.14327
2419.23966
2420.392992
2420.370941
2427.411355
2428.747512
2429.087962
2428.913659
2429.052284
2436.673985
2437.391341
2437.088554
2436.450754
2436.375808
2445.437408
2445.21146
2445.936771
2445.565966
2445.716863
2453.975779
2453.27798
2453.232356
2453.273779
2453.469725
2461.368178
2461.680497
2460.756275
2462.032259
2461.604842
2469.955534
2469.194928
2469.723472
2468.754307
2470.276294
2477.842384
2477.94985
2477.859724
2478.694503
2477.900613
2485.844658
2486.547238
2486.44992
2485.740825
2486.301277
2493.891958
2494.75431
2493.727618
2493.607828
2494.337745
2502.636137
2502.421901
2501.464739
2501.4846
2501.680024
2510.353588
2509.806091
2510.011682
2509.214898
2508.942356
2518.661967
2518.160752
2517.223768
2517.560165
2517.925421
2526.430963
2526.981641
2526.903594
2526.204685
2526.642742
2534.595885
2534.118997
2533.898986
2534.524847
2534.272921
2543.138221
2542.876435
2543.1003
2542.062523
2542.081077
2550.011879
2550.462296
2550.538832
2549.52482
2550.574768
2558.431735
2558.799145
2558.453114
2558.475637
2557.871132
2566.144884
2565.722217
2566.567828
2566.150893
2566.334048
2573.609901
2574.060288
2573.808564
2574.040168
2575.389615
2581.840626
2581.696786
2581.762423
2581.608169
2582.0502
2589.058604
2589.328264
2589.978093
2590.59815
2591.200826
2597.27936
2597.590311
2597.611542
2598.374549
2598.141946
2606.334098
2606.712972
2606.619159
2605.880783
2605.958783
2614.633986
2614.080643
2613.381916
2614.414131
2613.829399
2621.495795
2621.634704
2621.632675
2622.492875
2621.999761
2629.09908
2628.142866
2629.04302
2628.730918
2629.304465
2637.590521
2637.153854
2637.43075
2636.832464
2637.190563
2643.988298
2643.813096
2644.758808
2643.875051
2643.914782
2651.816665
2651.620601
2652.524189
2651.89653
2652.075427
2659.752311
2659.11759
2660.133284
2659.914426
2659.802799
2667.832565
2668.183832
2667.226776
2666.956877
2668.435165
2676.10346
2675.312583
2675.604413
2675.323882
2675.151567
2682.98568
2683.985392
2682.981454
2682.871367
2682.452245
2690.687511
2690.029281
2690.206618
2689.518732
2690.379041
2698.67001
2698.727095
2698.86548
2698.890525
2698.900316
2706.703034
2706.357262
2707.202017
2707.27388
2705.829615
2713.972122
2714.221941
2714.113487
2713.932259
2713.623608
2721.72607
2721.753575
2721.820782
2722.285145
2721.519117
2729.196135
2728.842942
2729.007981
2729.368051
2729.606248
2737.043803
2736.979797
2736.749923
2737.168512
2737.862411
2744.50582
2745.337593
2744.447653
2744.883476
2745.105061
2752.640593
2752.353931
2752.421906
2752.365097
2751.919552
2759.880406
2760.071608
2759.921371
2759.231805
2759.827959
2767.419154
2767.214057
2767.520919
2767.112921
2767.012252
2774.876107
2775.367102
2775.935454
2775.24419
2773.646948
2783.156116
2783.048287
2782.165006
2782.480434
2781.860854
2790.154649
2790.159134
2790.052053
2790.196811
2790.270787
2798.214326
2798.846351
2798.614343
2798.27511
2797.675714
2805.83941
2806.836664
2805.944881
2806.042525
2805.729665
2814.634605
2815.228457
2814.431577
2814.848797
2814.357121
2822.993798
2823.764486
2824.026174
2823.442899
2823.081401
2832.070749
2831.043149
2831.545548
2830.828073
2831.637731
2838.757591
2839.614028
2839.555048
2839.596351
2840.219118
2848.316713
2847.884091
2846.999383
2847.199754
2848.24556
2855.999047
2856.712126
2856.522699
2856.693977
2856.555026
2864.89744
2864.377215
2864.670777
2865.930451
2864.32317
2873.434291
2873.429946
2873.655674
2872.660078
2873.136524
2882.368351
2881.732044
2881.90738
2882.530849
2882.670882
2891.499739
2891.92601
2891.71322
2892.154034
2892.340165
2903.08037
2902.010882
2902.247682
2902.599696
2902.069852
2913.246499
2912.66086
2912.457177
2913.283934
2912.96934
2926.347305
2926.854166
2926.075778
2926.610439
2925.840963
)
;

boundaryField
{
    upperWall
    {
        type            calculated;
        value           nonuniform List<scalar> 5(2937.58315 2936.798484 2936.021985 2936.851045 2935.307);
    }
    lowerWall
    {
        type            calculated;
        value           nonuniform List<scalar> 5(2055.490895 2052.523932 2052.359343 2053.896356 2052.684443);
    }
    periodicX_half0
    {
        type            cyclic;
    }
    periodicX_half1
    {
        type            cyclic;
    }
    frontAndBack
    {
        type            empty;
    }
}


// ************************************************************************* //
