/*--------------------------------*- C++ -*----------------------------------*\
| =========                 |                                                 |
| \\      /  F ield         | OpenFOAM: The Open Source CFD Toolbox           |
|  \\    /   O peration     | Version:  v1706                                 |
|   \\  /    A nd           | Web:      www.OpenFOAM.com                      |
|    \\/     M anipulation  |                                                 |
\*---------------------------------------------------------------------------*/
FoamFile
{
    version     2.0;
    format      ascii;
    class       volScalarField;
    location    "5";
    object      Trot_O2;
}
// * * * * * * * * * * * * * * * * * * * * * * * * * * * * * * * * * * * * * //

dimensions      [0 0 0 1 0 0 0];


internalField   nonuniform List<scalar> 
500
(
2067.714471
2067.296597
2067.243384
2067.655604
2068.732767
2084.432359
2084.123172
2083.878066
2084.565882
2085.426218
2098.780582
2097.538481
2097.068158
2097.784679
2098.2853
2108.70094
2110.199669
2110.189615
2109.196843
2109.563906
2119.952528
2121.37899
2120.40722
2120.983906
2121.12608
2130.652192
2131.579955
2131.679184
2129.76155
2131.497011
2141.961729
2141.349965
2141.409991
2140.503773
2140.518451
2152.011446
2152.086765
2151.312204
2152.447296
2150.506571
2160.652403
2162.561982
2161.73634
2162.898422
2163.326615
2172.90348
2173.196828
2172.379645
2172.595008
2172.407476
2180.886533
2181.435525
2182.755775
2179.969991
2182.899802
2192.049024
2192.549855
2191.552144
2190.485697
2192.562968
2201.01224
2201.232743
2201.149596
2201.697397
2203.044051
2207.850195
2210.237863
2209.549578
2210.621696
2210.217103
2218.959599
2219.793009
2219.493432
2220.953016
2219.558297
2228.69676
2229.484903
2230.584425
2229.398354
2229.04113
2237.728008
2238.05929
2237.130358
2240.227476
2237.583612
2248.91628
2248.036715
2248.258736
2247.569585
2247.291451
2256.277545
2257.273054
2255.616147
2256.108417
2256.147743
2265.867588
2265.978695
2262.585054
2265.237812
2264.690297
2274.154218
2274.401955
2274.005504
2273.957235
2273.369307
2282.47842
2282.654937
2282.069001
2281.34156
2281.775207
2293.441404
2290.743496
2289.472786
2291.217308
2292.439285
2299.552515
2300.758916
2298.562659
2300.180305
2298.852239
2307.74024
2308.327313
2309.864792
2307.993087
2307.228634
2318.706869
2318.165088
2317.83327
2318.147248
2315.404972
2326.901629
2324.956596
2327.506319
2326.890084
2327.804422
2335.343299
2333.891562
2334.229605
2334.664445
2333.873897
2342.956691
2341.884291
2342.011007
2342.478699
2342.084957
2348.466646
2351.532693
2353.213431
2351.524124
2351.310961
2357.834449
2361.240947
2361.510552
2360.197853
2359.919915
2367.086413
2369.165617
2369.669672
2369.351556
2368.454587
2379.197106
2378.492986
2378.449777
2376.570369
2377.988571
2385.499043
2385.07293
2387.019433
2386.762766
2385.48777
2395.649574
2395.599422
2395.766083
2395.236207
2394.892934
2402.142848
2402.748109
2403.447637
2404.280056
2403.716925
2409.823851
2410.166846
2410.609543
2411.700334
2412.356818
2419.89062
2419.578168
2418.390094
2420.139907
2420.400215
2427.72207
2428.171342
2429.407871
2428.034866
2427.041043
2435.220071
2435.946021
2437.340266
2436.68667
2436.146318
2443.858086
2444.803233
2445.031472
2443.775096
2444.788797
2452.462981
2453.808085
2452.553317
2453.083487
2452.873491
2459.824191
2463.150578
2460.276323
2462.498926
2461.017476
2469.922771
2471.115085
2472.020523
2469.767839
2469.598647
2478.158532
2478.495428
2478.611059
2479.515698
2476.31931
2485.157146
2487.011608
2486.719627
2484.528569
2486.184901
2491.980426
2494.107517
2492.501281
2491.848086
2492.870222
2501.05319
2499.953968
2500.804476
2501.606261
2501.920255
2507.824028
2508.62088
2509.959901
2509.697593
2507.347564
2517.209172
2517.402968
2516.170549
2515.987716
2516.760151
2526.480076
2525.674163
2526.16806
2525.819197
2525.777813
2533.399795
2533.97657
2535.795624
2533.536526
2533.752675
2542.085492
2542.135709
2543.062366
2540.534284
2541.793657
2548.816249
2551.295503
2551.10427
2548.173688
2549.041463
2558.564695
2558.855465
2557.264698
2557.047133
2555.891366
2565.633733
2566.704358
2567.960384
2565.505686
2565.295863
2571.993746
2574.313158
2574.822975
2572.785005
2574.631229
2583.157848
2583.177564
2581.003967
2581.691102
2580.324697
2590.844519
2589.02448
2590.283486
2591.575647
2590.918831
2597.387468
2598.092995
2597.3222
2597.741713
2596.693128
2605.699087
2606.049242
2605.828242
2604.413544
2604.925163
2611.984268
2613.182699
2612.280765
2613.605352
2612.731074
2619.955964
2621.33463
2621.383609
2621.144354
2620.588186
2627.355958
2626.886645
2628.626881
2628.028057
2627.211763
2636.66748
2635.480628
2635.668712
2635.778785
2636.390581
2643.577312
2642.391399
2645.186137
2644.98228
2641.048699
2651.366747
2652.672034
2651.519835
2651.736293
2652.164773
2659.35911
2659.344419
2660.924641
2659.312648
2659.152877
2668.293376
2669.36533
2667.151089
2666.683981
2666.642899
2677.536354
2673.330554
2675.846076
2675.018898
2675.247425
2683.172457
2682.300767
2682.856621
2682.109971
2681.849642
2689.719326
2690.219708
2689.14405
2688.104773
2689.617272
2697.948978
2697.446393
2695.542569
2698.081883
2697.876112
2706.237655
2704.791296
2705.324668
2706.611655
2705.577314
2710.742678
2711.983379
2714.717257
2713.772309
2713.353348
2719.172619
2719.942508
2723.417555
2725.145619
2720.76004
2729.158694
2728.635554
2729.312402
2730.547024
2730.037373
2738.279397
2737.617507
2736.54044
2737.54487
2739.384115
2745.909989
2746.42479
2746.16062
2748.192645
2746.259863
2753.177782
2754.003245
2753.615054
2752.34279
2751.335651
2761.010664
2759.853745
2758.204078
2760.775822
2761.120142
2766.313488
2766.493908
2765.848781
2766.649266
2766.617708
2773.692227
2773.99264
2776.334118
2772.428196
2773.103327
2783.609917
2782.385893
2781.877949
2782.594606
2780.940185
2788.182002
2788.093727
2789.997033
2788.88762
2789.606777
2796.417095
2797.293298
2797.543389
2797.199378
2795.884175
2802.060665
2806.149093
2804.383568
2804.19541
2802.814785
2813.673791
2815.099931
2813.896042
2814.556319
2812.591791
2823.468683
2823.478151
2825.328209
2823.070027
2820.71144
2832.509492
2833.646805
2831.917169
2830.184875
2829.892969
2838.702529
2838.648114
2840.007436
2838.442598
2839.412363
2847.286081
2847.337698
2845.566059
2846.040931
2847.606614
2857.168989
2851.925974
2854.371963
2855.983627
2856.665226
2863.865045
2860.031951
2861.224123
2863.588293
2863.841857
2871.698514
2871.358211
2872.459867
2871.058448
2870.216092
2880.30552
2882.573647
2880.645329
2878.965816
2881.441946
2889.528873
2888.891229
2890.413083
2889.664529
2887.913197
2899.063813
2900.438166
2902.198389
2899.47499
2897.541489
2910.483785
2910.58334
2910.231107
2912.61715
2910.096223
2924.711694
2923.388257
2923.382188
2925.619895
2923.342813
)
;

boundaryField
{
    upperWall
    {
        type            calculated;
        value           nonuniform List<scalar> 5(2938.388524 2939.014671 2931.221469 2938.303065 2931.516212);
    }
    lowerWall
    {
        type            calculated;
        value           nonuniform List<scalar> 5(2057.835273 2054.233968 2054.449209 2056.483238 2055.664784);
    }
    periodicX_half0
    {
        type            cyclic;
    }
    periodicX_half1
    {
        type            cyclic;
    }
    frontAndBack
    {
        type            empty;
    }
}


// ************************************************************************* //
