/*--------------------------------*- C++ -*----------------------------------*\
| =========                 |                                                 |
| \\      /  F ield         | OpenFOAM: The Open Source CFD Toolbox           |
|  \\    /   O peration     | Version:  v1706                                 |
|   \\  /    A nd           | Web:      www.OpenFOAM.com                      |
|    \\/     M anipulation  |                                                 |
\*---------------------------------------------------------------------------*/
FoamFile
{
    version     2.0;
    format      ascii;
    class       volScalarField;
    location    "5";
    object      Ttra_O2;
}
// * * * * * * * * * * * * * * * * * * * * * * * * * * * * * * * * * * * * * //

dimensions      [0 0 0 1 0 0 0];


internalField   nonuniform List<scalar> 
500
(
2076.65769
2076.057237
2076.718008
2076.106161
2076.510796
2092.336138
2091.496296
2090.900293
2091.641014
2091.846648
2105.064835
2104.985592
2103.190419
2104.763418
2104.578881
2114.627748
2116.122907
2114.821143
2115.276196
2115.883452
2124.800112
2126.00685
2126.163829
2125.439401
2125.915017
2136.840429
2135.641465
2136.640252
2136.118856
2136.59939
2147.089084
2145.588996
2147.421721
2147.099578
2145.999097
2157.03411
2155.819976
2155.838771
2155.405113
2156.240804
2166.529336
2166.160818
2165.619162
2166.638447
2167.19131
2176.225969
2175.997927
2176.586651
2174.977989
2176.487402
2183.734557
2185.591174
2185.922867
2185.405893
2185.247572
2194.303794
2194.713577
2194.477034
2193.71641
2194.110469
2204.993657
2203.915815
2203.979782
2204.282189
2203.513171
2212.781027
2214.210939
2213.296365
2213.411138
2212.684172
2222.545538
2221.798587
2223.552436
2221.654978
2222.853756
2231.862483
2231.297145
2232.055179
2229.792438
2230.570249
2241.138179
2239.645627
2240.176086
2240.619652
2240.813899
2251.025182
2249.32815
2248.640489
2249.129385
2249.73531
2258.492557
2258.198784
2257.414618
2258.834533
2259.462376
2268.298144
2266.506555
2266.950766
2267.094964
2267.39578
2276.462909
2275.497908
2276.741582
2277.402094
2275.267294
2283.763983
2282.948361
2284.656658
2284.793377
2284.471847
2295.16675
2292.952959
2294.140717
2293.552461
2293.038821
2303.280339
2300.938654
2302.184544
2302.931036
2300.780542
2310.355206
2310.259426
2311.026147
2311.557911
2311.195905
2319.688312
2319.786421
2319.607992
2319.578625
2320.497149
2328.349105
2328.68354
2329.037081
2328.400214
2329.952265
2338.529169
2338.122426
2337.270618
2336.32342
2336.820249
2345.537608
2346.475557
2345.506363
2345.406403
2345.558625
2354.409534
2354.292024
2353.887443
2352.955612
2354.897383
2360.967143
2363.69704
2363.540899
2362.135529
2361.817931
2371.092054
2370.429203
2370.677271
2371.328257
2371.643414
2380.826098
2378.963874
2380.560649
2380.191705
2379.83615
2388.211228
2387.448115
2387.801497
2389.599077
2386.729187
2395.526819
2394.787168
2395.927351
2396.945979
2395.111064
2403.338821
2404.799829
2404.579078
2405.15324
2404.688285
2411.744984
2411.21757
2411.695504
2412.174921
2412.019623
2421.030566
2420.956709
2419.795195
2420.306759
2419.076606
2430.608186
2429.924498
2428.220726
2428.38922
2428.812708
2435.082995
2438.2704
2438.768751
2436.798793
2436.308009
2445.29859
2446.152422
2447.20295
2446.168143
2447.26544
2454.112045
2454.284687
2454.520457
2453.995654
2454.39585
2462.49107
2462.237007
2462.869059
2462.698715
2461.887925
2469.943854
2471.132829
2470.511023
2470.7288
2471.520633
2479.161928
2478.989308
2478.408227
2479.793614
2479.611786
2487.674148
2487.889567
2486.873562
2486.551975
2486.049312
2493.888511
2494.461124
2494.948532
2494.175695
2494.802587
2502.584377
2503.623764
2503.411527
2501.993856
2502.88581
2512.157842
2510.300666
2510.556754
2510.755723
2511.088993
2520.652263
2519.17602
2517.896272
2519.943169
2520.002261
2528.467915
2526.66358
2528.194187
2526.657979
2525.846485
2535.451583
2535.325979
2534.663185
2535.989484
2533.349948
2543.156254
2542.198426
2542.299228
2542.296574
2542.906296
2551.302592
2551.123268
2549.371202
2549.258617
2551.375464
2558.184427
2559.640844
2556.873028
2557.804977
2559.777248
2566.465063
2566.736497
2567.626955
2564.806691
2566.761152
2574.103763
2575.066398
2574.481229
2574.780101
2574.656111
2581.956591
2581.932071
2582.218356
2579.697513
2583.067802
2588.877978
2589.088159
2589.144789
2588.695912
2589.908918
2597.635427
2598.239409
2598.60821
2597.447019
2598.032209
2604.542076
2604.124527
2604.476894
2605.276961
2604.263097
2614.317982
2611.779127
2611.069927
2613.958489
2612.346848
2620.319126
2620.838085
2622.292135
2619.308093
2618.869913
2628.998246
2630.567738
2627.914831
2628.200925
2628.373431
2636.291917
2637.081146
2636.014068
2636.134663
2636.864501
2643.793792
2643.465278
2643.531697
2644.348595
2644.652674
2650.956642
2651.311464
2651.077884
2650.348589
2652.435234
2658.422126
2658.781477
2659.514273
2658.036478
2659.538165
2667.304652
2665.94774
2668.516154
2668.194853
2665.132327
2674.458047
2675.46525
2674.642761
2675.882061
2674.745209
2679.779135
2681.777663
2682.434667
2683.267009
2682.772701
2689.260219
2691.514105
2691.154718
2690.637934
2692.419239
2698.462627
2698.071069
2697.258783
2697.687619
2698.442508
2704.137101
2704.909826
2705.238015
2705.255164
2705.901818
2712.386835
2712.858482
2711.557361
2712.031143
2712.290474
2719.233236
2718.708624
2719.508057
2721.007067
2720.557402
2727.245543
2725.698815
2726.771966
2727.377822
2728.683871
2735.684353
2735.919842
2734.408683
2734.421422
2733.967962
2742.438163
2743.797401
2743.382612
2740.576329
2742.978189
2748.223257
2749.944002
2749.822553
2750.765749
2749.253367
2757.843221
2759.019653
2758.358083
2758.912667
2758.022413
2763.54611
2764.929508
2765.225825
2764.236944
2764.3072
2772.785314
2772.528691
2770.477186
2772.967373
2771.559005
2779.318467
2780.209838
2779.35307
2779.193164
2779.920694
2787.605867
2788.548577
2788.153143
2787.531525
2787.814802
2794.692044
2795.837929
2794.341319
2794.087817
2793.779129
2803.193338
2804.343682
2803.248504
2802.625448
2801.427681
2808.761287
2810.025857
2808.555146
2809.680227
2808.125282
2818.951057
2816.893847
2816.875284
2816.443427
2818.702485
2824.120861
2824.437469
2823.8101
2826.548143
2825.817603
2833.462626
2832.878276
2833.322226
2833.635944
2833.862391
2842.245462
2842.32857
2841.180185
2844.457896
2842.794103
2849.682712
2849.558689
2851.376206
2850.151098
2849.91363
2857.95763
2857.406484
2859.941828
2855.987052
2858.03129
2866.748377
2866.067145
2865.970335
2866.343937
2866.934425
2876.097323
2874.073426
2873.493867
2874.488386
2873.673066
2883.252788
2882.818669
2884.292794
2883.462206
2883.346922
2893.95453
2891.779256
2892.210261
2892.953895
2892.142552
2901.732596
2903.991003
2902.83205
2903.701971
2901.977809
2915.837369
2915.83022
2914.91007
2915.047596
2916.306229
)
;

boundaryField
{
    upperWall
    {
        type            calculated;
        value           nonuniform List<scalar> 5(2919.595843 2923.974421 2922.610221 2923.991406 2925.548951);
    }
    lowerWall
    {
        type            calculated;
        value           nonuniform List<scalar> 5(2063.09908 2062.863246 2063.896062 2065.524575 2064.893855);
    }
    periodicX_half0
    {
        type            cyclic;
    }
    periodicX_half1
    {
        type            cyclic;
    }
    frontAndBack
    {
        type            empty;
    }
}


// ************************************************************************* //
