/*--------------------------------*- C++ -*----------------------------------*\
| =========                 |                                                 |
| \\      /  F ield         | OpenFOAM: The Open Source CFD Toolbox           |
|  \\    /   O peration     | Version:  v1706                                 |
|   \\  /    A nd           | Web:      www.OpenFOAM.com                      |
|    \\/     M anipulation  |                                                 |
\*---------------------------------------------------------------------------*/
FoamFile
{
    version     2.0;
    format      ascii;
    class       volScalarField;
    location    "5";
    object      Tvib_N2;
}
// * * * * * * * * * * * * * * * * * * * * * * * * * * * * * * * * * * * * * //

dimensions      [0 0 0 1 0 0 0];


internalField   nonuniform List<scalar> 
500
(
2059.108818
2059.572822
2059.239039
2059.280287
2059.373258
2073.957782
2074.275431
2074.655763
2074.957776
2073.950571
2086.565995
2086.568754
2087.009313
2086.772107
2086.456631
2098.282459
2098.098552
2099.107942
2098.254611
2098.660276
2109.423942
2109.913451
2109.415913
2109.938986
2109.189407
2120.361187
2119.777747
2120.261328
2120.06804
2119.930941
2131.299527
2130.356164
2130.932697
2130.899847
2130.785108
2140.550791
2141.649679
2140.970187
2141.063326
2141.663934
2151.162779
2151.070592
2151.657884
2151.353732
2152.082637
2161.937986
2161.371098
2161.716583
2161.555025
2161.755639
2171.76197
2171.565747
2171.612727
2171.123812
2172.098934
2181.289155
2181.116562
2180.807585
2181.353798
2181.838623
2191.660252
2192.250066
2192.285421
2191.614957
2191.753318
2201.487798
2201.777587
2202.384032
2201.417034
2201.519168
2213.039091
2211.15574
2210.335626
2210.005312
2210.697506
2221.264214
2220.000976
2220.586109
2219.62495
2222.23943
2230.478231
2229.847572
2230.255995
2229.868989
2230.852816
2239.144129
2239.347666
2239.442746
2240.24634
2240.269162
2249.209117
2249.189688
2250.066089
2249.30135
2249.263277
2259.10651
2258.460606
2258.463321
2259.189695
2258.894528
2268.357447
2268.444364
2268.373908
2269.086688
2268.358919
2278.03455
2277.301442
2277.228913
2278.244832
2277.654874
2287.103988
2286.531816
2286.413066
2288.27475
2287.721756
2295.950632
2296.608681
2296.289154
2296.724456
2297.426295
2305.367383
2305.738877
2305.576038
2305.980525
2306.257885
2314.687178
2314.336345
2314.574649
2314.092926
2315.052078
2325.285051
2324.189268
2323.712346
2324.088621
2324.477389
2333.128307
2334.222289
2332.949572
2333.443408
2332.620028
2342.011444
2342.369583
2342.121274
2342.779783
2342.546723
2351.569609
2351.728267
2350.617647
2351.215959
2351.688979
2359.900175
2360.524965
2359.665549
2360.979484
2360.321689
2369.824978
2368.464819
2370.580137
2370.368454
2369.8248
2378.666298
2378.634707
2379.418274
2378.520557
2377.670979
2388.383431
2387.837469
2387.847484
2387.276425
2387.226224
2398.261586
2397.226419
2397.536858
2395.631316
2396.766453
2407.779971
2406.300378
2405.896109
2405.303781
2406.190123
2415.351617
2415.159842
2415.461083
2414.995388
2415.414203
2423.57497
2424.850614
2423.939888
2423.751153
2423.926862
2432.324471
2432.727773
2432.379844
2433.074038
2431.596612
2441.780943
2441.257266
2441.389602
2441.187405
2440.881917
2450.796388
2450.317075
2450.121282
2449.998518
2449.843456
2458.814474
2458.867157
2458.119087
2458.791795
2458.560114
2467.873089
2467.742237
2466.883386
2467.145777
2467.385014
2475.454918
2476.193956
2474.717513
2476.037831
2476.32024
2483.78482
2484.045063
2484.791453
2485.035576
2484.809379
2493.047588
2492.918557
2492.14014
2493.241887
2493.730862
2502.020302
2501.146498
2501.07816
2501.29897
2501.525887
2509.469116
2510.826732
2510.16235
2509.72932
2509.488292
2518.378447
2518.721073
2518.614463
2517.143061
2518.426367
2527.026785
2527.028157
2526.047939
2526.893607
2526.605915
2534.732753
2533.79319
2535.885837
2534.852471
2534.906445
2543.632097
2542.986506
2543.398868
2543.994895
2543.698525
2551.453197
2551.378436
2551.945225
2553.501772
2552.125289
2560.512373
2561.106945
2560.345168
2561.628894
2561.407942
2569.804546
2570.339803
2568.942179
2568.732753
2569.029427
2576.490561
2576.596832
2577.633617
2577.966322
2578.533526
2585.606537
2585.775768
2586.559549
2585.720785
2586.094263
2593.129939
2593.785335
2593.38016
2593.915047
2594.382836
2602.486549
2602.153964
2602.834315
2602.051316
2602.967494
2610.443362
2611.767231
2611.275739
2611.584914
2610.482715
2618.600008
2619.695419
2618.97781
2618.261471
2618.431063
2627.755941
2628.839563
2626.549802
2626.335967
2627.5537
2636.106357
2635.022896
2635.171153
2635.007669
2634.874456
2643.817778
2643.604457
2644.204965
2644.265274
2644.655307
2651.957812
2651.262568
2652.633427
2652.797028
2652.624788
2658.97519
2659.423496
2659.763941
2659.758835
2659.748204
2668.539902
2667.842211
2667.272009
2667.309128
2669.020957
2676.034692
2676.888908
2675.988919
2676.588805
2676.596583
2684.301932
2684.161992
2684.818012
2682.751205
2683.751484
2691.519239
2691.131528
2691.287344
2691.850503
2691.956041
2699.439985
2698.942272
2699.599494
2699.909637
2699.497961
2707.326536
2708.423943
2708.345492
2706.723477
2707.32436
2715.799371
2716.834316
2717.015743
2715.765361
2715.165436
2723.582796
2725.484894
2724.683489
2723.517985
2724.010927
2732.30914
2731.828583
2731.359321
2731.010242
2732.677962
2739.647608
2740.04341
2738.904398
2739.106588
2740.139265
2747.937989
2747.809909
2747.924186
2748.355126
2748.193028
2755.36291
2756.517529
2755.743058
2754.784209
2755.083668
2763.635981
2763.550583
2762.719188
2763.119878
2761.689816
2770.936264
2769.997902
2770.593685
2772.390666
2771.823149
2779.322127
2778.330645
2778.988428
2779.25221
2778.655514
2788.245727
2786.885165
2786.732394
2787.759563
2787.300775
2794.14568
2795.358072
2794.163629
2794.589326
2795.409971
2802.518057
2802.218813
2803.107602
2802.573475
2802.807122
2810.734164
2811.850115
2811.199536
2809.888742
2810.615381
2817.770434
2817.927676
2818.973349
2819.643232
2818.533384
2825.979854
2825.494407
2826.849317
2827.185693
2825.026385
2833.9635
2832.716352
2833.76574
2834.408968
2834.171989
2840.648995
2840.596107
2841.809382
2840.722638
2841.338819
2848.938152
2849.209824
2846.89371
2848.453316
2849.03116
2857.561155
2856.642364
2855.619415
2856.759209
2856.737361
2864.995837
2864.400645
2865.189492
2864.708356
2865.491143
2873.87196
2873.192827
2872.454226
2874.333294
2873.720861
2883.225114
2881.382606
2880.054344
2883.597152
2881.473521
2889.558191
2889.899866
2889.003616
2890.544226
2889.460741
2897.944663
2897.998987
2897.565196
2898.413853
2898.964973
2906.091721
2906.185942
2905.366388
2906.277715
2906.782104
2916.095401
2915.218497
2915.096794
2916.310589
2916.040199
2924.714467
2926.045916
2925.510606
2925.96248
2926.229918
2937.36745
2938.506479
2937.82654
2937.748173
2936.805572
)
;

boundaryField
{
    upperWall
    {
        type            calculated;
        value           nonuniform List<scalar> 5(2945.253031 2946.195408 2945.975148 2946.228511 2949.932585);
    }
    lowerWall
    {
        type            calculated;
        value           nonuniform List<scalar> 5(2049.821407 2046.148345 2045.881303 2049.538598 2046.974395);
    }
    periodicX_half0
    {
        type            cyclic;
    }
    periodicX_half1
    {
        type            cyclic;
    }
    frontAndBack
    {
        type            empty;
    }
}


// ************************************************************************* //
