/*--------------------------------*- C++ -*----------------------------------*\
| =========                 |                                                 |
| \\      /  F ield         | OpenFOAM: The Open Source CFD Toolbox           |
|  \\    /   O peration     | Version:  v1706                                 |
|   \\  /    A nd           | Web:      www.OpenFOAM.com                      |
|    \\/     M anipulation  |                                                 |
\*---------------------------------------------------------------------------*/
FoamFile
{
    version     2.0;
    format      ascii;
    class       volScalarField;
    location    "5";
    object      Tvib_mixture;
}
// * * * * * * * * * * * * * * * * * * * * * * * * * * * * * * * * * * * * * //

dimensions      [0 0 0 1 0 0 0];


internalField   nonuniform List<scalar> 
500
(
2058.848641
2059.553507
2059.214479
2059.193484
2059.511036
2073.729823
2073.831533
2074.195092
2074.831174
2073.871241
2086.244439
2086.319252
2086.941518
2086.156276
2086.394786
2097.848973
2098.093917
2098.695989
2097.975273
2098.312471
2109.191631
2109.181718
2108.777949
2109.951821
2109.187074
2119.764259
2119.354646
2119.748927
2119.778735
2119.475294
2130.869146
2130.083743
2130.72172
2130.20848
2130.54637
2140.1315
2141.36917
2140.559991
2140.421677
2140.836533
2150.557106
2150.928418
2151.156121
2150.786944
2151.26981
2161.310266
2160.899667
2160.998534
2161.09788
2161.091517
2171.139994
2170.938985
2170.752046
2170.544448
2170.999148
2180.564139
2180.738355
2180.107407
2180.838036
2181.272877
2191.11385
2191.215886
2191.509375
2191.138899
2191.301443
2200.585572
2200.798484
2201.121736
2200.898553
2200.939218
2212.185467
2210.501875
2209.759961
2209.112444
2210.133199
2220.494233
2219.565141
2219.891199
2219.090257
2220.99306
2229.549618
2229.042298
2229.050356
2228.995014
2229.687853
2238.285253
2238.413974
2238.158849
2238.855981
2238.831438
2248.046866
2248.058532
2248.681408
2248.189777
2247.835102
2257.273149
2256.836918
2256.843867
2257.806489
2257.526712
2266.753217
2267.055285
2267.007896
2267.543987
2266.740768
2276.610578
2276.027297
2276.025937
2276.921033
2276.018477
2285.488251
2285.024779
2284.919031
2286.692855
2285.760669
2294.073841
2294.884567
2294.824293
2294.894625
2295.224284
2303.602878
2303.977862
2303.906153
2304.254088
2304.172286
2313.323955
2312.961136
2313.323429
2312.690399
2313.277826
2323.621655
2322.494422
2322.275591
2322.489767
2322.642662
2331.341632
2332.664961
2331.439217
2331.668233
2330.662084
2340.995198
2340.986033
2340.622878
2341.265237
2341.000176
2350.118414
2350.402986
2349.344848
2349.397082
2350.104545
2358.185735
2358.972295
2357.991913
2358.898918
2358.599095
2368.338114
2366.959945
2368.550062
2368.673367
2368.088046
2377.100794
2377.129964
2377.359341
2376.999962
2376.447781
2386.202305
2386.171108
2386.003456
2385.770684
2385.807301
2395.995563
2394.584725
2394.899521
2393.615113
2394.794873
2405.088336
2403.519376
2403.707837
2403.411565
2404.069078
2412.900392
2412.465172
2413.043095
2412.388788
2412.543978
2421.461855
2421.915209
2421.470539
2421.214192
2421.490806
2430.067813
2430.06482
2429.503833
2430.667839
2429.316092
2439.408324
2438.594407
2439.002193
2438.440189
2438.464728
2448.23487
2447.703999
2448.007333
2447.357896
2447.13435
2456.498484
2456.264423
2455.522573
2456.394943
2456.177092
2465.221518
2464.932078
2463.826064
2464.749518
2464.885824
2472.827262
2473.330028
2472.250943
2473.287808
2473.564113
2480.91892
2481.632921
2482.227342
2482.382419
2481.670013
2490.097093
2490.450788
2489.718831
2490.603468
2490.920297
2499.012907
2498.454966
2498.711617
2498.343894
2498.870307
2506.614383
2508.210051
2507.459482
2507.054427
2506.892871
2515.826137
2515.738142
2516.073435
2514.489464
2515.402612
2523.984446
2524.417088
2523.531798
2524.130765
2523.960934
2532.054377
2531.432732
2532.722162
2532.226142
2532.34386
2541.080445
2540.061893
2540.805931
2541.049984
2540.879259
2548.849548
2548.42191
2549.095184
2549.992689
2549.08531
2557.767958
2557.846308
2557.497685
2558.504141
2558.506678
2566.884203
2566.879923
2565.818619
2565.929196
2566.567229
2573.740872
2573.692237
2574.704608
2574.828066
2575.594338
2582.477683
2582.627665
2583.475873
2582.554773
2583.016591
2590.22272
2590.621523
2590.443806
2591.253273
2591.153082
2599.648054
2599.447993
2600.016579
2599.310036
2599.68754
2607.431315
2608.823128
2608.530541
2608.732666
2607.789801
2615.719393
2617.047518
2616.362322
2615.55237
2615.702296
2624.455815
2625.749365
2624.389338
2623.772892
2624.798752
2633.293047
2632.823713
2632.075193
2632.114436
2632.33878
2641.381478
2640.855284
2641.298112
2641.324253
2641.426499
2649.266643
2648.773558
2649.730769
2650.285181
2649.611956
2656.719513
2656.899128
2656.841946
2656.562101
2657.285889
2665.669844
2665.084255
2665.147329
2664.710137
2665.877542
2673.121643
2673.872714
2673.694289
2673.567169
2673.891724
2681.596764
2681.219434
2682.154942
2680.693694
2681.406931
2689.079452
2688.761032
2688.563107
2689.71163
2689.556603
2697.06271
2696.354387
2697.285202
2697.25586
2697.344553
2704.648405
2705.431568
2705.505431
2704.54175
2704.68351
2712.802586
2713.971925
2713.911215
2713.048704
2712.296983
2721.051407
2722.301629
2721.535753
2721.528323
2721.0402
2729.710497
2729.445357
2728.645555
2728.61209
2730.10739
2737.092233
2737.352824
2736.552444
2736.421091
2737.633414
2745.024316
2745.195956
2745.480357
2745.944146
2745.254395
2752.74014
2753.598398
2753.734494
2752.467386
2752.946688
2761.056848
2761.065313
2760.571863
2760.755785
2759.432554
2768.772828
2767.811045
2768.298084
2769.414891
2769.125843
2777.164788
2776.281957
2776.460218
2776.747684
2776.414598
2785.407024
2784.597436
2784.922394
2785.267772
2784.977787
2791.950377
2793.353389
2792.440097
2792.313703
2793.030972
2800.026748
2800.160317
2800.447072
2799.857331
2800.55447
2808.523234
2809.119123
2809.50442
2807.627383
2808.076501
2815.366559
2816.236299
2816.827161
2817.346037
2816.609103
2823.920559
2823.324104
2824.942883
2824.9128
2823.42568
2832.070111
2831.207503
2831.760652
2832.073725
2831.913124
2838.23985
2838.991905
2840.052326
2838.905803
2839.271142
2846.711556
2846.987056
2845.833039
2847.014253
2847.341027
2855.713918
2854.722485
2854.31806
2855.017547
2854.796974
2862.892415
2862.756467
2863.3081
2863.011821
2863.225818
2872.038293
2870.518486
2870.63881
2872.251644
2871.80176
2880.838573
2879.487135
2878.023873
2881.302699
2879.336801
2888.043509
2887.975602
2887.147259
2888.514148
2887.707139
2895.898908
2896.075159
2895.932633
2896.292707
2897.309921
2904.187317
2904.162277
2903.790112
2904.817866
2905.740869
2913.946386
2913.660357
2913.875696
2914.899687
2914.719632
2923.312878
2924.499276
2924.720291
2924.315656
2924.012856
2936.084658
2936.870752
2936.338329
2936.168057
2935.673174
)
;

boundaryField
{
    upperWall
    {
        type            calculated;
        value           nonuniform List<scalar> 5(2944.552567 2945.207382 2944.032997 2943.744845 2947.773018);
    }
    lowerWall
    {
        type            calculated;
        value           nonuniform List<scalar> 5(2049.613726 2046.781855 2045.937301 2049.224402 2047.20909);
    }
    periodicX_half0
    {
        type            cyclic;
    }
    periodicX_half1
    {
        type            cyclic;
    }
    frontAndBack
    {
        type            empty;
    }
}


// ************************************************************************* //
