/*--------------------------------*- C++ -*----------------------------------*\
| =========                 |                                                 |
| \\      /  F ield         | OpenFOAM: The Open Source CFD Toolbox           |
|  \\    /   O peration     | Version:  v1706                                 |
|   \\  /    A nd           | Web:      www.OpenFOAM.com                      |
|    \\/     M anipulation  |                                                 |
\*---------------------------------------------------------------------------*/
FoamFile
{
    version     2.0;
    format      ascii;
    class       volScalarField;
    location    "5";
    object      Tvib_O2;
}
// * * * * * * * * * * * * * * * * * * * * * * * * * * * * * * * * * * * * * //

dimensions      [0 0 0 1 0 0 0];


internalField   nonuniform List<scalar> 
500
(
2057.872087
2059.480975
2059.122243
2058.867435
2060.028125
2072.873863
2072.164972
2072.463924
2074.355665
2073.573222
2085.036704
2085.381952
2086.686723
2083.841545
2086.162467
2096.220365
2098.076487
2097.14647
2096.925082
2097.005454
2108.318185
2106.431602
2106.381268
2110.000026
2109.1783
2117.520849
2117.76335
2117.823647
2118.692012
2117.763856
2129.251983
2129.05994
2129.928337
2127.610225
2129.648895
2138.55654
2140.315022
2139.018646
2138.011839
2137.724916
2148.281777
2150.394107
2149.269816
2148.654749
2148.211946
2158.950991
2159.129215
2158.300275
2159.37936
2158.593398
2168.803431
2168.583348
2167.5187
2168.367219
2166.865324
2177.840409
2179.316338
2177.475322
2178.898555
2179.145436
2189.060635
2187.328508
2188.592357
2189.348896
2189.603428
2197.193007
2197.11704
2196.374084
2198.950747
2198.76002
2208.976753
2208.043143
2207.595402
2205.757028
2208.010983
2217.600806
2217.926183
2217.278931
2217.080508
2216.30971
2226.058479
2226.014643
2224.515732
2225.710056
2225.306278
2235.053984
2234.903263
2233.330775
2233.628704
2233.426179
2243.674827
2243.80399
2243.475363
2244.008595
2242.4683
2250.37661
2250.733452
2250.748139
2252.600268
2252.383654
2260.722615
2261.829389
2261.865398
2261.740869
2260.654387
2271.254484
2271.233563
2271.50174
2271.939973
2269.857339
2279.406823
2279.35636
2279.301143
2280.742124
2278.377701
2287.013584
2288.401569
2289.317505
2288.010926
2286.941971
2296.962014
2297.351891
2297.624797
2297.760325
2296.327495
2308.192508
2307.789027
2308.614989
2307.411771
2306.597406
2317.356626
2316.112934
2316.866196
2316.473882
2315.72876
2324.613961
2326.799093
2325.754495
2324.99135
2323.296054
2337.168771
2335.778586
2334.979314
2335.564129
2335.178478
2344.654396
2345.409969
2344.550755
2342.544188
2344.136592
2351.725377
2353.125091
2351.685014
2351.067643
2352.109836
2362.739726
2361.289773
2360.907219
2362.290917
2361.549555
2371.203639
2371.459209
2369.604422
2371.270242
2371.840321
2377.979861
2379.89708
2379.05554
2380.09896
2380.461341
2387.463852
2384.630742
2384.963158
2386.017302
2387.36767
2394.944929
2393.044966
2395.465017
2396.283855
2396.082819
2403.666813
2402.318974
2403.936759
2402.573116
2401.73539
2413.502664
2410.870146
2412.175619
2411.661384
2412.320353
2421.566766
2420.031815
2418.671851
2421.612421
2420.724933
2430.478371
2428.570418
2430.009184
2428.086022
2429.362073
2438.587271
2437.858819
2440.043088
2437.400527
2436.919972
2447.773806
2446.457448
2445.731806
2447.359057
2447.187889
2455.221482
2454.334015
2452.302162
2455.717398
2455.457349
2462.919386
2462.537991
2462.953508
2462.929578
2463.180938
2470.109767
2472.538126
2472.55235
2472.377003
2469.834393
2478.970309
2481.150324
2480.586079
2480.661139
2480.327599
2487.67958
2488.309056
2489.788372
2487.202888
2488.865537
2495.852607
2498.34113
2497.258026
2496.973059
2497.109437
2506.199932
2504.491412
2506.491157
2504.479814
2504.000691
2512.510492
2514.569218
2514.046693
2513.713066
2513.978319
2521.953042
2522.528385
2520.799852
2522.325756
2522.685503
2531.44668
2529.02793
2531.026091
2529.938891
2530.24252
2539.020767
2537.272008
2538.342178
2536.753659
2537.613446
2547.419105
2545.548152
2546.751888
2546.713066
2547.567424
2555.868146
2553.816235
2554.041531
2555.35408
2557.27931
2563.357864
2562.730048
2563.646793
2562.990024
2564.508419
2570.678245
2570.745313
2571.831448
2570.606177
2571.398201
2579.258359
2578.679832
2579.361746
2581.208805
2578.973033
2588.934912
2589.235351
2589.387353
2588.966961
2587.318979
2596.056642
2597.715129
2598.165762
2597.971499
2597.629104
2604.854588
2607.063133
2606.498188
2605.328354
2605.406794
2611.999141
2614.084485
2616.239395
2614.098043
2614.402261
2622.679551
2624.52026
2620.386542
2621.19836
2622.765685
2632.182379
2630.47333
2630.333318
2630.221976
2629.239161
2639.108679
2639.374351
2638.772599
2640.803538
2638.237677
2648.205387
2647.374457
2645.823432
2644.488473
2647.987123
2654.832684
2654.670157
2657.125841
2654.90235
2654.01729
2662.122412
2662.486606
2665.034961
2662.163612
2663.684571
2671.38178
2670.106114
2672.100526
2672.925159
2672.559186
2679.864795
2679.807095
2678.27479
2681.641105
2680.496285
2688.093762
2686.575217
2688.547138
2687.232166
2689.215282
2694.533977
2694.136867
2694.776216
2696.300821
2694.706781
2701.481416
2703.15941
2702.20223
2702.792476
2701.459011
2711.486066
2710.277888
2709.642528
2714.016182
2709.816629
2719.892726
2720.441131
2718.398996
2719.546159
2720.394449
2727.440597
2727.188629
2727.660796
2726.267281
2728.165682
2734.020443
2735.323006
2736.24413
2736.829068
2734.158209
2742.832907
2742.575495
2746.144856
2743.716312
2744.873435
2751.315809
2751.667806
2752.456805
2751.817957
2750.897499
2760.602498
2759.544262
2759.624969
2758.169409
2758.933308
2769.009896
2768.538858
2766.897287
2767.280253
2767.944038
2774.669934
2775.949237
2778.077395
2775.845429
2776.19661
2783.650701
2785.773916
2785.924526
2783.70588
2784.037446
2790.607673
2792.376513
2790.381115
2789.589963
2792.031461
2800.155971
2798.788441
2803.096666
2799.074168
2798.480441
2806.268204
2809.837417
2808.710556
2808.659216
2809.33348
2816.126894
2815.118016
2817.736242
2816.321508
2817.369654
2824.910653
2825.501962
2824.185927
2823.240511
2823.372674
2829.136011
2832.928648
2833.416422
2832.039279
2831.454031
2838.294447
2838.585544
2841.822168
2841.571256
2840.945076
2848.731975
2847.472599
2849.402173
2848.433504
2847.458991
2854.939362
2856.53973
2856.195162
2856.599972
2854.656241
2865.103515
2860.413488
2863.774769
2864.372585
2864.545929
2871.809034
2872.323007
2870.344127
2872.623764
2871.256769
2882.31587
2880.698796
2880.12588
2880.839519
2881.074493
2888.16379
2888.802252
2889.759136
2888.270828
2891.053304
2896.987177
2896.510053
2897.830854
2899.296154
2901.804208
2905.818424
2907.763363
2909.252931
2909.564153
2909.723584
2918.013963
2918.649779
2921.731277
2918.082939
2915.6296
2931.231338
2930.67973
2930.705181
2930.189163
2931.389953
)
;

boundaryField
{
    upperWall
    {
        type            calculated;
        value           nonuniform List<scalar> 5(2941.90764 2941.469051 2936.677697 2934.348019 2939.5913);
    }
    lowerWall
    {
        type            calculated;
        value           nonuniform List<scalar> 5(2048.834975 2049.161103 2046.147813 2048.043275 2048.090544);
    }
    periodicX_half0
    {
        type            cyclic;
    }
    periodicX_half1
    {
        type            cyclic;
    }
    frontAndBack
    {
        type            empty;
    }
}


// ************************************************************************* //
