/*--------------------------------*- C++ -*----------------------------------*\
| =========                 |                                                 |
| \\      /  F ield         | OpenFOAM: The Open Source CFD Toolbox           |
|  \\    /   O peration     | Version:  v1706                                 |
|   \\  /    A nd           | Web:      www.OpenFOAM.com                      |
|    \\/     M anipulation  |                                                 |
\*---------------------------------------------------------------------------*/
FoamFile
{
    version     2.0;
    format      ascii;
    class       volVectorField;
    location    "5";
    object      U_N2;
}
// * * * * * * * * * * * * * * * * * * * * * * * * * * * * * * * * * * * * * //

dimensions      [0 1 -1 0 0 0 0];


internalField   nonuniform List<vector> 
500
(
(15.54033438 -0.2127972144 -0.3814132627)
(15.58982549 0.02907628868 -0.3813602737)
(15.63225795 0.1192331648 -0.2338892481)
(15.53743321 0.1970239755 0.1157281421)
(15.31348287 0.08338090392 -0.09365862186)
(19.54425273 0.0811187632 -0.3858940744)
(19.36705314 -0.100293004 -0.1491582345)
(19.69357971 0.08494435177 0.2909835549)
(19.49279671 -0.01221348497 -0.1103362989)
(19.8973509 0.08085122516 -0.3597130855)
(23.16570017 0.1050403215 -0.1520637244)
(23.06474591 -0.0119279015 -0.05097534589)
(23.09078374 -0.04145246795 -0.01913697685)
(23.04673957 0.0457775336 0.02800094532)
(23.08323911 -0.01345183307 0.1735341825)
(26.57657344 -0.2286920929 -0.1360043851)
(26.72977069 0.1577840059 -0.228865707)
(26.52348489 -0.1490541443 -0.2871306618)
(26.66258308 -0.06602834968 -0.390268676)
(26.34166149 0.2661447058 -0.06656699522)
(29.77945653 -0.03293666542 0.09115547999)
(29.72915041 0.2261630879 -0.2536910564)
(29.7191935 0.03642205152 -0.2141050124)
(29.81887625 -0.09691792104 -0.5238688965)
(29.55343585 0.2141791749 -0.3895137052)
(32.61987238 -0.1580303692 -0.2303720597)
(32.58565355 -0.09696677879 -0.254404324)
(32.73166987 -0.07805153049 -0.2720337983)
(32.72729161 0.2304162751 -0.2389405086)
(32.80305381 -0.06659843549 -0.1749418634)
(36.02356373 0.01552457718 -0.1346522542)
(36.11407473 0.04351479587 -0.06395030749)
(36.00102199 -0.1428987386 -0.1640831588)
(35.84999817 -0.02430930878 -0.1639575591)
(35.96999074 0.05927676349 -0.2067479468)
(38.94084178 -0.006701202663 -0.1944910408)
(38.93160596 -0.05294242497 -0.3499855001)
(38.75198899 0.03168759661 -0.4208065298)
(38.92860807 0.1277670521 -0.4900275911)
(38.77296396 0.003757024478 -0.07736251069)
(41.86059358 -0.07836599711 -0.406712743)
(41.69398186 0.1898409689 -0.3319715747)
(41.96790438 -0.1938442229 -0.3427514801)
(41.76882022 -0.05510638139 -0.3833739717)
(41.93151556 0.154525768 -0.2582764366)
(44.7336104 -0.09310607556 -0.5400766143)
(44.70264921 0.1628704264 -0.2569059811)
(44.80079924 0.0965641642 -0.4297582638)
(44.67650686 -0.1192144119 -0.4133930707)
(44.6367627 0.02888147774 -0.4606357621)
(47.89395881 -0.03122983733 -0.5684822713)
(47.63015198 0.07565590691 -0.6650451653)
(47.85922715 0.2662396317 -0.5270853348)
(47.86841359 -0.001427262016 -0.3692683448)
(47.73559143 -0.06173504585 -0.3911192029)
(50.65209808 0.1523255983 -0.4947200962)
(50.72350384 -0.0953458429 -0.5674639243)
(50.74739088 -0.06613320799 -0.6087550216)
(50.9008467 -0.04876643245 -0.6138247669)
(50.54110726 -0.0825238518 -0.484445472)
(53.45928957 0.0905305768 -0.3562066243)
(53.6685877 -0.3792808405 -0.6715477955)
(53.54257515 0.03534026312 -0.3412034333)
(53.500293 0.1021898006 -0.6412192281)
(53.93567945 0.04906179371 -0.2532734644)
(56.60591066 0.3093808321 -0.3846115533)
(56.7462857 0.003579480102 -0.7305614705)
(56.54455747 -0.09820650026 -0.2195621263)
(56.628529 0.2265568405 -0.23803784)
(56.56513773 -0.1957271631 -0.3616076851)
(59.23692089 -0.0324528931 -0.6940859256)
(59.3828083 0.06446196645 -0.2733987412)
(59.29558931 0.179044908 -0.5082417503)
(59.27166567 -0.3634458507 -0.08748323506)
(59.23226848 -0.03105262874 -0.7364569999)
(62.0276997 -0.01501166238 -0.3652465931)
(62.31309035 0.1602807069 -0.4436514656)
(62.17398709 -0.1043883116 -0.2587780668)
(62.23770065 0.1530859119 -0.2671714007)
(62.29976101 -0.1251633111 -0.07828964505)
(65.08944246 0.09638022036 -0.2125779772)
(64.98723729 -0.1040922292 -0.4733235862)
(64.96164514 0.01702480525 -0.3009030848)
(65.09214247 -0.2287000401 -0.3749220126)
(64.97516114 0.1922396192 0.01633839306)
(67.96730548 0.001277300288 -0.2979884984)
(67.94000075 0.1868521284 -0.02906248322)
(67.83047895 0.09946735451 -0.2769904525)
(67.97472356 -0.08451283475 -0.6808305677)
(67.73752749 -0.0164788209 -0.2134293926)
(70.32384733 0.1747381755 -0.3446735942)
(70.49912321 -0.02224339938 -0.3852583802)
(70.47927219 -0.02483943551 -0.4286608201)
(70.58297619 -0.02521602441 -0.3314967268)
(70.5915265 0.009996284293 -0.3680796358)
(73.25323599 -0.3322328005 -0.5797506951)
(73.32496958 0.1334052475 -0.5506337433)
(73.26100971 -0.114376811 -0.2903315884)
(73.12823239 -0.0566418086 -0.5522379014)
(73.30687892 0.2415219322 -0.2325731362)
(75.98946302 0.04217667407 -0.7204135133)
(76.21040219 -0.1218253422 -0.3845624311)
(76.15563861 0.06705362587 -0.5434893933)
(76.31974094 0.0850692464 -0.2403223761)
(76.22990938 -0.1437016214 -0.3556536066)
(78.80839361 -0.09152094623 -0.650011787)
(78.87648226 -0.01960687907 -0.5519950157)
(78.97739448 -0.01472071424 -0.6699790545)
(78.82600174 0.118850475 -0.7342022182)
(78.81986148 0.1065669972 -0.4781466254)
(81.90725183 0.0762193525 -0.7192750181)
(81.79749337 -0.1555704135 -0.5725535017)
(81.6596443 0.04374547284 -0.4358537714)
(81.6749137 0.1769717845 -0.6998551017)
(81.83263033 -0.01006563747 -0.4358224289)
(84.65034501 0.1852528106 -0.3321675101)
(84.36598057 0.242270737 -0.5957994276)
(84.56578928 -0.2216949816 -0.681671083)
(84.5497744 0.05011389991 -0.3891717762)
(84.51298092 -0.2057645272 -0.601065886)
(87.26475075 0.1628327827 -0.2358845841)
(87.36981758 -0.1532487791 -0.51980622)
(87.20801375 -0.009552015949 -0.6293210489)
(87.2375224 0.04742005311 -0.6401492628)
(87.23915844 0.09131367994 -0.7317003635)
(90.11243662 -0.09196271864 -0.4670453405)
(90.06012299 0.1259075074 -0.3893286792)
(89.97503685 -0.0963766648 -0.5096580684)
(89.79306468 -0.2700411051 -0.6649615975)
(90.12586312 0.06969259043 -0.5849550699)
(92.67678305 0.07318014609 -0.3137981073)
(92.8106905 0.07024643565 -0.8668927301)
(92.71789568 0.02407768346 -0.3017710648)
(92.83569913 -0.1535516927 -0.2246480811)
(92.95465872 0.1186154793 -0.5383660154)
(95.41052557 0.05911530332 -0.2087224014)
(95.3311922 0.1221868472 -0.4700467935)
(95.45059538 0.03949542556 -0.3349012865)
(95.34864866 -0.1654848747 -0.425560443)
(95.41837152 -0.01225823202 -0.2559262489)
(97.98385494 0.2232373788 -0.4305532595)
(98.13439978 0.1315473026 -0.3883979809)
(98.15240409 -0.04495692454 -0.0101794669)
(98.24199062 -0.2167033936 -0.4574105454)
(98.04090559 -0.001413694137 -0.4750054678)
(101.1809728 -0.103633595 -0.7911767835)
(101.0239674 0.2592240835 -0.5136242104)
(101.029803 -0.1161107439 -0.3879025743)
(101.1445106 -0.19109225 -0.6717683489)
(100.8528257 0.04700240377 -0.7106543654)
(103.3554313 0.2023699835 -0.5461008942)
(103.7561855 -0.007118721123 -0.4574591448)
(103.6092482 0.01878612285 -0.4702411367)
(103.4362517 0.05374676422 -0.6559189299)
(103.688983 -0.04008857977 -0.4507553957)
(106.2475525 0.1078355638 -0.5454779756)
(106.1197334 0.07552391797 -0.5726362628)
(106.2491854 -0.121415856 -0.4119409033)
(106.1928916 -0.1952347423 -0.6293895208)
(106.4219448 0.0472064205 -0.6106448931)
(109.1254337 0.1142410132 -0.6212339295)
(109.1392289 0.05639604566 -0.334971223)
(108.8193282 -0.1107596452 -0.8698158533)
(109.0716917 -0.1547113886 -0.7232654293)
(108.9031838 0.1057561462 -0.6410566008)
(111.5784591 0.1234528797 -0.6827593272)
(111.6125329 0.06706418919 -0.7997067804)
(112.0346738 0.1940376397 -0.3192630536)
(111.6800807 -0.236167494 -0.4395552368)
(111.7773457 -0.06460135339 -0.7871843932)
(114.4273883 -0.0748703335 -0.6692214315)
(114.5424636 0.1312323514 -0.6577628352)
(114.6926918 0.002405629052 -0.7168564572)
(114.4159001 0.01855011127 -0.2810557143)
(114.1778522 0.0142784186 -0.478604415)
(117.1771885 -0.1233130279 -0.6331216864)
(117.1518777 -0.06828782242 -0.6995183353)
(117.1491067 -0.1553232752 -0.5217146493)
(117.0636317 0.3012351632 -0.8356855113)
(117.1193148 0.07177916752 -0.6775510603)
(119.9713608 -0.122616427 -0.4504274025)
(119.9128891 0.1418943582 -0.3619221883)
(120.0354317 0.09524874343 -0.5104031705)
(119.8098594 -0.00320078656 -0.3438871023)
(119.9271341 0.01370033449 -0.5844934061)
(122.4684197 -0.1512099191 -0.472984327)
(122.248037 0.1246789249 -0.3482542744)
(122.7221156 -0.1331139339 -0.3815001273)
(122.5729898 0.1073477138 -0.8349786576)
(122.6504507 0.06470944962 -0.3879892785)
(125.1007482 -0.1270814978 -0.6148158423)
(125.2841599 -0.1901000901 -0.2026601353)
(125.0449438 -0.02182705544 -0.5546754044)
(125.0774491 0.06860463615 -0.5195470663)
(125.191776 0.1925945356 -0.4921345102)
(127.938167 0.02830141437 -0.5445940669)
(127.9677288 -0.2112560562 -0.2983415928)
(127.8291402 0.3174513367 -0.4820563987)
(127.7348177 -0.07337582282 -0.456115933)
(127.6789866 0.03313436501 -0.4766596632)
(130.5277642 -0.2577297057 -0.3646195817)
(130.4236117 0.2185095744 -0.276908484)
(130.411096 -0.0305625932 -0.426030198)
(130.381623 -0.143406678 -0.7145578628)
(130.5748869 0.1222011808 -0.4546310373)
(132.9816449 -0.09403007064 -0.529197428)
(133.1568252 0.1177034206 -0.4367250886)
(132.8450608 0.2102515249 -0.5791008399)
(133.0914605 0.05806401012 -0.5796007904)
(133.0665252 -0.002262255333 -0.4164045007)
(135.8175401 -0.2383303945 -0.5334016038)
(135.5727226 0.06887248486 -0.8332581997)
(135.8241237 0.01439257975 -0.5094995208)
(135.8347974 -0.01223407273 -0.6051240564)
(135.5960817 -0.03261918089 -0.5357071374)
(138.360294 0.127177489 -0.6838803669)
(138.2248185 0.1135739161 -0.361400975)
(138.1737001 0.1677865243 -0.5719193012)
(138.3778778 0.1187163354 -0.7781707015)
(138.1579145 -0.1229945233 -0.6117119332)
(140.9717711 -0.04624793196 -0.5150439811)
(140.5625445 -0.2842153158 -0.4720352896)
(141.0847335 0.1033240767 -0.6689844793)
(140.6520745 -0.03201772774 -0.5690809962)
(140.7250711 -0.05288848561 -0.551250255)
(143.5170754 0.05230242418 -0.7369564411)
(143.4723325 -0.108076488 -0.628821525)
(143.5222279 0.2071255317 -0.6813220977)
(143.478008 0.1430099187 -0.3860119554)
(143.5328631 -0.1515008493 -0.8341351283)
(146.1180693 0.1753847317 -0.6915616326)
(145.9782671 0.004837727394 -0.6840400835)
(146.0694459 -0.1141990621 -0.6924273747)
(145.9540203 0.1513669617 -0.652172621)
(146.4126599 -0.07997796525 -0.7907367405)
(148.7958459 0.06578042239 -0.6181054344)
(148.7644152 0.1252573652 -0.4599136798)
(148.6112275 -0.252605493 -0.5716146595)
(148.8081645 0.09212719115 -0.5625162485)
(148.5144677 -0.05345208458 -0.6333990899)
(151.2745561 -0.002065006964 -0.8730549659)
(151.5227299 0.07103834308 -0.4980010473)
(151.1923705 0.06496805753 -0.6242822795)
(151.2835379 -0.2333514578 -0.5040971895)
(151.427161 -0.05118545934 -0.6037743622)
(153.9747798 -0.1440790842 -0.5251740835)
(153.7166959 0.2576951443 -0.7229103024)
(154.0447319 0.216228131 -0.2099305658)
(153.7405832 -0.2011869983 -0.6467748345)
(153.559343 0.1551026921 -0.5898588915)
(156.3175801 0.1144611169 -0.2987228955)
(156.4968379 -0.3020253696 -0.6061223884)
(156.5326966 0.05581703009 -0.2801807743)
(156.2083123 0.06143070543 -0.8692753598)
(156.0416272 -0.001466296239 -0.3373439484)
(159.0116003 -0.201096993 -0.1588710007)
(158.7892837 -0.1817198043 -0.2952914329)
(158.9422518 0.02210559391 -0.8662918501)
(159.0798395 0.3679228839 -0.6219775348)
(158.893657 0.1305808712 -0.6787836127)
(161.7036111 -0.2430757282 -0.438783193)
(161.3656984 -0.02905824343 -0.5960619544)
(161.7870297 0.1170555912 -0.7232682681)
(161.5580312 0.04302347288 -0.7617324273)
(161.6467156 0.09575405648 -0.6783869707)
(164.136525 0.02625010933 -0.3292311093)
(163.8681586 0.171728485 -0.8478900668)
(163.9058832 -0.01461651492 -0.5213793202)
(163.894834 -0.1166066734 -0.683830127)
(164.0097297 0.03571251506 -0.4303897484)
(166.2737754 0.0273073448 -0.5787823652)
(166.5108148 -0.140993776 -0.8177668046)
(166.6503765 -0.07964413496 -0.7008887552)
(166.6813366 0.235982678 -0.1428498661)
(166.5093845 -0.03508807626 -0.6311201065)
(169.2114177 0.0541172699 -0.4877673017)
(169.0723958 -0.07419387204 -0.4664770417)
(169.0557644 -0.1937650388 -0.5575127792)
(169.2602177 0.000844407218 -0.6123153814)
(169.0400786 0.2459043596 -0.8714555741)
(171.782942 0.0447020222 -0.6438357566)
(171.9573827 0.01462486128 -0.4920312305)
(171.8453999 -0.1938449732 -0.6992890349)
(171.7453134 0.1238508997 -0.1894652038)
(172.0249868 0.2037988847 -0.1435603713)
(174.3047635 -0.03444073365 -0.1163132075)
(174.5767082 0.03611697996 -0.7733703817)
(173.9985117 -0.01186064643 -0.2066912764)
(174.4374057 -0.1506127108 -0.2196466925)
(174.2744788 0.1727472296 -0.478653702)
(176.8391883 -0.1376806874 0.07386819846)
(176.9286551 -0.102408702 -0.2951535649)
(177.1387962 0.01676209397 -0.09801045923)
(177.2562403 -0.04096003999 -0.2447261531)
(176.6836755 0.09027497764 -0.2099284179)
(179.7247107 -0.2104209536 -0.2317021139)
(179.755263 -0.1967276597 -0.4776451578)
(179.3174931 0.1639665419 -0.2254723145)
(179.1790168 -0.100152152 -0.3902536911)
(179.5655074 0.2032885383 -0.4406442243)
(182.094586 0.0004264443892 -0.2442869282)
(181.9319466 -0.135335855 -0.405325283)
(181.7580796 0.3466536761 -0.269205789)
(182.2679102 0.1614270723 -0.07301269397)
(182.258739 0.01790450707 -0.273175468)
(184.4918522 -0.04343831034 -0.02341180006)
(184.6280864 -0.1033456731 -0.2627803305)
(184.5508328 -0.1476060377 -0.2535822145)
(184.1560485 0.06568143468 -0.08819757391)
(184.632663 -0.03979798511 0.04671915394)
(186.9372867 -0.1966320856 -0.05583290461)
(187.2977503 -0.01234897756 -0.3282652018)
(187.048364 0.1202423263 -0.6650973155)
(187.0212282 0.2430116563 -0.1541398211)
(187.0969648 -0.1450315317 -0.09534534811)
(189.3908765 0.02508884064 -0.2079884244)
(189.2667978 0.0547960443 -0.4588890424)
(189.7339267 0.1135516741 -0.3063890305)
(189.472847 -0.05052829244 -0.3127287246)
(189.7855972 0.1021964524 -0.3636913897)
(191.9991185 -0.2004641125 -0.3849961301)
(192.120285 -0.06826739891 -0.1557179353)
(192.015649 0.05195846732 -0.2122418022)
(191.7338694 0.03284325039 -0.3354996213)
(191.9455501 -0.01275043356 -0.2058132606)
(194.60905 0.02914610862 -0.3422358503)
(194.1971513 -0.1127545538 -0.3372221237)
(194.2713802 0.05505205779 -0.2318877495)
(194.4638312 0.006164116809 -0.01070466952)
(194.4619876 0.01154333575 -0.3400908838)
(196.9814125 -0.1915937141 -0.571990031)
(196.991308 0.2421045269 -0.3384494222)
(197.1898102 -0.05116274955 -0.2858885485)
(197.0524603 -0.04194913935 -0.193726038)
(196.7619188 0.1049237992 -0.2016982174)
(199.3476889 -0.09366653385 -0.5021424612)
(199.5079042 -0.2592318476 -0.3404221654)
(199.2292384 0.1665301001 -0.4144617899)
(199.5521046 0.2097407487 -0.4215018819)
(199.1196429 0.03262219406 -0.2910246732)
(201.9422079 0.01794380639 -0.3543281891)
(201.7217502 -0.2756466083 -0.9173243802)
(201.8242515 0.1392364999 -0.7065557471)
(201.7172796 0.1328908124 -0.34053694)
(202.2386561 0.139283241 -0.2759942424)
(204.2419614 -0.07918831031 -0.5565690926)
(204.2310554 -0.05998167812 -0.362140481)
(204.2110343 -0.1030562791 -0.2638240511)
(204.1718514 -0.004518900645 -0.3852201423)
(204.3127989 0.03051136583 0.08277971009)
(206.8649579 0.01119782254 -0.144634717)
(206.6114538 0.06475221112 -0.1222297917)
(206.4876835 -0.08844596583 -0.03133184698)
(206.7628953 0.06973044363 -0.2665183667)
(206.5820309 0.0234484019 -0.2137517538)
(209.2716017 -0.06193173853 -0.3967324872)
(209.2435469 0.02034450803 -0.3189256953)
(209.2586944 0.1557529713 -0.2417113442)
(209.1881072 0.1436610092 -0.5556687031)
(209.2348941 -0.3251865778 -0.06859207167)
(211.6084498 -0.1234250242 0.1418518785)
(212.0962068 -0.006815358098 -0.1246994177)
(211.7043393 0.2078717293 -0.1839066816)
(211.8737517 0.04067812213 -0.1406401694)
(211.7626265 -0.06577394423 0.177071939)
(214.1767962 -0.10172339 0.170969363)
(214.027331 0.1975368468 -0.1724881799)
(214.055934 -0.1416423523 -0.2548540143)
(214.3935614 0.1522934127 -0.09662436994)
(214.2879128 -0.05135944338 0.08934180361)
(216.74331 -0.4420938079 0.005577447739)
(216.7492363 0.1298535048 -0.07411288238)
(216.6742598 -0.1490163818 -0.2240994445)
(216.8581064 0.2824034637 0.0882218261)
(216.680363 0.1438770969 -0.1729801719)
(219.3617769 0.106372462 -0.213212051)
(219.1600281 0.1073948839 -0.3613318385)
(218.8754019 -0.2221043672 -0.4368576965)
(219.3077296 0.2363621847 -0.2273647045)
(219.086108 -0.02715743386 -0.1969207569)
(221.5531421 -0.07706345826 -0.1340140223)
(221.5140096 -0.04995385749 -0.5943861647)
(221.6348127 -0.08172848347 -0.3832750758)
(221.6503381 -0.1445983803 -0.2025911185)
(221.9727927 0.05237925447 -0.02211057698)
(224.0753076 0.05037371989 -0.2513607527)
(224.4634987 0.3912048432 -0.2697415192)
(224.0640962 -0.2140673741 -0.3396831341)
(224.1160154 0.1574655237 -0.4013225996)
(224.3287021 0.04403489463 -0.01432416555)
(226.9434359 0.1133769168 -0.4954735441)
(226.5160381 0.1033148914 -0.4011064199)
(226.7899119 -0.2545514568 -0.2088578897)
(226.883658 0.1636106035 -0.1605082282)
(226.6815854 -0.1671376556 -0.1470529271)
(229.0335525 -0.03062045066 -0.2937794147)
(229.5016548 0.1361425441 -0.221456076)
(229.113333 -0.01338498686 -0.1870405201)
(229.4314773 -0.06752043236 -0.02789000796)
(228.8094584 0.004522261748 -0.3887719971)
(231.5870701 -0.03450722353 -0.1240055658)
(231.4367277 0.04398497932 -0.09974439794)
(231.6745508 0.2093739905 -0.4078275375)
(231.4225718 -0.177550347 -0.1192309948)
(231.6935344 0.1064132322 -0.7038681056)
(233.9706174 0.1326600324 -0.3595178828)
(233.8983563 -0.1807466802 -0.151320105)
(233.9678297 0.02258161057 -0.04535624148)
(234.1908524 -0.159163043 0.02094495819)
(234.1389765 0.1121164701 -0.2379644413)
(236.5642275 0.0549883318 -0.05839621005)
(236.6191688 -0.0766796856 -0.1213100063)
(236.393365 0.1548181712 0.3200883174)
(236.6676756 0.07696522312 -0.05107381706)
(236.3247167 -0.03952905823 -0.2131098144)
(238.8068213 0.0963600493 -0.07171844135)
(238.9561507 0.002495936368 -0.1992778297)
(239.005922 -0.05736235607 -0.1765526193)
(238.6543498 -0.1938202779 0.1347000204)
(238.760516 0.2762266147 -0.1801988657)
(241.134684 0.03302064167 0.07258532975)
(241.4201288 -0.07509853255 -0.1274466465)
(241.4124051 -0.1337665303 0.1904892492)
(241.0265806 0.01507646701 -0.2320931047)
(241.3028741 -0.04013897559 -0.1229304422)
(243.2966775 0.1091369529 -0.2441200512)
(243.5583994 -0.01491924836 0.1981716361)
(243.5459379 0.193181233 -0.3382270665)
(243.7580274 0.3762455524 -0.1536630339)
(243.5010751 -0.2231649514 -0.3004639263)
(246.1888556 -0.04486292476 0.03571612135)
(246.1092999 -0.1662938816 0.2581682138)
(245.8946422 -0.153324593 0.08707068159)
(246.3352777 0.06650379081 0.1267564925)
(246.2109772 -0.1739346017 0.0396273964)
(248.880968 -0.07498159443 0.007897919309)
(248.8388785 0.06367534034 -0.09889389023)
(249.1118328 -0.0745829051 0.3252441012)
(248.4535645 0.07911641116 0.3669702008)
(248.823153 0.04820448359 -0.02034630511)
(250.8893591 0.1201768808 0.1686007912)
(251.1076798 -0.02536414574 -0.06371782354)
(251.1284508 -0.0004685834289 0.3910865932)
(251.0796604 0.02513863834 0.4877310523)
(250.8058005 -0.2584488491 -0.06532239539)
(253.5932336 -0.1913854067 -0.09328532196)
(253.4265793 -0.3881008668 0.03652697754)
(253.4286402 0.06689193212 0.1018243413)
(253.5105945 0.2004647695 0.02310967982)
(253.4628881 0.3463937146 0.002466543302)
(256.1097757 0.1574119356 -0.02986377677)
(256.2392089 -0.04059227596 0.04492094825)
(256.105347 0.02459463241 0.3335922176)
(255.8774631 0.07390798239 -0.0223079307)
(256.0947972 -0.0003405249601 -0.07569819099)
(258.9437598 0.05965320816 -0.006218079467)
(258.9656836 -0.3028554846 0.1701152027)
(258.7993008 0.3928058255 0.01843247312)
(259.044856 0.128213718 0.08927391005)
(258.9748359 -0.07841565738 0.422681893)
(261.278167 -0.2219259883 0.2109651046)
(261.4392131 -0.007978227143 -0.1339191503)
(261.4458521 -0.02566019156 -0.247655576)
(261.3720294 0.1100939413 -0.09029505466)
(261.1781371 0.05355231321 -0.0680616481)
(264.3428579 0.03173337968 -0.2016847366)
(264.0739935 -0.07893545642 -0.2301664749)
(264.0616934 0.07962856927 -0.1835586436)
(264.0910195 -0.2093455687 0.04911095997)
(264.1389261 0.3330700931 0.1551791349)
(266.7291061 -0.07599897614 -0.008185665526)
(266.4541198 0.05063730959 -0.230048015)
(266.8040352 -0.1091186484 -0.1571886894)
(266.579955 0.1048522494 -0.3138692533)
(266.7599886 0.1190470407 -0.2730680526)
(269.4261633 -0.1147686676 -0.5497387161)
(269.3378053 -0.4495069085 -0.4592276646)
(269.2990047 0.1536191927 -0.3774193126)
(269.1916684 0.1057351286 -0.09452578212)
(269.2330419 -0.02802525742 -0.2502734201)
(272.0040456 0.0840823712 0.2695945838)
(271.9659329 -0.1506211556 0.04368499124)
(271.8070094 0.1798463998 -0.1903785351)
(272.1919946 0.1344228552 -0.1054673547)
(271.7347318 -0.02447083033 -0.09452572205)
(274.7686641 -0.1235950135 0.1843169389)
(275.0651643 -0.1124216897 0.01846603417)
(274.8851255 0.1055971583 0.3601839257)
(274.6475118 0.424480133 0.4259418555)
(275.0324141 -0.01304713878 -0.01232024752)
(278.2050276 0.01416895617 -0.3385594133)
(277.6186496 -0.01296145315 0.01633113447)
(277.801416 0.1022081543 -0.1760582546)
(277.9653695 -0.1593967498 0.4783147533)
(277.8275389 -0.3209862643 0.002261751354)
(281.5496247 0.2764945155 -0.2853686308)
(281.5822626 -0.0007894710336 0.348844253)
(281.6752462 0.2529213793 -0.1474681957)
(281.6810084 0.1230262299 0.3515757676)
(281.5725038 0.1085365851 0.09460131191)
)
;

boundaryField
{
    upperWall
    {
        type            calculated;
        value           nonuniform List<vector> 5((284.4513581 0 -0.1355436293) (284.4916304 0 -0.2975884468) (284.189535 0 -0.3339687857) (284.7625749 0 0.3476841509) (284.7002518 0 0.5504530472));
    }
    lowerWall
    {
        type            calculated;
        value           nonuniform List<vector> 5((12.82081325 0 -0.4963622713) (12.61959388 0 -0.8214545698) (13.49245761 0 -0.2807649612) (12.04689917 0 0.5077509063) (12.38515927 0 -0.2069897832));
    }
    periodicX_half0
    {
        type            cyclic;
    }
    periodicX_half1
    {
        type            cyclic;
    }
    frontAndBack
    {
        type            empty;
    }
}


// ************************************************************************* //
