/*--------------------------------*- C++ -*----------------------------------*\
| =========                 |                                                 |
| \\      /  F ield         | OpenFOAM: The Open Source CFD Toolbox           |
|  \\    /   O peration     | Version:  v1706                                 |
|   \\  /    A nd           | Web:      www.OpenFOAM.com                      |
|    \\/     M anipulation  |                                                 |
\*---------------------------------------------------------------------------*/
FoamFile
{
    version     2.0;
    format      ascii;
    class       volVectorField;
    location    "5";
    object      U_O2;
}
// * * * * * * * * * * * * * * * * * * * * * * * * * * * * * * * * * * * * * //

dimensions      [0 1 -1 0 0 0 0];


internalField   nonuniform List<vector> 
500
(
(15.53970198 -0.1817578593 -0.05867725646)
(15.90791609 -0.2964897816 0.01090655702)
(15.99693903 0.2781215036 0.02076589249)
(15.46869271 -0.1433938415 -0.295709451)
(15.9828245 0.26645271 -0.2246733801)
(19.72336045 -0.3939697668 -0.2371830293)
(19.648325 -0.2452466239 -0.07372589026)
(19.94405212 -0.1013682235 0.08007546567)
(19.53142429 0.4793803227 -0.2420958935)
(19.74985903 -0.09613402974 -0.3535555824)
(23.79778833 -0.07575797921 -0.4848865601)
(23.29946399 0.2886969169 -0.06399143543)
(22.9787693 -0.1968936558 -0.4315064718)
(23.34167886 0.2503514319 0.1567096216)
(23.80217101 -0.2581210689 -0.4512762431)
(26.69971563 -0.04206108365 -0.1523201806)
(26.85096691 -0.07378473656 -0.7879142201)
(26.71181395 0.3793469222 -0.2939325273)
(26.72261466 -0.1492482357 -0.008658643843)
(26.7524601 -0.0644370334 -0.440743874)
(29.99868115 -0.6302472257 -1.2451605)
(30.31704186 -0.02365420678 -0.7355333704)
(30.0283439 0.1183825834 -0.2738963055)
(29.96224637 -0.05243660183 -0.7341791164)
(30.25882961 -0.2166282795 -0.2284279559)
(33.21853749 -0.2601048981 -0.8315649361)
(33.44172909 0.3160516311 -0.658343956)
(33.08449519 0.7904013114 -0.07980525411)
(32.7896975 -0.04239318967 -0.3706497118)
(33.0840203 -0.2684920771 0.03247921637)
(35.8899473 0.1558542111 -0.9036114765)
(35.69447538 0.1068373306 -0.5040350548)
(36.09107029 0.4221043449 0.1217927651)
(36.4824663 0.1345026194 -0.2709249184)
(35.89243899 -0.715286862 0.02061092929)
(38.85570993 -0.237909538 -0.05569497696)
(38.62654407 -0.250138775 -0.03250121825)
(39.0745072 -0.3301289287 -0.164379882)
(39.37056722 -0.07060626008 0.3642960354)
(38.74051411 0.1690789377 -0.2630416492)
(42.30318142 -0.01431002255 -0.4871561405)
(42.44796218 -0.2739004012 -0.4525045629)
(41.7944103 -0.01632924918 -0.0394251253)
(42.07009442 0.09814630003 -0.07659343225)
(42.31785162 0.4148569987 -0.310318866)
(45.20183619 -0.08730084651 -0.3932928624)
(44.7500138 0.02070103682 -0.1188828457)
(44.9058266 -0.4219604509 0.06414709856)
(44.87578592 0.2362885519 -0.3294139264)
(45.43664217 -0.2017070179 -0.8269184049)
(47.79945898 0.4818955356 -0.1794729407)
(47.71845353 0.3581834962 -0.542879258)
(47.88299927 -0.3812030273 0.1341431925)
(47.65692634 -0.002242679864 -0.4998898647)
(47.63077071 -0.3528585142 -0.6352626443)
(50.66867003 -0.1158949687 -0.9664348812)
(50.67325653 0.1891898217 -0.6334857261)
(50.84751829 -0.219121712 -0.4343176374)
(50.88656599 0.1696225285 -0.2252554779)
(50.45800989 -0.1413568575 -0.7489727077)
(53.52373996 -0.006945057781 -0.4845013107)
(53.62648901 0.04325719876 -0.8186564127)
(53.23074662 -0.08352961941 -0.680081234)
(53.42538978 0.06928233005 -0.8283920369)
(53.53338939 0.006663510297 -0.8469257091)
(56.29367515 -0.09549120479 -0.8076555016)
(56.06686388 0.1130904362 -1.17841819)
(56.21782986 0.1138483179 -0.585353788)
(56.22842962 -0.09521313312 -0.4524251908)
(55.88163026 -0.2403626375 -0.7955660973)
(59.64620599 0.1748471428 -0.990524157)
(59.16173663 -0.0923128243 -0.6452718371)
(59.3284258 0.04264655923 -0.3008250512)
(59.127266 0.1728094697 -0.7123799771)
(59.33035447 -0.210775487 -0.4983012487)
(62.1034785 -0.1418505175 -0.5019350267)
(61.75091937 0.4588886013 -0.6884769279)
(62.09220961 -0.4010234222 0.1100980716)
(61.93465025 -0.2231098827 -0.4366356055)
(62.1948966 0.07227685455 -0.05720644686)
(64.79058739 -0.1694924955 -0.4809717125)
(64.47049599 0.3640557384 -0.2532655705)
(64.73590048 -0.3132971353 -0.69547322)
(64.80934115 -0.4847224861 -0.9277106939)
(64.23379796 0.160571861 -0.3398053691)
(68.07564012 0.09995944476 -0.4783536796)
(67.16245541 0.6091486186 -1.060204709)
(67.88235872 -0.4567468857 -0.5211066564)
(67.12268096 -0.1382812027 -0.7088153196)
(67.63979806 -0.1355056465 -0.4161220248)
(70.05456994 0.1953523196 -0.7540075445)
(70.53238545 0.06258979017 -0.563760409)
(70.83030552 -0.4762683187 -0.7082854386)
(70.68347102 0.418063443 -0.2513794739)
(71.08636949 -0.03106700912 -0.8043861592)
(73.56177427 -0.002477956821 -1.052986213)
(73.56737985 0.2458493365 -0.6109190372)
(73.12386504 0.1791375624 -0.8163667369)
(73.6879655 -0.4522553532 -0.7256824102)
(72.92363798 0.2001901271 -0.7399663075)
(76.19898069 0.1512774451 -0.8343443008)
(76.36174166 0.1733678885 -0.597677639)
(76.37779705 -0.3196389202 -0.2426402815)
(76.08345539 -0.3352775528 -0.3135389442)
(76.46115994 -0.02210652753 -0.7252225953)
(79.02190495 0.26724752 -0.2346152803)
(79.71292881 -0.07516750978 -0.5401946155)
(79.26340995 0.3650694136 -0.253340582)
(78.94390834 0.3377377064 -0.4366505204)
(79.08004956 -0.7178568716 -0.3990211629)
(82.16510136 -0.1173666977 -0.9549465997)
(81.7579228 0.1464556252 -0.7850214885)
(82.37759862 0.02673150482 -0.2725811839)
(82.13066511 -0.3569123833 -0.5638884084)
(82.3462017 -0.4804877053 -0.4768185625)
(84.48896752 -0.07030561343 -0.6474542197)
(84.78779975 -0.03312860218 -0.9504957175)
(84.79090233 -0.486686354 -0.6012473433)
(84.83584958 0.03324053278 -0.5584969314)
(84.76849489 0.3360981317 -0.3733550939)
(87.05377253 -0.07167390068 -0.881555304)
(87.23781719 0.3411086993 -1.355577609)
(87.01457794 -0.04488182932 -0.6148849475)
(87.49427254 -0.1106022011 -0.5350972933)
(86.92012969 0.1777838001 -0.78206471)
(89.90029206 -0.130871738 -0.7928006153)
(89.90863195 0.3567641811 -0.9175374237)
(89.67032746 0.03973481579 -0.918086512)
(89.21523598 0.01210428767 -1.074701493)
(89.56607945 -0.2560270253 -0.6912900907)
(92.07106447 -0.5328901371 -0.9064462065)
(91.83673009 0.5355523905 -0.8445598908)
(92.10656868 0.008633687795 -0.9032145375)
(92.01510655 0.1109420311 -0.7485659657)
(92.15382691 -0.3916617327 -0.6237469017)
(95.08235432 -0.1875192723 -0.8484372552)
(95.0536087 0.02515899677 -1.241039134)
(95.22549758 -0.04726713846 -0.6141272984)
(94.9319752 0.1263541712 -0.3596064119)
(94.60344136 -0.1909426599 -0.5748520522)
(97.77424216 -0.07290142839 -1.182418923)
(98.31204957 -0.09077882682 -1.133385413)
(98.01569636 0.3202543958 -0.3651528292)
(97.93596502 0.2983712319 -0.4357303648)
(98.25513075 -0.3460883961 -1.244222554)
(100.8692716 -0.4767384225 -0.4386444721)
(100.7362157 -0.2667481741 -0.8732262513)
(100.7820143 0.07565132386 -0.328869444)
(101.4723261 -0.2159151825 -0.6244915741)
(101.2332633 0.1323431423 -1.176853955)
(103.6454974 0.4598271969 -0.2089416185)
(103.7974119 0.01345464351 -0.8507825276)
(103.8408823 0.1266650188 -0.8498940591)
(103.5212735 -0.2201498862 -0.5412671257)
(103.9727149 0.4299071529 -0.7313196578)
(106.460204 -0.1145521854 -1.055177927)
(106.3433075 -0.02313056113 -0.9055274866)
(106.4539661 -0.05430824661 -0.3884578131)
(106.4277457 -0.1483079927 -0.4928939685)
(106.3928709 0.2770445919 -0.6098763602)
(108.8381324 -0.3693197548 -0.5705419164)
(109.1073759 0.2043185143 -0.619493125)
(109.2599403 -0.1709846006 -1.130672853)
(108.8155789 0.2042540663 -0.4475203779)
(108.8569525 -0.4450316403 -0.3748547655)
(112.1854373 -0.2093122156 -0.3899956402)
(111.6167199 -0.06648383587 -0.4764301529)
(111.7637943 -0.2205737033 -0.5629725851)
(112.229829 0.3046379468 -0.7474155053)
(111.5276155 0.3468554458 -0.9193746609)
(114.4861181 -0.3663681472 -0.1750888267)
(114.4185925 0.5459887027 -0.5408113275)
(114.3187325 -0.3380204275 -0.2431671247)
(114.4445922 0.4284025562 -0.9220273532)
(114.4928727 -0.3365891161 -1.191458049)
(116.9652318 -0.3480599029 -0.03604320807)
(116.6626961 -0.1744751048 -0.7537357757)
(116.8704003 0.167020483 -0.2624269768)
(116.7483248 0.04243124485 -0.5499363589)
(116.738374 -0.01176342156 -1.10389192)
(119.4751659 -0.1486367762 -0.1136645943)
(119.1791 0.04791528033 -0.7457703355)
(119.3543803 -0.3084241313 -0.739794213)
(119.9291376 0.1079608088 -0.5527339296)
(119.5217909 -0.03030087118 -0.5358346998)
(122.6096875 0.1736506711 -0.6471345871)
(122.5496225 0.1500756891 -0.9421090528)
(122.6761688 -0.06545505228 -0.8825285928)
(122.3707052 0.1898613908 -0.3614256842)
(122.2627138 -0.2592319875 -1.123615891)
(125.0258396 -0.07094120977 -0.238685854)
(125.0137091 -0.3979452555 -0.9380206459)
(124.8760487 0.4262677633 -0.911174664)
(125.1672763 -0.2034094396 -0.1558316098)
(124.7170736 -0.01749502143 -1.074972539)
(127.1890353 -0.02895649727 -0.001097640698)
(127.2311669 0.0973970782 -0.06024573504)
(127.573693 0.05994662885 -0.7839569359)
(127.5960874 0.06704991563 -0.7762766734)
(127.6337364 0.212472537 -0.6671081768)
(130.5255386 0.1430788777 -0.1391447193)
(130.1835769 -0.6999034779 -0.6289188093)
(129.8450381 -0.1175694059 -0.310968062)
(130.2950086 -0.02498068673 -0.6562515838)
(130.2450705 -0.02483708122 -0.3392525583)
(132.9625781 0.0319312261 -0.5151468248)
(132.4428474 0.3181282918 -0.5192964412)
(132.672705 -0.06754536293 -0.5386173981)
(132.7106893 -0.26825718 0.05341375628)
(133.0193862 -0.01084687208 -1.185437882)
(135.3849925 -0.1823352495 0.04906294241)
(135.7073878 0.06787675306 -0.1761784803)
(135.1455791 0.1277432675 -1.192497966)
(135.1609111 -0.1208935953 -0.8178669345)
(135.0508821 -0.3420528932 -0.5467977207)
(137.8856414 -0.06485309559 -0.2854877957)
(138.4176851 0.3658470143 -0.6486413041)
(137.8820924 0.1678131216 -0.5831804107)
(138.5740051 0.06073661559 -1.149408762)
(138.2458911 -0.09329164677 -0.6856301769)
(140.5239733 0.2508232374 -0.1278489647)
(140.4162898 -0.1480679238 -0.3860891008)
(140.8882329 -0.1423921002 -0.008686082726)
(140.8317482 -0.3773887516 -0.750394786)
(140.9773539 -0.3138394186 -0.7738413759)
(143.7440527 0.1227834147 -0.5226005786)
(143.6827965 0.2820184334 -0.09418181209)
(144.0120083 -0.5704455266 -0.6068740296)
(143.6428865 -0.1131879961 -0.7602075302)
(143.2702416 -0.2589635295 -1.211961233)
(145.9484573 0.3366891637 -1.209465372)
(146.1721372 -0.3488284784 -0.7851334449)
(146.2819669 -0.09983473275 -0.9741668924)
(145.9308785 0.6249552219 -1.087685948)
(145.8049532 0.09885613324 -1.275342476)
(148.3575297 0.2276544331 -0.4249759401)
(148.2994072 -0.249026444 -1.075175752)
(148.4531067 -0.1920502994 -1.056965067)
(148.4212233 -0.2060080874 -0.8375924374)
(148.9899588 0.1624820355 -0.4688745253)
(151.0960046 -0.06318263069 -0.6831896219)
(151.2498145 0.04880829842 -0.5055948452)
(151.1144266 -0.1392239253 -1.146620262)
(151.1390221 0.1828186113 -0.8014818108)
(150.6766135 0.1975728192 -0.8830830149)
(153.5032542 -0.2403541357 -0.2032744341)
(153.4345012 -0.3464894681 -0.03961763486)
(154.2663191 0.01272701552 -0.7857772093)
(153.5374493 -0.1755074804 -0.7874213802)
(153.7990752 0.1786275751 -0.6313909818)
(156.4899308 -0.02184302594 -0.3422481336)
(156.1756807 -0.3710487236 -0.5513654666)
(156.1893532 0.1613182384 -1.009076601)
(156.429248 -0.2327949 -0.3596057544)
(156.3006868 0.3474300138 -0.3338797472)
(159.6041559 -0.3096907725 -0.7968561707)
(159.3193879 0.1430447933 -0.3647202064)
(159.3154011 0.1350195349 -0.4539863053)
(159.0288678 -0.08803094819 -0.3867161632)
(158.6927069 0.03239093425 -1.02986943)
(160.9792896 -0.1864691531 -0.1797016012)
(161.6360256 -0.02366577543 -0.3815501193)
(161.2460692 0.4403838868 -0.5522613898)
(160.916012 0.05439177108 -0.9063248769)
(161.6278346 -0.3239942773 -1.256327227)
(163.6619178 -0.08054162623 -0.7298700476)
(164.0727304 0.4609285424 -0.7915954892)
(163.3940965 -0.03332336913 -0.2310216972)
(164.223757 -0.086564537 -0.8187409995)
(164.326691 -0.2164120966 -0.8973551416)
(166.424591 0.0186845713 -0.3649509863)
(166.9133175 0.270388621 -0.3776741856)
(166.6943391 0.08587672225 -0.2044194933)
(167.0449334 -0.2763234629 -0.7885079357)
(166.4281105 0.1712566123 -0.2858897809)
(169.1343787 0.02383364837 -0.3265183305)
(169.2828797 -0.2333940227 -0.4265444386)
(169.4577235 -0.1147201363 -0.7173029473)
(169.2390399 -0.5353550308 -0.8696388583)
(169.1465553 0.112229837 -0.05313895347)
(172.4425815 -0.03494067302 -0.09535586363)
(171.4281496 -0.2502753939 0.2079565278)
(172.4611602 0.001924516099 0.09135788118)
(172.0591846 0.1581697011 -0.4918095531)
(171.7849622 0.1655060889 -0.3251901178)
(174.3377003 -0.2601955324 -0.244013206)
(174.3329857 -0.1861832172 -0.1660240575)
(174.6651491 0.0763172397 -0.3683856219)
(174.2679342 0.1366797708 -0.10342883)
(174.6307585 -0.1128190533 -0.5146691431)
(176.7607901 0.04189679509 -0.3302160769)
(177.0021313 0.002219658204 -0.544251195)
(177.051651 -0.06538123303 -0.3251804353)
(176.9155899 -0.2647001446 -0.5337967984)
(176.7882701 0.666565344 -0.1827560955)
(179.3647853 -0.5447778031 0.3261479047)
(179.2039959 0.293074871 0.1170786542)
(178.9867938 -0.5701933065 -0.4460963866)
(179.4850669 0.3791744496 -0.383568897)
(179.2226051 0.351625861 -0.6648820377)
(181.3244558 0.03627737432 -0.3434907292)
(181.4402994 -0.07383483011 -0.01638348911)
(180.9265431 -0.6669330272 0.2389483493)
(181.4780661 -0.2871565738 0.03303318135)
(181.8842043 0.2149122247 0.8242345558)
(184.401684 0.3051749492 -0.808598332)
(184.2400547 -0.028578696 -0.3856039981)
(184.6307749 -0.04166773892 -0.7912614362)
(184.6811495 -0.199762974 -0.3832692633)
(184.3724404 0.7332307354 0.2653543603)
(186.8925923 0.00849236624 -0.263925667)
(187.3004797 -0.2428333833 -0.1113089279)
(187.3600572 0.04960789344 -0.6545795589)
(186.8793191 -0.7431924107 -0.07495689891)
(186.7730915 0.7920395795 0.3451678306)
(189.6725711 -0.5887031327 0.08024072965)
(189.2440766 -0.06473143331 -0.2194265381)
(189.5062594 -0.2655133509 -0.601998276)
(189.1270478 0.09995512562 0.1162907845)
(188.7235514 0.4287469244 -0.09819990988)
(191.6166827 -0.6703634203 0.5130202721)
(191.4621708 0.1990917614 -0.4006785098)
(191.4417489 -0.003078226537 -0.8201542076)
(191.4610042 0.5589118417 0.348851433)
(191.5019481 -0.1357542135 -0.2818513615)
(194.3858222 -0.5960647565 -0.1761325697)
(194.2805689 -0.0479514846 0.2218212194)
(194.3206693 0.04396184311 -0.6079596473)
(194.5521984 0.7442486689 0.2585331854)
(194.7106686 -0.02119293849 0.09441560134)
(197.7507267 0.04541256858 0.06414795377)
(197.0963662 -0.4845992958 -0.2855121907)
(196.6052944 0.2619803291 -0.8989853977)
(196.9999068 -0.6665197453 -0.5392194971)
(197.7064587 0.3290759077 -0.8216985365)
(199.4257707 0.6732848539 0.2449877155)
(199.6837242 -0.1051747906 -0.7730217664)
(199.8197905 0.2512095767 -0.427207218)
(199.3552597 0.1901014242 -0.414135321)
(199.2634557 -0.3044480359 -0.5179564126)
(201.8188261 -0.08081472708 -0.2625002067)
(202.0098546 -0.4991990838 -0.4614340818)
(202.1555239 -0.4159439863 -0.2508866619)
(202.1579775 -0.2530561082 -0.7881829386)
(202.3284633 0.1386730047 0.1997393583)
(204.3271689 0.3151061768 -0.2960859899)
(204.6306574 0.3039440157 -1.047612054)
(204.269949 0.1345933938 -0.6698801806)
(204.4405287 -0.2517724724 -0.4229345237)
(204.1281286 0.380776085 -0.4882172849)
(206.9153718 -0.3816385378 -0.7009207739)
(206.9039041 -0.07763784202 -1.002568294)
(207.1268537 -0.07444163634 -0.6998987564)
(206.8982275 -0.1027846311 -0.1769644097)
(206.6456975 0.09474261333 -0.2469629552)
(209.3717828 0.0525391441 -0.2761630032)
(209.4743842 0.1987581631 -0.03543155931)
(209.257044 0.2295204987 0.2373455432)
(209.3706872 -0.2369684421 -0.5317059375)
(209.1539392 0.2677580629 -0.3002245946)
(212.1168586 -0.3911661072 0.2987357028)
(211.8086384 0.1466857259 -0.3849830274)
(211.8673027 0.6271123207 -0.3969050886)
(212.043626 -0.3119587293 -0.07807844452)
(212.2367573 -0.2296464684 -0.1470189261)
(214.3062523 0.1091712687 -0.03363026785)
(214.3365715 0.2352725282 0.1906403141)
(214.4126645 -0.2503296613 -0.3440280692)
(214.5559633 -0.2028261597 0.1889620717)
(214.1748913 0.4382249214 -0.1223833162)
(216.3899391 -0.4470068802 -0.8635960411)
(216.3896093 -0.1621064304 -0.04888771856)
(216.6464157 0.06335589093 -0.2605136168)
(216.3273322 0.04053288434 -0.4923348811)
(216.7868747 0.1826187127 -0.5456143822)
(219.0916497 0.2398701671 -0.4563836479)
(219.1174746 -0.4859481474 0.2057937775)
(218.8144918 -0.2638237958 -0.1577239369)
(219.377856 -0.4365464997 -0.8174080572)
(219.1343822 0.2805364332 -0.01631104328)
(221.993679 -0.2477214195 -0.2546290605)
(221.3767149 0.07481147929 -0.2875546403)
(222.1482177 0.3350610624 -0.8475511993)
(222.0546247 -0.4353458265 -0.4817945248)
(221.9700792 0.5421923664 -0.8986677423)
(224.1776057 -0.3335216001 -0.6825950685)
(224.5151423 0.187532317 -0.2042225976)
(223.9710854 -0.02479183527 -1.52680534)
(224.0323939 -0.07702680139 -0.196262137)
(224.1117671 -0.1407931425 -0.7061969845)
(226.4760498 0.4208976318 0.2174874031)
(226.7870267 -0.4224117847 -0.03357782242)
(227.1795014 0.09792009568 -0.4286356102)
(227.2049264 -0.5678951827 -0.7502909458)
(226.738996 0.1982491827 0.09028885881)
(229.9082439 -0.2919745922 -0.2390428414)
(230.0479729 -0.1785501313 -0.04687643402)
(229.1542316 0.4231591061 -0.5467722196)
(229.6580917 0.1033098419 -0.1951872427)
(229.2307871 -0.1558446445 -0.5493890897)
(231.8086949 -0.09050228188 -0.1424718495)
(231.659019 0.3012507313 -0.4734873668)
(231.384659 0.01002152525 0.1001853434)
(231.705827 -0.1507165331 0.02969184201)
(231.6750974 -0.1460309196 0.2890341926)
(234.3482863 -0.2416109445 -0.2578366493)
(233.9814345 0.1458658172 -0.5024177251)
(234.2910581 0.1880311782 -0.4828916971)
(233.9648872 -0.3875808086 0.4119321511)
(234.4024735 -0.3035374413 -0.3157924682)
(236.3685186 -0.1058300605 0.07553710234)
(236.5248106 0.2657591838 0.08241539259)
(236.4234651 0.7710711004 -0.1126314801)
(236.9218928 -0.5093343436 0.3625540329)
(236.7308828 -0.3212736867 0.6056256084)
(239.0164117 0.09539880322 -0.2085279149)
(239.3977199 0.1683633069 0.9260832406)
(238.966203 -0.03529948923 -0.3929718695)
(239.3004573 -0.1408512924 0.06615792113)
(239.7816722 -0.004032999401 0.1691919295)
(241.095866 -0.1600162621 0.2067887174)
(241.26658 0.2413293763 0.484680611)
(241.4114427 -0.2400988763 -0.4262567222)
(240.8362427 -0.2922606199 0.2701520513)
(240.7990008 -0.2436916932 -0.4656998999)
(243.5962005 -0.1044617075 0.03749576772)
(244.0981977 0.2677903448 0.07954689165)
(243.311252 0.2257777772 0.1748036255)
(243.7173668 -0.07941769745 0.4150862445)
(243.6365606 -0.09169070053 0.1841346668)
(246.0008501 0.008155810137 -0.4039443927)
(246.1475482 0.04418004338 -0.3494516598)
(246.2439294 0.4168119246 0.5339230179)
(246.3395076 -0.1760496809 0.5089652783)
(246.6521517 -0.5687462559 -0.2230022052)
(248.7355255 -0.01751772285 0.1634606147)
(249.1879584 0.04711590523 0.2859861472)
(248.8197493 0.3843290628 1.016905435)
(248.8914753 -0.1451933159 0.7127159785)
(248.9129707 0.2435891387 0.2283004819)
(251.1551483 0.03832119862 -0.31118311)
(251.0293741 -0.08834369371 -0.5402478151)
(250.862024 -0.3943995745 -0.01517635021)
(251.2525754 0.1073659134 0.1042524444)
(251.1703949 -0.1205247975 -0.1010041313)
(253.0437173 0.3632118585 -0.2318346975)
(253.5710615 -0.2587218512 0.291878905)
(253.5312865 -0.2761895042 0.02664842807)
(253.6404061 0.4140146871 -0.2070921188)
(254.1896552 0.3686731964 -0.02935928547)
(256.7543756 -0.1581941456 -0.3325896651)
(256.6243217 -0.1266126447 0.05822462878)
(255.9511597 -0.2713093266 0.04842316456)
(256.4706789 0.5358259684 0.4218842988)
(256.23276 -0.3478045998 -0.09006513896)
(258.9689329 0.2627396611 -0.04554910475)
(258.8276017 -0.5271397288 0.5368782378)
(258.6619251 0.2422276661 0.08214292589)
(259.0570953 -0.2508189779 0.03263507328)
(258.9635617 0.3243558462 0.04396361862)
(261.1845825 0.3349656259 -0.3431239317)
(261.7929126 -0.2447759386 -0.01702324483)
(261.3531949 -0.03858810649 -0.2749835684)
(261.7990673 -0.0132913969 -0.2143497489)
(261.8115255 -0.1869592401 -0.284492615)
(263.8763243 -0.2616074624 -0.5239301383)
(263.8004405 0.2477323282 0.3103771425)
(263.7929387 -0.2445345315 -0.2422519317)
(263.6116224 -0.5327406014 -0.06048556219)
(264.2013502 0.03907702043 0.2483909217)
(266.1869075 0.4050307128 -0.7577179641)
(266.9704302 0.03592561496 0.03402061185)
(266.4389971 0.08443627498 -0.06794578368)
(266.4393973 -0.347601249 -0.1821785124)
(266.6813501 0.2927173455 0.05883609373)
(269.6641021 -0.007552403623 -0.4814611984)
(269.7383936 -0.1045014955 -0.8076012771)
(269.581397 -0.1122256218 -0.9950291898)
(269.140835 -0.358967591 0.4186145766)
(269.7860554 -0.1196853128 -0.4859972654)
(272.0347936 0.5226784895 -0.9286333809)
(272.0547832 -0.1517394299 -1.099427883)
(272.3695317 0.2691140984 -0.6828165687)
(271.9412795 0.2207088962 -0.204089754)
(271.8700655 -0.5632281388 -0.3686287253)
(274.9714074 -0.08214613516 -0.6703636205)
(274.4772375 0.6111206025 -0.722121424)
(274.5047469 0.1058760751 -0.2638669103)
(275.1687376 -0.499927332 -0.3926547163)
(274.2895447 -0.07918248264 -0.9956101903)
(277.5346869 -0.1400448938 0.08061549947)
(277.9243202 -0.3993585236 -0.255813422)
(277.810938 -0.213656833 -0.2494200516)
(278.0889722 -0.2822051244 -0.0967625356)
(277.7444796 0.1948727959 -0.7392157039)
(281.6923424 0.1716609806 -0.0326893105)
(281.0623333 0.2001334233 -0.2307700792)
(281.9274603 -0.2562056514 0.1376919926)
(281.3893727 -0.5688000391 -0.7920770944)
(281.5008897 0.2303745489 -0.4169696928)
)
;

boundaryField
{
    upperWall
    {
        type            calculated;
        value           nonuniform List<vector> 5((285.740382 0 0.3103291798) (283.8114751 0 0.1854751294) (282.8544525 0 0.9272093944) (284.1828103 0 0.1344120663) (284.1402179 0 0.612161457));
    }
    lowerWall
    {
        type            calculated;
        value           nonuniform List<vector> 5((13.45933975 0 0.113778731) (11.79455884 0 -0.4232802297) (13.57822651 0 0.5632286827) (12.6877275 0 -0.9393888441) (12.21417857 0 0.01847405017));
    }
    periodicX_half0
    {
        type            cyclic;
    }
    periodicX_half1
    {
        type            cyclic;
    }
    frontAndBack
    {
        type            empty;
    }
}


// ************************************************************************* //
