/*--------------------------------*- C++ -*----------------------------------*\
| =========                 |                                                 |
| \\      /  F ield         | OpenFOAM: The Open Source CFD Toolbox           |
|  \\    /   O peration     | Version:  v1706                                 |
|   \\  /    A nd           | Web:      www.OpenFOAM.com                      |
|    \\/     M anipulation  |                                                 |
\*---------------------------------------------------------------------------*/
FoamFile
{
    version     2.0;
    format      ascii;
    class       volVectorField;
    location    "5";
    object      UMean_mixture;
}
// * * * * * * * * * * * * * * * * * * * * * * * * * * * * * * * * * * * * * //

dimensions      [0 1 -1 0 0 0 0];


internalField   nonuniform List<vector> 
500
(
(15.41509299 0.09149451904 0.0296223802)
(15.38973534 0.09332780875 -0.1586775044)
(15.53121968 0.0611959426 -0.153621847)
(15.5761924 0.1101730717 0.08514207124)
(15.36398262 0.07676870133 0.07253061711)
(19.54069136 0.004893335042 0.2551917391)
(19.87487245 -0.1427539319 0.00453354712)
(19.66073107 -0.01604869995 -0.1413503391)
(19.7960345 0.06782020537 0.03383202809)
(19.75637332 -0.01872424915 -0.0659380073)
(23.44988408 -0.1462940559 0.08747875647)
(23.47545541 0.1152359565 -0.01069250692)
(23.3343093 0.07630822826 0.07358803544)
(23.2905311 -0.05132272847 0.1543678498)
(23.24766449 -0.0681308428 0.0439480029)
(26.61555394 -0.1275544049 0.01763630066)
(26.8096376 -0.1216475065 0.4357682996)
(26.77029703 -0.04569377431 -0.03618739328)
(26.69164382 0.1922632388 0.02362823368)
(26.7848643 0.02366825751 0.06749866801)
(30.08356277 -0.05136490615 0.2598071362)
(29.95101633 0.02264422686 0.4432080479)
(30.03342879 0.1077299288 0.08953645141)
(29.93309575 0.1843596622 0.2348095779)
(29.95891056 -0.03302637009 0.2116100878)
(33.13542436 -0.1055205523 0.3793054995)
(33.19680084 0.01157272965 0.3447868483)
(33.14708002 0.04748965176 0.2792121016)
(33.16753636 -0.06583006023 0.2233184846)
(33.07684763 -0.03162378483 0.2643470869)
(36.0843179 0.002715365051 -0.0303231477)
(36.20846907 -0.1421023066 0.2065536226)
(36.25668848 0.1450613575 0.244245763)
(36.18828118 0.07911761688 0.2303929641)
(36.39164593 0.1254441252 -0.03771031944)
(38.98446789 0.03566261449 -0.1480819414)
(39.24608369 -0.1956521734 0.05906168616)
(38.95911556 0.004041547031 -0.0897260642)
(38.97248072 0.104235831 0.05850633335)
(38.97440286 -0.02472362388 -0.1292698398)
(41.74953151 -0.2296651612 -0.1249279791)
(42.02379429 0.05565636622 0.1790903777)
(41.87797564 -0.02209536681 -0.05922476741)
(41.99009401 0.05291492458 0.1270048372)
(42.10337576 0.07145121655 0.03981670772)
(44.97849734 -0.0775427357 0.07454935995)
(44.95992943 -0.1275376422 0.3617621057)
(44.70008146 0.1509306431 -0.1013386827)
(44.90252498 0.07394604333 -0.04935999346)
(45.01626223 0.2181994472 0.09821256009)
(47.66753364 0.04604477418 0.2802703863)
(47.72343224 -0.07388934246 0.03351215944)
(47.59826636 0.1537784124 0.1981799287)
(47.71331036 -0.2442228042 -0.06985288299)
(47.76570984 -0.005977043334 0.1241442868)
(50.60404991 0.02452449787 0.1253893899)
(50.49794917 -0.04685238182 -0.07700408711)
(50.53984899 0.01485008508 0.1094467643)
(50.58059333 0.006745315231 0.04132208719)
(50.47959827 0.02122381767 0.05992374283)
(53.23926547 -0.2091042232 -0.2187228778)
(53.52485617 0.1671901752 0.003407844954)
(53.23742796 -0.0865352413 -0.03835326939)
(53.427323 -0.07264854818 -0.08373635665)
(53.42450418 0.3324882363 0.1211806619)
(56.41906854 -0.06257450004 -0.2450486391)
(56.17628886 -0.02258508429 0.1203657629)
(56.12196199 -0.02260435627 -0.09713153687)
(56.15764645 -0.1494343452 -0.02965611822)
(56.24000233 -0.009401179899 -0.1397628291)
(58.83767407 0.06741870704 0.03065139203)
(59.0887221 0.09935969724 -0.1282348698)
(59.18201126 0.1061983383 0.1261976657)
(59.01306004 -0.1115637526 -0.2097411041)
(59.09982493 -0.02121268851 -0.03769423158)
(62.1456178 -0.140091998 0.04812181925)
(62.17997593 -0.1041501373 -0.1031472253)
(62.2005549 -0.05612032544 -0.2163080237)
(62.05609531 0.1350571424 -0.03452037375)
(61.87744887 0.04084549144 0.04383743879)
(64.9285717 -0.06639272276 -0.249362528)
(64.89294213 0.01489452806 -0.001110669709)
(64.84323297 -0.01299480447 0.1801298511)
(65.06611827 0.1526677498 0.2440044233)
(64.85412778 0.1610892498 0.3516461588)
(67.71270693 -0.2831286526 0.08550947872)
(67.61822073 -0.1666711492 0.08960710369)
(67.66860497 0.1655629628 0.01311220458)
(67.42704512 -0.007496701559 0.05123653418)
(67.55230008 -0.005910736791 0.238200224)
(70.39109961 0.07592762337 -0.07731639721)
(70.19689559 -0.005550584578 0.06652384124)
(70.33765825 0.05570337471 0.2646996938)
(70.46814431 -0.008378160014 0.1702805073)
(70.42640148 0.1176903771 0.1454454796)
(73.40262151 0.02125968714 -0.02467589027)
(73.32201164 -0.04940482916 0.1826633706)
(73.53896659 -0.008744072292 0.2859380797)
(73.28512227 -0.02150874179 0.1939472319)
(73.2617522 -0.02055154282 0.1970625474)
(75.81896796 -0.08157376992 0.2854823599)
(75.96799045 0.0168069397 0.01966036922)
(76.23475776 -0.08973607811 0.2185839319)
(75.99824858 0.005928390029 0.07826409986)
(75.929104 0.1125424479 -0.1190232693)
(79.19978757 0.01752530878 -0.1983931732)
(78.91982616 -0.215457756 0.1049872325)
(78.99144914 -0.06551893817 0.2530585509)
(78.98220675 0.116353149 0.2167836517)
(78.84478674 0.2538600121 -0.07065800692)
(81.88697925 0.1705136725 0.1804551604)
(81.66730389 -0.1747227032 0.02353883377)
(81.80596067 -0.05599181792 0.3407365008)
(81.7542409 0.2236969875 0.1643483542)
(81.75291416 -0.1355509973 0.2122239471)
(84.65901669 0.1925110361 0.2432005148)
(84.55324718 -0.1184984031 -0.01662979442)
(84.45807022 -0.1435650657 0.01053388195)
(84.55953656 0.1165168281 0.2999655933)
(84.59376786 -0.1262056592 0.1878649205)
(87.3074607 -0.03002939816 0.1957227407)
(87.32530516 0.2536578688 0.2653703713)
(87.1341421 -0.06971824211 0.08694606705)
(87.37437506 -0.1766472192 0.3129154525)
(87.26682562 0.01063454175 0.315259513)
(89.96715198 0.1382480823 0.1737334368)
(89.96104839 -0.0102572992 0.1289624198)
(90.09942967 0.1690786953 0.07374906631)
(89.74024424 -0.1571758393 0.3257729483)
(89.92495812 -0.07737884717 0.005224460536)
(92.82682197 0.03242071247 0.2493275658)
(92.57222275 0.1734047355 0.08242149898)
(92.65764683 0.06888139946 0.006693294629)
(92.92986349 -0.2439765058 -0.07469466894)
(92.73511658 -0.02858702199 0.349307233)
(95.74500927 0.1113999302 0.3168023506)
(95.85865613 -0.1283754924 0.1793479688)
(95.72764209 0.09288229024 0.08514313367)
(95.61136459 -0.1009806472 0.4804540097)
(95.53275406 -0.03788240319 0.5157525894)
(98.39137585 -0.111398309 0.279781454)
(98.81257789 -0.03442132763 0.5128292127)
(98.30243852 0.133880084 0.4555324984)
(98.66163644 0.1540697782 0.1578387383)
(98.56887473 -0.01115513647 0.4298424361)
(101.3508089 -0.08004486764 0.3988036005)
(101.3321553 -0.1302630517 0.4895602053)
(101.2573433 0.2541736151 0.4111088439)
(101.3567312 -0.1200550185 0.08804788544)
(101.1401819 -0.01381578055 0.4275586011)
(103.7590983 -0.05900756921 0.1830826236)
(103.4978342 0.04033748927 0.309126964)
(103.7303697 -0.05626780226 0.2876759417)
(103.7723838 -0.05499014499 0.5056738172)
(103.8116979 0.08436458474 0.3805986196)
(106.4432967 0.1119648364 0.4774483453)
(106.5592717 0.1273686568 0.3959082029)
(106.4698896 -0.1271968827 0.4186351367)
(106.636742 0.03579796927 0.5799180881)
(106.7961069 0.007493356833 0.4151652792)
(109.4580872 -0.05762225969 0.5469195289)
(109.3911699 -0.2119214152 0.3797838268)
(109.3200958 0.05579661307 0.7189696645)
(109.1440051 -0.07810799998 0.6119414293)
(109.1324582 0.1459412466 0.3612345103)
(111.9324686 -0.001032463653 0.4539587266)
(112.0011831 0.1588310481 0.5874433819)
(111.8635733 -0.06837335216 0.6345937603)
(112.0419266 0.07721441396 0.6856873247)
(112.1114141 -0.1205627276 0.4276457696)
(114.7821145 0.1872642407 0.6991086698)
(114.6339911 -0.002023827286 0.6505872231)
(114.4503152 -0.04580998216 0.6291558453)
(114.6365009 0.1350486716 0.6631353221)
(114.5495423 -0.1037370434 0.3913025174)
(117.3238279 0.007515528065 0.4884035759)
(117.590283 0.1003369977 0.5353946587)
(117.3733147 0.01280886051 0.4761072233)
(117.4310348 -0.09263270602 0.4055924363)
(117.3803355 -0.1699295966 0.3519332208)
(119.8594826 -0.09118307769 0.4219267823)
(119.8892494 0.1819566421 0.1941018567)
(119.9375583 0.03506756357 0.4331018657)
(120.0292995 -0.01609628439 0.3544222148)
(119.8237624 -0.01084874431 0.462037197)
(122.685802 -0.07032846625 0.4347375761)
(122.9016505 0.07994464761 0.5510539664)
(122.6134356 0.06834924167 0.5255543609)
(122.7504241 -0.03039267479 0.5249610835)
(122.7606447 -0.08796490791 0.1762306331)
(125.560774 0.04892988698 0.3800342945)
(125.5184617 0.1901820636 0.639257702)
(125.4017731 0.1132164637 0.5206198573)
(125.4414402 -0.154301282 0.4942555134)
(125.6776779 -0.1454183746 0.5225748398)
(127.9373209 0.07443668232 0.4232437802)
(127.8909073 0.2905037053 0.1692916144)
(128.0953104 -0.02042054904 0.678927887)
(128.1050867 -0.2312205261 0.2646457611)
(128.0533923 -0.1177622319 0.3092403302)
(130.4861557 0.06570726929 0.3913410367)
(130.5022131 0.1161893843 0.3490046294)
(130.32821 0.1144308854 0.5507045451)
(130.2387461 -0.2641362471 0.5609189607)
(130.3600459 -0.1698733048 0.2258429066)
(133.0939188 0.1065299168 0.1658276634)
(133.1561933 0.1716826274 0.5539844775)
(133.2754815 0.08946177956 0.4950317019)
(132.9651688 -0.1361636051 0.4799608513)
(133.2191102 -0.02519385191 0.3587998274)
(135.6657947 0.1531621921 0.3175492414)
(135.6186509 0.1273121793 0.2968960221)
(135.4493593 -0.003432384626 0.7008385129)
(135.8947623 -0.008031399306 0.7813203181)
(135.9651358 -0.1783356637 0.7006006727)
(138.3309876 0.1043630773 0.5020007118)
(138.489578 0.006997238243 0.4416074335)
(138.485565 -0.2076414206 0.5049746749)
(138.4939527 -0.07029283845 0.5429450586)
(138.3953921 -0.111196936 0.7922423403)
(140.9625616 0.2978457748 0.5198507668)
(141.1725177 0.04691612037 0.3567298531)
(141.05618 -0.0852157326 0.6588190565)
(141.2257001 0.01135584081 0.4917523376)
(141.0036207 -0.06993572532 0.4228149825)
(143.7425636 -0.004986730063 0.3387000911)
(143.9747248 0.051866363 0.7708180089)
(143.6667819 -0.2174230302 0.4419384215)
(143.7289854 -0.1436287407 0.2819022356)
(144.0357344 0.1648661048 0.3219799093)
(146.3634907 0.1470423577 0.3609973159)
(146.5012987 0.1918837701 0.4703093613)
(146.4151461 0.008892318096 0.4639267471)
(146.4369436 -0.2214706098 0.4887618026)
(146.2542695 -0.1294391387 0.1971617569)
(148.8077964 -0.002045094645 0.5145876117)
(149.0097808 0.009738728567 0.6293554913)
(148.8505989 0.0521694768 0.4800332056)
(148.834436 -0.02581666166 0.5723435262)
(148.8582249 -0.08014438414 0.422950384)
(151.6177337 0.01055195381 0.5864226972)
(151.3004883 -0.3640339524 0.4226663736)
(151.5188399 0.3706929959 0.4447241549)
(151.7743759 0.006951704877 0.2410013894)
(151.4419029 0.08862198976 0.4727670472)
(154.1149059 -0.06101000155 0.5781762655)
(153.980881 0.001459552216 0.8462516624)
(154.1437135 -0.143814671 0.4204288541)
(154.048185 0.01646528995 0.1449624213)
(154.0159655 0.06202113345 0.427257985)
(156.5441789 -0.2760098623 0.2681858636)
(156.6876171 0.146560502 0.1402064003)
(156.5639275 0.005802237712 0.4272056003)
(156.5827763 0.3202238193 0.2900139753)
(156.8279276 -0.004578640257 0.3169646366)
(159.240112 -0.00324351322 0.4410322845)
(159.2889771 -0.3014443398 0.3255165453)
(159.1930456 -0.1659482964 0.2910614032)
(159.2487024 0.2213624692 0.3472102478)
(159.2251388 -0.06162874292 0.3489683777)
(161.7293415 -0.01125076307 0.3295904995)
(161.7915738 0.110410991 0.2462112358)
(161.6823559 -0.1494921986 0.349429304)
(161.8216043 0.1408704841 0.326518879)
(161.3808891 0.1407199435 0.4874207616)
(164.4199753 -0.2663189833 0.4678888734)
(163.9972479 -0.147329886 0.4016235641)
(164.4365134 0.1903013201 0.6201403688)
(164.3167446 0.3265996902 0.1659112181)
(164.4423042 0.04641446908 0.7129992293)
(166.9276348 0.05199965482 0.5964753724)
(166.8873291 -0.06787741429 0.4896510414)
(166.8334115 0.03186842564 0.455608306)
(166.6922129 -0.2113808621 0.2689898958)
(167.0420066 -0.02198101709 0.5373625791)
(169.4373401 -0.1290106588 0.6365159898)
(169.4317508 0.1296481213 0.5097270291)
(169.4085491 0.1249643148 0.4579041124)
(169.3636318 -0.01637337369 0.3252041709)
(169.5095121 -0.1493556558 0.3392069879)
(172.156002 0.05725950111 0.6190961633)
(172.1549876 0.08552238283 0.9519772457)
(171.9299637 -0.02652970763 0.4182360205)
(172.0406956 -0.1024462762 0.4897997135)
(171.6063841 0.2079275071 0.2952195478)
(174.4921708 0.05178839804 0.5887463158)
(174.3465668 -0.01232981888 0.9785914503)
(174.5801074 0.1555910724 0.7328567429)
(174.4212909 0.1486330255 0.3264356921)
(174.7070648 -0.4416101715 0.4362146272)
(176.8230592 0.07145358214 0.7491892306)
(177.041587 0.1475573587 0.7547285815)
(177.1284762 -0.0630299581 0.7726055531)
(177.0175082 -0.0583606709 0.6680674076)
(177.2113364 -0.2206844027 0.7192919304)
(179.5700015 -0.1086566647 0.5081548476)
(179.5543554 0.09127180872 0.6252061097)
(179.6859039 -0.0178465172 0.3699103904)
(179.5890464 0.08495467238 0.6639923058)
(179.4984957 0.07906961601 0.441779246)
(181.8050827 -0.05305254146 0.5451039588)
(181.9343035 -0.05058333695 0.6730691876)
(182.1022081 -0.08006428663 0.4432218296)
(182.2479176 0.03946088067 0.5455724004)
(182.0710465 0.07313200339 0.5497890951)
(184.7401791 0.1493466346 0.5441141072)
(184.5485535 0.1138122365 0.7448297197)
(184.4040787 -0.06066745356 0.4029843877)
(184.5666676 0.033430246 0.5262946217)
(184.6204355 0.1377167932 0.2775803088)
(187.1389324 0.101433959 0.5032690145)
(186.9890889 0.1553591589 0.4430370607)
(187.0337009 -0.1376500888 0.5838333797)
(186.7515507 -0.1704131646 0.6254566733)
(187.0940225 -0.1061834459 0.7456072932)
(189.3548904 0.09199142024 0.676188602)
(189.7369344 0.1717805488 0.9481547484)
(189.5924219 -0.1118912031 0.9120186034)
(189.6341533 0.0442022126 0.6240647506)
(189.5409859 -0.2837558706 0.7483468181)
(192.1027309 -0.04298438492 0.5425738221)
(192.101463 0.1025855188 0.3666671875)
(192.1105118 0.06380881041 0.8665129152)
(192.0039265 -0.04694783161 0.1432934261)
(192.1377393 -0.1785873554 0.5950331089)
(194.4170153 0.167919669 0.5832873279)
(194.5392951 -0.08623459319 0.7352771287)
(194.4444736 -0.02807883761 0.4544257221)
(194.4561341 0.2121011029 0.2900166021)
(194.4837802 -0.1451818075 0.4444951194)
(197.0549662 -0.2379059088 0.2774769649)
(197.3071207 0.1887170575 0.7054142713)
(197.0413007 -0.160341733 0.3900561531)
(197.2303084 -0.02042651953 0.4461475755)
(197.1507426 -0.022648252 0.7319704717)
(199.3085534 -0.1956162001 0.7110854755)
(199.696852 0.1226847157 0.6198199753)
(199.3535959 0.07126321105 0.3976076616)
(199.4273667 0.2223167356 0.2628012713)
(199.4438855 0.0659359288 0.6764091554)
(202.0471127 -0.0740456063 0.772086688)
(201.9531472 -0.2045864784 0.7128430813)
(201.9242419 0.0384624244 0.4288479019)
(202.0131476 0.3420443211 0.6081539985)
(201.8857901 -0.2043337176 0.6016422567)
(204.4752379 -0.005201717731 0.7756241761)
(204.4498663 0.1103467358 0.6868822642)
(204.2731021 -0.000303123558 0.4087303444)
(204.5829407 0.1609184686 0.4091712762)
(204.4701968 -0.06676853372 0.6260940621)
(207.1452179 0.05934132869 0.4745708009)
(206.7113165 0.1386003439 0.4759309467)
(207.2294864 0.1609755236 0.9449460909)
(206.9204895 -0.2675889749 0.3896554921)
(207.2480285 -0.1036389252 0.5141185934)
(209.3780953 0.2142382062 0.4000019593)
(209.577988 -0.01008605602 0.6882189124)
(209.5363608 -2.3949192e-05 0.4130028168)
(209.5021993 -0.3987066025 0.3843679645)
(209.5995326 -0.06694307244 0.9022887071)
(211.928255 0.3002584211 0.646868974)
(212.0809921 0.03514579041 0.7673563207)
(212.1371104 0.08601230041 0.8098051237)
(211.9602655 -0.1610949806 0.531680439)
(211.772752 -0.0006051914748 0.8250528153)
(214.497628 0.05105182647 0.6951916779)
(214.4920364 -0.0550634247 0.6814872501)
(214.4580328 -0.09183893602 0.4570584115)
(214.2050481 0.01391728149 0.9370260672)
(214.4670439 0.004638165365 0.7126356647)
(216.574212 -0.02797934229 0.8269509428)
(216.85105 0.1923627553 0.7270942858)
(216.7159127 0.03891404682 0.5465931997)
(216.7967549 0.01737479078 0.5418143833)
(216.8752225 -0.1924754238 0.3008153505)
(219.2849984 -0.03354087963 0.6322992035)
(219.1933183 -0.01004383727 0.4247482897)
(219.3279898 -0.06160211729 0.4124682955)
(219.1929477 -0.008130686799 0.2588207006)
(219.3910556 0.03691584726 0.5091130032)
(221.692848 0.2370323084 0.4386221961)
(221.5179745 -0.1436715347 0.3552734758)
(221.8006778 -0.04368474494 0.4219603745)
(221.7627984 0.1456441338 0.7070453438)
(221.7038532 -0.02176567554 0.6649833644)
(224.3285967 0.2208646552 0.4131476725)
(224.4257616 -0.08412160515 0.5670933816)
(224.0987099 0.07304377348 0.3745525926)
(224.1658314 -0.2731022642 0.3718592602)
(224.1073638 -0.1008001281 0.5047574932)
(226.494052 -0.01802287383 0.2799085457)
(226.586335 -0.04676683627 0.2496639939)
(226.8156751 -0.1134989936 0.3807636663)
(226.4864358 -0.04637807048 0.6677761335)
(226.5626062 0.1200034889 0.4604965189)
(229.3453563 0.03106441823 0.3589715777)
(229.4619448 -0.04874499709 0.5102124135)
(229.1479522 -0.3037998605 0.0799608024)
(229.3038547 0.3267848696 0.3778169694)
(229.264339 0.08003694451 0.3710806679)
(231.676051 -0.1188630033 0.3930474245)
(231.6907284 0.0656746313 0.4340033115)
(231.6766507 -0.0890962996 0.2236131644)
(231.6258662 0.06961821927 0.2340932717)
(231.8741739 -0.02508889616 0.6930289006)
(234.1579763 0.0565812247 0.4284634949)
(233.9597904 0.0308621465 0.5114248852)
(234.2928779 0.0150189363 0.2133543005)
(234.0763172 0.1958725927 0.4048736368)
(234.1015849 -0.01411637763 0.6155770886)
(236.7169976 -0.1514895692 0.5023664768)
(236.438937 -0.1522847077 0.2029408812)
(236.5998713 0.1329220367 0.4397445321)
(236.6748133 -0.2475051002 0.2776719196)
(236.5882039 0.1559967129 0.7063883145)
(239.2859646 -0.1239633881 0.4958135354)
(239.0741771 0.06192693939 0.3847176498)
(239.141201 -0.02347143355 0.008860883135)
(238.9391198 0.03827235159 0.1758578862)
(239.1616505 0.1453635262 0.7230933787)
(241.7656187 0.02462369879 0.5681075052)
(241.5416867 0.1056665551 0.2366858332)
(241.7303443 0.01008452276 0.2549445025)
(241.549957 -0.2608795522 0.3343876703)
(241.6111072 0.1141336849 0.5604704012)
(243.8860761 -0.2452438154 0.3027402995)
(244.050925 0.002869566514 0.05290760367)
(243.9757383 0.1784544238 0.3043516669)
(243.8687076 0.3388014094 0.4608928078)
(244.329492 -0.04031323609 0.3208744097)
(246.4546168 0.04116825718 0.1800352599)
(246.4217579 0.05260968451 -0.01903412215)
(246.2287791 -0.02761647161 -0.05220976774)
(246.4457554 -0.3206281991 0.5243251233)
(246.0804401 0.02252814819 0.5243932475)
(248.7264732 0.141227626 0.4323730985)
(248.8651084 -0.01751449281 0.01149138226)
(248.9376503 0.04882090055 0.1136404687)
(248.8246354 -0.02638774069 0.4793855461)
(248.9101995 -0.05897624988 0.08674105225)
(251.1823729 0.2262819616 0.1269927336)
(251.1858407 -0.2180743197 0.2966173078)
(251.2322445 0.01949868345 0.3657602497)
(251.2280277 -0.2149638014 0.3250853934)
(251.0138331 0.1103680956 0.398625372)
(253.7667619 0.0611158923 0.2540995147)
(253.9076392 -0.1696450651 0.2117560504)
(254.0716943 -0.01948475663 0.1238037806)
(253.7495031 0.1795636782 -0.007684664546)
(254.1690662 0.00736103862 0.428852036)
(256.5083145 0.1454907475 0.1178031954)
(256.5211742 -0.03480300638 0.3805655476)
(256.3752142 -0.07244091248 0.3579813936)
(256.5143649 -0.2464046524 -0.1134629029)
(256.52681 0.1675811328 0.2992261939)
(259.2358121 0.04161287612 0.3690146506)
(259.1211063 -0.003699560918 0.4703827811)
(259.2889003 -0.06415648187 0.3240477225)
(259.1383052 0.04399119368 0.4858508281)
(258.9455895 -0.0533022972 0.04975971989)
(261.7472867 -0.03051221175 0.6169447903)
(261.6623569 0.06265637403 0.5011249926)
(261.5587922 0.1149082983 0.2329433821)
(261.6515375 -0.1798701403 0.1592558507)
(261.7461952 0.05960185973 0.5300079484)
(264.4581498 -0.1473644862 0.5116216206)
(264.0460247 -0.00956604397 0.3057778556)
(264.3814293 0.1960044463 0.3936272398)
(264.299362 -0.05346073218 0.6743414933)
(263.9298691 0.120902128 0.7745398741)
(266.7631433 0.06621548851 0.2492177342)
(266.7866558 0.06593670986 0.6966189114)
(266.8537348 0.06148092796 0.5229182784)
(267.0706605 0.01810233059 0.2848881727)
(266.9807021 -0.17793969 0.09243989288)
(269.6926355 -0.2817456683 0.3680094965)
(269.2579223 -0.0103498171 0.3478963413)
(269.5314181 -0.04108125322 0.6158725337)
(269.2503283 0.1383401297 0.2228390759)
(269.5102732 -0.156633883 0.4151490335)
(272.2159326 -0.1691157811 0.6419133232)
(271.9401363 0.1959765083 0.4474443352)
(272.4158487 0.2422965696 0.5466031245)
(272.223744 -0.2432153166 0.5468999381)
(272.2812964 0.1330566386 0.5061537679)
(275.1128395 0.03674869196 0.5416850876)
(274.800768 0.2223436972 0.4035995302)
(274.7851224 -0.004430105156 0.6888145482)
(275.0521599 -0.1193455775 0.5544273965)
(275.0513324 0.2297431233 0.3038776303)
(278.2848731 0.02241116353 0.2763801514)
(278.2809461 -0.3748803845 0.2374789197)
(278.3831828 -0.03840799054 0.3578800631)
(278.0989924 -0.1941541815 0.4804969512)
(278.1490369 0.01625483392 0.09838925939)
(281.6882632 0.04361015201 0.06015746659)
(281.8961082 0.380668118 0.420812107)
(281.6538045 0.09085712903 0.01345390891)
(281.9533189 0.000394080696 -0.05195835683)
(281.7767415 0.2445932044 0.3673123763)
)
;

boundaryField
{
    upperWall
    {
        type            calculated;
        value           nonuniform List<vector> 5((284.1047866 0 0.7827316406) (283.5876894 0 0.618944411) (285.465903 0 0.6735762556) (284.8028922 0 0.2921635907) (284.0548063 0 0.6708030925));
    }
    lowerWall
    {
        type            calculated;
        value           nonuniform List<vector> 5((12.50416349 0 -0.6295799849) (12.15916803 0 0.4218836849) (12.69111481 0 0.1345197733) (12.67467507 0 -0.01173655574) (12.86588865 0 -0.6087337924));
    }
    periodicX_half0
    {
        type            cyclic;
    }
    periodicX_half1
    {
        type            cyclic;
    }
    frontAndBack
    {
        type            empty;
    }
}


// ************************************************************************* //
