/*--------------------------------*- C++ -*----------------------------------*\
| =========                 |                                                 |
| \\      /  F ield         | OpenFOAM: The Open Source CFD Toolbox           |
|  \\    /   O peration     | Version:  v1706                                 |
|   \\  /    A nd           | Web:      www.OpenFOAM.com                      |
|    \\/     M anipulation  |                                                 |
\*---------------------------------------------------------------------------*/
FoamFile
{
    version     2.0;
    format      ascii;
    class       volScalarField;
    location    "5";
    object      variableHardSphereMeanFreePath_O2;
}
// * * * * * * * * * * * * * * * * * * * * * * * * * * * * * * * * * * * * * //

dimensions      [0 1 0 0 0 0 0];


internalField   nonuniform List<scalar> 
500
(
0.227276496
0.227214411
0.2273791577
0.2272089989
0.2272277042
0.2291976304
0.2291972064
0.2291853164
0.2290892626
0.2291909672
0.2309145019
0.2307555787
0.2308718583
0.2308491086
0.2308062537
0.2322595686
0.2324571458
0.2324219063
0.2322289015
0.2324475509
0.2338219058
0.2338383047
0.2339027075
0.233774662
0.2337948224
0.235284446
0.2353961333
0.235247739
0.2351443325
0.2350362338
0.2366842477
0.236759935
0.2366535468
0.2366416474
0.2365662795
0.238058578
0.2381429023
0.2381402378
0.238089075
0.2381508925
0.2393522859
0.2393259874
0.2394835088
0.2394099727
0.2393841661
0.2406195031
0.2407336864
0.2407224664
0.240807988
0.2407130293
0.2421518388
0.2418769458
0.2419671835
0.2420316258
0.2420728751
0.2433704478
0.2433035482
0.2432865548
0.2432704566
0.2433842688
0.2444681541
0.2445596393
0.2445991155
0.2446946227
0.2445453868
0.2459263537
0.2458241933
0.2458070311
0.2459613131
0.2458952859
0.2473234908
0.2470150905
0.2471310345
0.2471291991
0.2469999394
0.2483397863
0.2486179302
0.2484168129
0.2481974171
0.2482432538
0.249809789
0.249878751
0.2494793597
0.2496785082
0.2496317721
0.2509948428
0.250922563
0.2508455081
0.2511003728
0.2511182478
0.2521444107
0.252277098
0.2521328268
0.2521921582
0.2522366913
0.2533034756
0.2535762784
0.2534096411
0.2534681845
0.2531906153
0.254500293
0.2546552959
0.2548823401
0.2547897858
0.2546186954
0.255973549
0.2560878728
0.2560000343
0.2560911112
0.2559521816
0.2573083244
0.2574256718
0.2573679658
0.2572243496
0.2569718911
0.2585098007
0.2585467601
0.2585795528
0.2585047087
0.2583597798
0.2595208402
0.2596506918
0.2596043257
0.2595211022
0.2596317244
0.261015883
0.261162792
0.2608185808
0.2610932638
0.260961001
0.2621630643
0.2622350647
0.2622021824
0.2622052547
0.2620145947
0.2635023579
0.2634653716
0.2634453999
0.2633648159
0.2635130644
0.2648821669
0.2648682225
0.2647501178
0.2648027436
0.2647727689
0.2660812813
0.2660803967
0.2659776266
0.26594237
0.2659564206
0.2672024383
0.267196692
0.2671265491
0.2673473342
0.2672263867
0.2685931871
0.2683693061
0.2683789146
0.2684490241
0.2684998266
0.2697625626
0.2697599464
0.2695741251
0.2692188773
0.2696500404
0.2709118687
0.2709886756
0.2709351296
0.2707360065
0.270630774
0.2720656061
0.2721511582
0.2720323058
0.271879099
0.2720346001
0.2733148075
0.27312916
0.2733054667
0.2732469454
0.2729692405
0.2743854873
0.2744312874
0.2742695443
0.2741512312
0.2742373708
0.2757611
0.2758289541
0.2757105083
0.2754961838
0.2754422151
0.2770714438
0.2770002276
0.276899665
0.2767661895
0.2769160942
0.2781992089
0.2780983004
0.2779636677
0.2779639911
0.2781225894
0.2792986079
0.2793619992
0.2794924137
0.2793841984
0.2792970699
0.2807450783
0.2805823583
0.2805334506
0.280740276
0.2806225625
0.2816742471
0.2819504353
0.2818936234
0.2817811927
0.2816821144
0.2827118515
0.2829514949
0.2828326032
0.2828579902
0.2828440507
0.2840996415
0.284004221
0.2842838126
0.2842646481
0.2840559973
0.2854344497
0.2854219088
0.2852793501
0.2850835344
0.2852753903
0.2864036374
0.2865293685
0.2866630129
0.286578844
0.286445885
0.2876387053
0.2877307229
0.2876673646
0.2879891485
0.2877376967
0.2887931452
0.2889047495
0.2890276561
0.2889464022
0.2893865344
0.2902165571
0.290081985
0.2900858655
0.2903987467
0.2903224058
0.2911730505
0.2912002018
0.2914251376
0.2914829869
0.2917162243
0.2924122233
0.2924854476
0.2927500452
0.2925908534
0.2925224673
0.2938048333
0.2937423007
0.2939742744
0.2937994247
0.2935835882
0.294875133
0.2948820885
0.2950184979
0.2950709952
0.2948643824
0.2960375812
0.2960533952
0.2961747913
0.2961183652
0.2959118958
0.2972850545
0.2973055978
0.2971779383
0.297165436
0.2971472053
0.2984903752
0.298479239
0.2983482051
0.2983714701
0.2985040702
0.2997321627
0.2994925578
0.2995519775
0.2994700463
0.2997550607
0.3008581079
0.3009142994
0.3009219116
0.3007881001
0.3006593236
0.3018791497
0.3017712852
0.3018692654
0.3018287101
0.3018061724
0.3027384364
0.3030490327
0.303044149
0.3030687677
0.3030314787
0.3041272634
0.304253267
0.3042646168
0.3043239701
0.3044995086
0.3051428656
0.3054384719
0.305606487
0.3053810856
0.3054155246
0.3064712598
0.3062516938
0.3065684525
0.3066112619
0.3065511607
0.3076509813
0.3077078918
0.3077778484
0.3078517041
0.307621358
0.3088904546
0.308937384
0.308872702
0.3086295815
0.3086799217
0.3101564816
0.309958768
0.3100911111
0.3099158794
0.3099472091
0.3111789018
0.3111110507
0.31120473
0.3114815191
0.3110218542
0.3123190561
0.3123581305
0.3126131836
0.312512505
0.3125000964
0.3137077436
0.3136242213
0.3136985842
0.3135995431
0.3133260615
0.3146038594
0.3148962352
0.3148010266
0.3145811721
0.3146368843
0.3155868048
0.3156434445
0.3156425186
0.3156362025
0.3157274628
0.3167679384
0.3170201047
0.3168777074
0.3169207071
0.3168647311
0.3179859908
0.3181552222
0.3178388757
0.3182100049
0.3177943345
0.3191265084
0.319240138
0.319133647
0.3191006866
0.3192034273
0.3201478401
0.3203096298
0.3199867755
0.3201511732
0.320136961
0.3213706618
0.321374372
0.3215080464
0.3215717108
0.321323996
0.3226095668
0.3225484909
0.3225082179
0.3228156159
0.3224993472
0.3239450515
0.3238419949
0.3238077484
0.3235910978
0.3236103084
0.3249415162
0.3247923895
0.3248245201
0.3247680257
0.3247482873
0.3258768059
0.326090192
0.3261191512
0.326308773
0.3260244801
0.3271054843
0.3269582844
0.3270692141
0.3270902284
0.327111239
0.3284959012
0.3287439547
0.3284137076
0.3284987825
0.3284232021
0.3299105463
0.3297118973
0.329676429
0.3295878334
0.329903741
0.3307332392
0.330453382
0.3307734594
0.3308202994
0.3307838798
0.3319800731
0.3316968503
0.3317618515
0.3319387808
0.3317912021
0.3330363576
0.3330228544
0.3331166316
0.333083151
0.3329406364
0.3342094387
0.3340463672
0.3339400038
0.3340634721
0.3339617075
0.335083043
0.3353416974
0.3352710772
0.3350814197
0.335091377
0.3362857256
0.3364658321
0.3362513188
0.3362355426
0.3363613658
0.3375106326
0.337695103
0.3375424942
0.3375181991
0.3373125908
0.3386285954
0.3387323995
0.338766991
0.3385191321
0.3383833955
0.3398153903
0.339909347
0.3398192521
0.3400381126
0.3397989221
0.3411300932
0.3409508965
0.3410273655
0.3411623831
0.3410866023
0.3419154091
0.3420439668
0.3419925183
0.3420869533
0.3418658568
0.3432509952
0.3430468711
0.3430229527
0.3433466207
0.3430930422
0.344202827
0.3446620459
0.3446112274
0.3444636618
0.3443459761
0.3460776928
0.3457193271
0.3457373099
0.3460012259
0.3457461028
0.3473423889
0.3472447538
0.3471881242
0.3473828146
0.3471584485
0.3489622504
0.3490056396
0.3490072714
0.349238785
0.3492414952
)
;

boundaryField
{
    upperWall
    {
        type            calculated;
        value           nonuniform List<scalar> 5(0.3489622504 0.3490056396 0.3490072714 0.349238785 0.3492414952);
    }
    lowerWall
    {
        type            calculated;
        value           nonuniform List<scalar> 5(0.227276496 0.227214411 0.2273791577 0.2272089989 0.2272277042);
    }
    periodicX_half0
    {
        type            cyclic;
    }
    periodicX_half1
    {
        type            cyclic;
    }
    frontAndBack
    {
        type            empty;
    }
}


// ************************************************************************* //
