/*--------------------------------*- C++ -*----------------------------------*\
| =========                 |                                                 |
| \\      /  F ield         | OpenFOAM: The Open Source CFD Toolbox           |
|  \\    /   O peration     | Version:  v1706                                 |
|   \\  /    A nd           | Web:      www.OpenFOAM.com                      |
|    \\/     M anipulation  |                                                 |
\*---------------------------------------------------------------------------*/
FoamFile
{
    version     2.0;
    format      ascii;
    class       volScalarField;
    location    "5";
    object      vibrationalT_N2;
}
// * * * * * * * * * * * * * * * * * * * * * * * * * * * * * * * * * * * * * //

dimensions      [0 0 0 1 0 0 0];


internalField   nonuniform List<scalar> 
500
(
2057.805413
2058.255224
2058.324842
2057.699727
2058.28478
2072.795557
2072.959652
2072.838526
2073.18996
2073.187921
2086.359428
2085.832091
2085.769276
2085.918274
2086.599926
2097.607734
2097.445335
2098.0122
2098.104995
2097.412219
2109.201055
2108.715666
2108.814772
2109.00201
2108.316078
2119.83007
2120.080904
2119.549134
2119.222587
2119.1743
2129.370532
2129.728601
2130.32972
2130.384071
2129.064132
2140.562044
2140.854224
2140.495462
2141.207609
2140.616858
2152.247101
2151.040852
2149.355781
2150.509796
2151.937403
2161.907042
2160.738221
2160.709886
2161.084944
2161.424123
2171.199526
2172.012248
2170.918235
2170.228569
2170.400106
2181.848368
2181.764759
2181.566475
2181.581885
2180.651799
2191.922596
2190.869628
2191.569907
2191.78628
2191.881482
2201.301861
2201.70728
2201.580829
2202.234034
2201.315557
2211.223889
2210.621367
2211.283519
2211.769461
2211.140092
2221.276864
2220.359953
2221.407573
2221.654287
2221.088544
2229.778079
2230.665528
2231.63664
2231.287612
2230.779692
2239.352659
2240.091894
2239.809832
2240.086635
2239.758555
2249.596592
2249.60413
2249.066485
2248.665949
2249.568309
2258.846329
2258.275073
2259.450469
2258.22993
2259.198533
2269.156558
2268.142585
2269.211053
2268.248779
2268.813557
2277.987152
2277.627441
2278.264976
2277.895
2277.755862
2286.789925
2287.99028
2288.292985
2286.561623
2287.184716
2297.449695
2296.602953
2296.86593
2296.259451
2297.200378
2306.384855
2305.769805
2305.549208
2305.923839
2306.967684
2315.020883
2315.541811
2315.549785
2314.433667
2315.992866
2324.831946
2323.985675
2323.980614
2325.342027
2326.0148
2333.755012
2333.100131
2333.454595
2334.41209
2333.456594
2342.178562
2342.521304
2342.774648
2342.678746
2342.501439
2351.099139
2350.569339
2351.953692
2351.577312
2351.299699
2360.583087
2359.990729
2360.426262
2360.96253
2360.814629
2370.556535
2369.679304
2369.608192
2370.257257
2370.132511
2378.048401
2377.955288
2377.582135
2378.082544
2378.222368
2386.837115
2386.961149
2386.594503
2388.489296
2387.72039
2395.389489
2396.586991
2395.448102
2396.521039
2396.614561
2405.742632
2405.504573
2405.204579
2404.626083
2405.98991
2414.709573
2414.895426
2414.416292
2414.20568
2414.594616
2421.987423
2422.894851
2423.249843
2423.208538
2422.141456
2432.157128
2432.740607
2431.31972
2430.993595
2431.121445
2440.848813
2440.104661
2440.474849
2441.051077
2441.163812
2449.29279
2449.329521
2448.279166
2449.000572
2449.629939
2457.314456
2457.814337
2458.131462
2458.308983
2458.020119
2466.664942
2466.601357
2465.541793
2467.021111
2466.496219
2474.394749
2475.534123
2475.246965
2475.363524
2476.491273
2482.5532
2483.595042
2483.353967
2483.391196
2482.815252
2492.331797
2492.671587
2493.13059
2492.153946
2491.219399
2501.035538
2500.631261
2500.932365
2499.532087
2501.156636
2508.555597
2509.551193
2509.216644
2508.486283
2509.431641
2518.005037
2517.722198
2517.292671
2518.102109
2518.208768
2526.361955
2526.055953
2526.024014
2526.598419
2526.494697
2535.008945
2535.78891
2536.658186
2536.301624
2535.776352
2544.703108
2543.747064
2544.057669
2544.110013
2543.765674
2552.16562
2551.689946
2551.606174
2551.305679
2551.762972
2560.583221
2559.752184
2560.183926
2560.784471
2561.188278
2568.800763
2567.975025
2568.638303
2568.467352
2569.681511
2577.495671
2577.662966
2576.077772
2576.91122
2577.672588
2584.351287
2584.970153
2585.05309
2584.863478
2584.230422
2593.596015
2593.461433
2593.847994
2592.937139
2593.05274
2602.249033
2602.172107
2602.31885
2601.687033
2600.573819
2608.484557
2609.671568
2611.043784
2609.681938
2609.491459
2616.98398
2617.708994
2617.639239
2617.216011
2617.494138
2626.855536
2625.869148
2627.284013
2625.947318
2626.364492
2634.730976
2633.933187
2633.359682
2633.953468
2633.967763
2643.645927
2642.261356
2642.1693
2640.904264
2642.283395
2650.580554
2651.180509
2649.300026
2649.498368
2651.308449
2657.588689
2658.302203
2659.199286
2657.717092
2657.501622
2665.954523
2665.790541
2667.128018
2665.064933
2665.654131
2672.624501
2672.868349
2674.07452
2673.903086
2673.368167
2681.62861
2681.320004
2681.130958
2681.950724
2682.068239
2689.335906
2690.171431
2689.894908
2689.496967
2690.130192
2698.970248
2698.309785
2698.710683
2697.119081
2698.386829
2706.088469
2704.831492
2704.463528
2705.521655
2706.240164
2714.072786
2713.493741
2712.913211
2714.579361
2714.017364
2722.119508
2721.913287
2721.167948
2721.896483
2722.310307
2731.417414
2730.420644
2729.41508
2729.396258
2729.726299
2739.127291
2739.08974
2737.076589
2738.922936
2739.18866
2746.094964
2746.100467
2745.645398
2745.835631
2746.712118
2755.090561
2753.689432
2753.940374
2754.335987
2753.307005
2762.336002
2762.261343
2763.415882
2761.829524
2762.026069
2770.43742
2770.52746
2771.006152
2770.079622
2768.750333
2777.090088
2779.497381
2778.046508
2776.790928
2777.507831
2786.552226
2785.14507
2785.207234
2785.327472
2784.826824
2792.961361
2793.670976
2791.891536
2793.054693
2792.695777
2802.539823
2801.106461
2801.334036
2800.271283
2799.234984
2809.835573
2809.076949
2809.643822
2809.810662
2808.428055
2817.125951
2816.706636
2817.264038
2817.022159
2816.881227
2825.948279
2825.107561
2824.259564
2824.880709
2824.614661
2832.631102
2833.255931
2833.55076
2833.576243
2832.583129
2841.016679
2841.586821
2840.920564
2841.37226
2839.483367
2848.56316
2849.414035
2848.998032
2848.919347
2847.98834
2856.433701
2856.721951
2857.622115
2857.47789
2855.980746
2863.859446
2864.869229
2864.15072
2865.181376
2864.13184
2872.862895
2872.620802
2872.586212
2873.683497
2873.582743
2881.247136
2880.009264
2880.415582
2880.444355
2880.940368
2889.393942
2889.525781
2888.900663
2889.990707
2889.364791
2897.022812
2897.448667
2899.315172
2897.864703
2896.901469
2907.512896
2907.099977
2906.392061
2907.84106
2906.442064
2915.973015
2915.691608
2917.530293
2916.976827
2917.313574
2926.541929
2926.722262
2926.732447
2927.372983
2927.014029
2939.149237
2938.139031
2938.96433
2937.986261
2938.673571
)
;

boundaryField
{
    upperWall
    {
        type            calculated;
        value           nonuniform List<scalar> 5(2948.796568 2947.861403 2945.468639 2944.713433 2946.712782);
    }
    lowerWall
    {
        type            calculated;
        value           nonuniform List<scalar> 5(2048.556469 2049.13307 2047.083695 2046.902671 2046.814924);
    }
    periodicX_half0
    {
        type            cyclic;
    }
    periodicX_half1
    {
        type            cyclic;
    }
    frontAndBack
    {
        type            empty;
    }
}


// ************************************************************************* //
