/*--------------------------------*- C++ -*----------------------------------*\
| =========                 |                                                 |
| \\      /  F ield         | OpenFOAM: The Open Source CFD Toolbox           |
|  \\    /   O peration     | Version:  v1706                                 |
|   \\  /    A nd           | Web:      www.OpenFOAM.com                      |
|    \\/     M anipulation  |                                                 |
\*---------------------------------------------------------------------------*/
FoamFile
{
    version     2.0;
    format      ascii;
    class       volScalarField;
    location    "0.003";
    object      dsmcNMean_Ar;
}
// * * * * * * * * * * * * * * * * * * * * * * * * * * * * * * * * * * * * * //

dimensions      [0 0 0 0 0 0 0];


internalField   nonuniform List<scalar> 
9720
(
167.1126667
167.934
169.5846667
175.9106667
199.796
167.6573333
169.178
171.8266667
177.854
197.6846667
166.9773333
168.4513333
170.728
175.7533333
191.6493333
167.09
167.7673333
169.7293333
174.186
187.518
167.0906667
168.2346667
169.3633333
173.7193333
184.9
167.4933333
168.3306667
170.0026667
173.6653333
184.116
167.578
168.426
169.4946667
172.71
182.39
167.5533333
167.9386667
169.0666667
172.0346667
181.5686667
167.134
168.1646667
169.6786667
171.228
180.704
166.9826667
167.17
168.0006667
170.5753333
179.628
166.9366667
167.854
168.554
170.824
178.8366667
167.0306667
167.356
168.0553333
170.1633333
178.6833333
167.0793333
167.116
167.9566667
169.684
178.3593333
166.8033333
167.3246667
167.6653333
169.7113333
177.314
166.8893333
167.2606667
168.456
169.6873333
177.38
166.7226667
166.594
167.4333333
169.208
176.712
166.1793333
166.196
166.578
167.4966667
173.916
167.0713333
167.5313333
167.7073333
168.8426667
173.1153333
167.4553333
168.0653333
170.86
176.9653333
195.9406667
166.9586667
168.402
170.4666667
176.5053333
191.7793333
167.548
168.5573333
170.3826667
175.32
185.6086667
167.124
167.7593333
169.12
173.3773333
182.8986667
167.0466667
168.1566667
170.4553333
173.3946667
182.0986667
166.8753333
167.7666667
168.7846667
171.814
179.0353333
166.866
167.5546667
168.3613333
171.2486667
178.1486667
166.742
167.0153333
168.5353333
171.706
177.7993333
166.8286667
167.3626667
168.1953333
171.0846667
177.6993333
166.9666667
167.614
168.006
169.5513333
175.3833333
167.0873333
168.0973333
168.9286667
171.0186667
175.7653333
167.1493333
167.7273333
168.644
170.502
176.5206667
166.3313333
166.348
167.7126667
170.456
175.9473333
167.4346667
168.004
168.852
171.264
176.7873333
166.8973333
166.9966667
167.3786667
169.0626667
175.1973333
167.112
167.3806667
168.1073333
169.6106667
173.566
167.3473333
168.112
168.0333333
168.8906667
173.3253333
166.356
166.5593333
166.496
167.7553333
171.2233333
167.486
168.7666667
170.8986667
176.258
191.644
167.0733333
168.7513333
171.5186667
176.088
187.93
167.5393333
168.4833333
170.808
174.6006667
183.474
167.352
167.7066667
169.5
173.208
179.788
168.032
168.8933333
170.2533333
173.1053333
178.7586667
167.2413333
167.9126667
169.536
171.6566667
175.4046667
166.958
167.424
169.5186667
171.4293333
175.68
167.4766667
168.536
169.3266667
171.2273333
174.6933333
166.8806667
167.634
168.2713333
170.266
174.396
167.0233333
167.4886667
168.6406667
170.772
174.1026667
166.5726667
167.014
167.8526667
169.3986667
172.6633333
166.696
167.19
167.5793333
169.386
173.2493333
167.2226667
167.388
168.5386667
170.154
172.336
166.8106667
167.6926667
168.536
170.656
173.686
166.5573333
167.48
168.5466667
169.6073333
172.4333333
166.636
166.2633333
166.12
167.68
170.6446667
166.9126667
167.364
168.562
169.356
171.2966667
166.5573333
166.9866667
168.0653333
169.3326667
170.7686667
167.276
168.5973333
170.3453333
175.0266667
187.1813333
167.2086667
168.202
170.548
174.9813333
183.738
167.282
168.0413333
169.3386667
172.998
179.7806667
167.1586667
168.1853333
169.098
172.488
177.3553333
166.8373333
167.3046667
168.5013333
170.6633333
173.9146667
167.3173333
168.426
170.3433333
171.9846667
175.6913333
166.964
167.288
168.142
170.3053333
173.9193333
167.2926667
167.2693333
168.504
169.8913333
172.856
166.9746667
167.5906667
168.7206667
170.038
172.9093333
166.948
167.2866667
167.6853333
168.9433333
171.4746667
167.3713333
167.7993333
168.05
170.0373333
171.5346667
167.164
167.78
168.3973333
169.9213333
172.4153333
167.398
167.664
168.4393333
169.62
171.1553333
166.9433333
167.4166667
167.0386667
168.2473333
170.7493333
166.506
166.1513333
167.06
167.9666667
168.966
166.9546667
167.5406667
167.984
168.0213333
169.964
166.7086667
166.4953333
166.596
168.0606667
170.1906667
166.4513333
166.588
166.976
167.1593333
167.8846667
167.5533333
168.612
170.036
173.2473333
183.4873333
167.25
168.4506667
169.3126667
172.37
180.88
167.2666667
167.6666667
169.0166667
171.8273333
177.4386667
167.376
167.852
168.608
170.2326667
174.3973333
167.242
167.9906667
169.704
171.6466667
175.102
167.3053333
168.9
169.2413333
170.502
173.5373333
166.94
167.5433333
169.224
171.1326667
173.3973333
166.7833333
167.3366667
167.74
169.0273333
171.208
166.9653333
168.064
168.8526667
169.8893333
171.6393333
167.15
167.4046667
168.5346667
169.5326667
171.0246667
166.6893333
167.2593333
167.6286667
168.538
170.1646667
167.4533333
167.1066667
166.9873333
168.374
169.6166667
166.6993333
167.3533333
168.544
168.5473333
170.066
166.8826667
167.0173333
167.0646667
168.0453333
168.9353333
166.6766667
166.914
168.184
169.12
170.3193333
166.846
166.5033333
166.62
168.3753333
169.0626667
167.084
167.48
167.594
167.8106667
168.2613333
166.8033333
166.5466667
166.9553333
167.5013333
168.5213333
167.0733333
167.7573333
169.2586667
172.3706667
183.234
167.5613333
167.972
169.5406667
172.716
180.254
166.5866667
167.268
168.546
171.498
177.008
167.3746667
168.372
169.958
171.8393333
174.0866667
167.064
166.73
167.074
169.21
172.1633333
167.1633333
166.952
167.4913333
169.1093333
171.5986667
166.6766667
167.2573333
168.0173333
168.968
171.13
167.1553333
168.4626667
169.0093333
169.7533333
170.6733333
166.9046667
166.8226667
166.7533333
168.0333333
169.1013333
166.6593333
166.5666667
166.8193333
167.7066667
168.6713333
166.9846667
167.5126667
168.4513333
169.3913333
170.016
166.8366667
167.166
167.6993333
168.4113333
169.3033333
166.7186667
166.5926667
167.262
167.2333333
168.5373333
166.8113333
167.3346667
167.0206667
167.7086667
168.286
167.0553333
167.0473333
166.636
167.2493333
168.4093333
167.242
167.364
167.4186667
167.5946667
168.2066667
166.7706667
167.1686667
167.3133333
167.45
167.9686667
166.8293333
166.7693333
166.7106667
167.152
167.644
167.334
168.0286667
169.126
171.6526667
181.144
167.558
168.2746667
169.15
172.054
178.6706667
166.9786667
167.3493333
168.7793333
170.4186667
174.9946667
167.3786667
168.2146667
169.44
171.6853333
174.6113333
167.216
168.5213333
169.6773333
170.7533333
172.338
166.9866667
167.3186667
167.77
168.4173333
170.126
167.192
167.69
167.712
168.0793333
169.7213333
167.1606667
167.214
166.9053333
168.184
169.462
166.7513333
167.0106667
167.2266667
168.0773333
169.0286667
167.062
167.072
168.0826667
168.2506667
169.0013333
166.564
166.7446667
166.4646667
167.248
167.7286667
167.2533333
166.8746667
167.2753333
167.256
167.5246667
166.8206667
166.2606667
166.2333333
166.7613333
166.9233333
166.56
166.3146667
167.5833333
168.1066667
168.7
166.9493333
167.2993333
167.3153333
167.0406667
168.0093333
166.7833333
166.758
166.0633333
166.6553333
167.5633333
166.536
166.4846667
167.0553333
168.244
168.5233333
166.7986667
166.4826667
166.4246667
166.56
166.9433333
166.7126667
167.1846667
168.4253333
171.388
181.3473333
167.42
168.184
169.3646667
171.8053333
177.9886667
166.8153333
167.0706667
167.594
170.2646667
174.6086667
166.946
167.78
168.766
170.41
173.1586667
167.2346667
167.84
169.0273333
169.9053333
172.116
167.158
167.3206667
167.3346667
167.7153333
169.3813333
167.1813333
167.544
167.8213333
168.686
170.1893333
166.568
166.808
167.7906667
168.9733333
169.9806667
166.822
166.56
166.668
167.0186667
168.154
166.922
167.1413333
167.344
168.1913333
168.3586667
166.8106667
167.61
168.358
169.2406667
169.4346667
166.79
167.7386667
168.382
168.7286667
168.9266667
166.7926667
166.7953333
167.3753333
167.3826667
167.366
166.628
166.9013333
166.7733333
166.568
167.0706667
167.298
167.298
167.5373333
168.276
169.048
166.5006667
166.7493333
166.8986667
167.356
167.6773333
166.5766667
166.8806667
167.8866667
167.7986667
168.1333333
166.7853333
167.102
167.0846667
167.0846667
166.936
167.3606667
168.214
168.6233333
171.2926667
180.336
166.5413333
167.0693333
168.9553333
171.2506667
177.2486667
167.1226667
167.8113333
168.8433333
170.812
174.4473333
167.2826667
167.7553333
168.272
169.22
171.2546667
167.016
166.9593333
168.2426667
170.5053333
172.1946667
166.818
167.1426667
167.154
168.3913333
169.8193333
166.79
167.2586667
168.608
168.854
169.9073333
167.1646667
167.3513333
167.1546667
167.5613333
168.2126667
166.666
167.458
167.8106667
168.1566667
169.3066667
166.7486667
166.456
166.5653333
167.4166667
168.1066667
166.5633333
166.744
167.0433333
167.19
167.988
166.5886667
166.398
166.312
165.9953333
166.53
166.8493333
167.2373333
167.1406667
167.6153333
168.5646667
166.8313333
166.612
166.0833333
166.82
167.0993333
166.7953333
167.38
167.43
167.996
167.7613333
166.734
166.744
166.218
166.2286667
166.7326667
167.39
167.4926667
167.6093333
167.8006667
167.6
166.388
166.1733333
166.4046667
166.73
167.3486667
166.834
166.976
167.6553333
170.41
178.676
167.3426667
167.346
168.3653333
170.2013333
175.9966667
166.73
167.3246667
167.7946667
170.4693333
173.9766667
166.9086667
166.8613333
167.7213333
169.806
171.9486667
166.7666667
167.662
167.9833333
168.6446667
171.1446667
166.7946667
167.6686667
168.4226667
168.3026667
169.5686667
167.1306667
167.066
167.148
168.1533333
169.3126667
166.4573333
166.5826667
167.5346667
168.0393333
168.9513333
167.2846667
167.7213333
167.5373333
167.5
167.8453333
166.5713333
166.7746667
167.5193333
168.1153333
168.2793333
166.6586667
166.7446667
166.218
166.4453333
167.1106667
166.9446667
167.9133333
168.2973333
168.92
169.338
166.3993333
165.732
165.8033333
166.122
166.49
166.6866667
166.7373333
166.8826667
167.0806667
167.0233333
166.644
166.4306667
166.9346667
167.198
167.4773333
166.5506667
167.4133333
167.72
167.9
167.634
166.9126667
166.9033333
166.204
166.5786667
166.8153333
166.7466667
167.2666667
166.9933333
167.0513333
167.472
167.1726667
167.9866667
168.7833333
170.3406667
177.9446667
166.89
167.9
168.6106667
170.4973333
176.522
167.1686667
167.4293333
167.5926667
169.532
172.546
166.9133333
167.606
168.6486667
169.934
171.9506667
166.9353333
167.306
168.0246667
168.7026667
169.7433333
167.0753333
167.0426667
166.7733333
168.1053333
168.9
166.906
167.3526667
167.9933333
168.81
169.1686667
166.7673333
167.3353333
167.6426667
167.1553333
167.6846667
166.9486667
166.3453333
166.938
166.9786667
167.6686667
166.8673333
167.4866667
167.4266667
166.766
166.8926667
166.858
166.5566667
166.5573333
166.796
167.1473333
166.702
167.0413333
166.916
167.0906667
167.4933333
166.438
166.5893333
166.6193333
166.44
166.448
166.9293333
167.5166667
167.6766667
167.8566667
167.9526667
166.826
167.092
167.572
166.9473333
167.2866667
166.7606667
166.2413333
166.5766667
167.3173333
166.3733333
166.172
166.02
166.2333333
166.1853333
166.2966667
166.9553333
167.0813333
166.7833333
166.534
166.4473333
166.4513333
166.7026667
168.3253333
170.6793333
180.1293333
167.1613333
167.26
167.9026667
170.07
175.918
167.3246667
168.274
169.0953333
170.3086667
173.4513333
166.924
167.632
168.4553333
170.3126667
171.7433333
167.1346667
167.3693333
168.1986667
168.438
169.7893333
167.038
166.9906667
167.958
168.3946667
169.478
167.2086667
167.5553333
167.8673333
168.4633333
169.3813333
166.812
166.3133333
166.934
167.4466667
167.9826667
166.9513333
167.6746667
167.016
167.6793333
168.0573333
166.7486667
167.1306667
167.614
168.0166667
168.0506667
166.662
166.734
167.0366667
166.848
167.1693333
167.322
167.0366667
167.4873333
168.094
168.2273333
166.8566667
167.038
166.8786667
167.4413333
167.718
166.384
166.676
167.0593333
167.1253333
167.0646667
166.8486667
166.0633333
165.8413333
165.8406667
166.598
166.7333333
166.862
166.1426667
166.0566667
166.4446667
166.7886667
166.3826667
165.6953333
165.322
165.8453333
166.4413333
166.3953333
166.494
166.2386667
166.376
166.984
166.8766667
167.634
169.8666667
178.098
166.766
167.1086667
167.2933333
169.0046667
173.5946667
167.0453333
167.0413333
167.5533333
169.196
172.228
167.0386667
167.0953333
167.1413333
167.9893333
170.926
166.8893333
167.1433333
167.39
168.208
169.0406667
166.62
167.1273333
167.6846667
168.0253333
169.5153333
167.1473333
166.9746667
167.3866667
167.974
168.1273333
166.4713333
166.8966667
167.2746667
167.82
167.9673333
166.718
167.334
168.2793333
168.716
168.64
166.8646667
166.5646667
166.168
165.8593333
166.5786667
166.7826667
166.9526667
167.6506667
168.1193333
167.618
166.6286667
166.4706667
165.9833333
165.6406667
166.4493333
166.928
167.1986667
167.0946667
167.0626667
166.8006667
166.318
166.436
166.888
166.7293333
167.1333333
166.3233333
167.512
167.774
168.0093333
167.5686667
166.9873333
166.442
166.3806667
166.0846667
165.8426667
166.86
167.186
167.294
167.0566667
166.2113333
166.488
166.3746667
165.9333333
166.2166667
167.33
166.8913333
167.2466667
168.2026667
170.17
178.2873333
167.4353333
167.17
167.962
170.0013333
175.9706667
167.088
167.748
168.5446667
169.5786667
172.3186667
166.8733333
167.162
167.97
168.9893333
171.024
166.954
166.74
167.3113333
168.2693333
169.72
166.7653333
166.9393333
166.8953333
167.4106667
168.4973333
166.9153333
167.7253333
168.018
167.65
167.78
166.6693333
166.4453333
166.2946667
166.6073333
167.33
166.724
166.6806667
167.208
167.4846667
168.0253333
167.0566667
167.0326667
166.972
167.7786667
168.64
166.7993333
166.3626667
166.4473333
167.4333333
168.4313333
166.5166667
166.684
166.6226667
166.66
166.7346667
166.166
166.5253333
166.6326667
166.3813333
166.642
166.6073333
165.6213333
165.44
165.3826667
165.8313333
166.7853333
166.9866667
168.056
168.434
168.068
166.7773333
166.8606667
166.222
166.662
167.3186667
166.016
166.1026667
166.628
166.8773333
167.124
167
166.8853333
167.024
167.426
166.9173333
166.8653333
167.178
167.9673333
169.8886667
177.4073333
166.492
167.1806667
167.9453333
169.6633333
174.082
167.2993333
167.8833333
168.638
169.8353333
172.678
166.276
165.5213333
166.452
167.6673333
170.5313333
167.4673333
168.1613333
167.9266667
168.058
168.8786667
166.4373333
165.834
166.5586667
167.2853333
168.012
167.1553333
166.9973333
167.02
167.2646667
167.3646667
167.3286667
167.822
168.0626667
168.5346667
168.0106667
166.3873333
166.7686667
167.2526667
166.886
167.694
166.6213333
166.8953333
166.9833333
167.618
167.0106667
167.168
167.084
167.308
167.4133333
166.7766667
166.9346667
167.0033333
166.9366667
166.5733333
166.8973333
166.932
166.9326667
167.2633333
167.0673333
166.9066667
166.5813333
166.256
165.9426667
166.1173333
166.2586667
166.808
166.7973333
166.6853333
166.6406667
167.0746667
166.9546667
167.3486667
166.8073333
166.438
166.7333333
166.8866667
167.0093333
166.9593333
166.5333333
166.9833333
167.018
166.5653333
166.5413333
166.1533333
166.3206667
166.618
166.38
166.9753333
168.4906667
175.4766667
166.7193333
167.506
168.0626667
170.6393333
174.9126667
166.8646667
166.7646667
167.6013333
168.574
171.2386667
166.7466667
167.1506667
167.0733333
168.2726667
170.0513333
167.334
167.7093333
168
168.6993333
169.3226667
166.8833333
167.176
167.8026667
167.7146667
168.6233333
167.008
167.2386667
166.8833333
167.8386667
169.0326667
166.736
167.0953333
166.9073333
166.366
167.006
166.782
166.3706667
166.544
167.26
167.0553333
166.6653333
166.092
165.5306667
166.0686667
167.1786667
166.5706667
166.85
166.6746667
166.7906667
167.1326667
166.5826667
166.0026667
166.3493333
166.7453333
166.024
167.1713333
167.2766667
166.748
167.014
166.838
166.1473333
166.6093333
166.764
166.7873333
166.2546667
166.7933333
166.7986667
167.0053333
166.9553333
167.222
166.5673333
166.0673333
167.4926667
167.3853333
167.3306667
167.0173333
167.432
166.4206667
166.838
166.2633333
166.7886667
167.406
167.5553333
167.18
167.282
166.7113333
167.1246667
168.174
169.422
177.3553333
166.7746667
167.628
167.1853333
168.8953333
173.0013333
166.9506667
167.8706667
168.8353333
169.6146667
171.5826667
166.7846667
166.834
166.8986667
167.5926667
169.3153333
166.496
166.5226667
166.998
167.7133333
168.5773333
166.7566667
166.9106667
166.9966667
167.6113333
169.0306667
166.854
167.258
167.6113333
167.8873333
167.742
166.196
166.8986667
167.4413333
168.2113333
167.4926667
166.4226667
166.6286667
166.5393333
166.5793333
167.1246667
166.6633333
166.8226667
166.9013333
166.8053333
167.3806667
166.9433333
167.2113333
166.936
166.8206667
166.3113333
166.4253333
166.392
166.5773333
166.6413333
167.478
166.6033333
167.3833333
167.4193333
167.2466667
167.2933333
166.5886667
166.796
167.1346667
167.05
167.442
167.1806667
166.8026667
167.244
167.512
167.814
166.6233333
166.748
165.9146667
165.866
166.07
166.352
166.4646667
166.862
166.9813333
166.922
166.662
166.5313333
166.906
167.6186667
167.54
166.8913333
167.308
167.332
168.8286667
174.2153333
166.742
166.6706667
166.7386667
167.578
169.826
167.03
167.3353333
168.0926667
169.26
171.0633333
166.5966667
166.8173333
167.7093333
167.4206667
168.0086667
166.8433333
166.9113333
166.7326667
166.608
166.9433333
166.7673333
167.4566667
167.2166667
167.3593333
167.2813333
166.4673333
165.9266667
166.4313333
166.44
166.9693333
167.19
166.7946667
166.4753333
166.194
166.3066667
166.4086667
166.5473333
167.0493333
167.4113333
167.6326667
166.7226667
166.1846667
166.1146667
165.736
166.2626667
166.5713333
166.4933333
166.9973333
166.828
166.7346667
166.574
165.8273333
166.072
166.32
166.184
167.3853333
167.4153333
166.986
166.342
166.6946667
166.6606667
166.2946667
166.6066667
167.448
167.166
166.8413333
166.9566667
166.3273333
166.0613333
166.2113333
166.3526667
166.1233333
166.484
166.362
166.5973333
166.8786667
167.1966667
167.5006667
167.4106667
167.068
167.1586667
166.9466667
165.8113333
165.66
166.256
281.2053333
316.968
330.2373333
338.5446667
341.0766667
342.4846667
339.9233333
341.9046667
341.3
338.658
335.848
335.4793333
330.1873333
324.3253333
318.2793333
312.6786667
301.3933333
291.9233333
280.6166667
267.7773333
252.6413333
235.146
215.0826667
188.14
143.6333333
248.2646667
282.206
305.1873333
316.428
323.1926667
327.3793333
324.4273333
326.8566667
324.3973333
321.5626667
321.658
317.0733333
315.902
309.5786667
301.346
295.4033333
289.9293333
280.886
268.952
257.098
245.0053333
228.172
207.8893333
182.2046667
144.3253333
232.724
260.258
277.4906667
290.176
302.5833333
308.2213333
313.0313333
315.0186667
312.256
310.8386667
308.7866667
306.0706667
304.714
298.3506667
294
285.552
280.7406667
272.6286667
260.4553333
252.4706667
240.3606667
225.4626667
206.374
184.1313333
149.2426667
225.3886667
244.26
258.6793333
271.8433333
283.4686667
287.1613333
293.27
297.34
301.862
298.7933333
299.7533333
297.3906667
293.7766667
290.6113333
288.5846667
285.4
275.8473333
269.6273333
260.1393333
250.3066667
240.8853333
223.0786667
207.6506667
185.7186667
153.244
218.4186667
231.3733333
243.6946667
254.4886667
262.5373333
269.2393333
276.1893333
282.3793333
287.0513333
289.5613333
287.8546667
288.578
288.458
288.394
281.52
278.962
272.032
265.2066667
259.9673333
249.7626667
233.9673333
219.0213333
207.1553333
188.4473333
156.1486667
217.0046667
228.6373333
237.72
242.7213333
248.092
254.9993333
260.0513333
266.208
273.042
278.6346667
278.508
279.0866667
277.4446667
280.0786667
275.384
272.934
265.7353333
261.4546667
254.8893333
245.37
236.7606667
221.5406667
205.6366667
187.212
160.2893333
212.3133333
224.91
230.1573333
234.8233333
239.806
241.6973333
248.862
253.992
258.022
263.0686667
264.8513333
268.5773333
270.6566667
270.9873333
266.9753333
262.61
259.4693333
252.842
245.4813333
239.9746667
231.144
217.7613333
204.6246667
188.392
160.1513333
212.1506667
224.0033333
226.348
226.3846667
232.172
232.2913333
236.7353333
240.744
246.884
250.9293333
253.124
255.836
259.7013333
260.2933333
254.942
254.8406667
251.756
244.4886667
241.3926667
235.086
227.2666667
216.3533333
204.8686667
187.7326667
160.68
208.168
217.3246667
220.3753333
222.9793333
223.5653333
226.5926667
227.668
232.8473333
233.5386667
238.348
239.8586667
243.92
248.424
245.9833333
248.932
249.8386667
243.8986667
237.6286667
232.7306667
227.0273333
221.6526667
213.0286667
202.9746667
185.7693333
159.28
206.6146667
215.576
216.704
216.79
218.5006667
218.4833333
218.7286667
222.69
225.486
225.3126667
229.4046667
234.4333333
233.802
235.2
237.1186667
236.976
233.758
232.6513333
225.8926667
221.1026667
213.5606667
207.4966667
198.2093333
184.102
158.096
206.7453333
215.128
216.54
216.2866667
212.1506667
213.3633333
213.4633333
212.89
215.486
216.8206667
219.4573333
224.6786667
222.7853333
222.18
224.2006667
223.784
225.0526667
222.356
218.8266667
214.7733333
210.164
202.034
194.5526667
179.8433333
156.082
206.288
214.4666667
216.886
212.0366667
210.2866667
208.1213333
207.9386667
208.0193333
207.614
206.214
209.7173333
211.1993333
213.748
211.4293333
213.6346667
211.924
211.952
210.0513333
209.4013333
204.7793333
200.1906667
195.1153333
188.3953333
175.0313333
151.4966667
204.4333333
212.468
212.4413333
208.1753333
204.994
202.5033333
200.2693333
198.9146667
197.7406667
197.3426667
197.5333333
198.758
199.0973333
199.8533333
198.8873333
201.724
200.7193333
200.5586667
198.6626667
195.5726667
191.32
187.3733333
178.598
166.8593333
145.79
204.6673333
212.1553333
210.3013333
207.854
203.0653333
198.864
195.8026667
195.126
192.636
189.8746667
189.4913333
187.796
189.7026667
188.498
188.786
189.0573333
190.6253333
190.4646667
188.0093333
183.7673333
180.7986667
177.228
172.6113333
161.9293333
140.7693333
204.4013333
210.708
209.1006667
203.744
197.94
191.6413333
188.8546667
183.3946667
182.7953333
180.81
180.064
179.6573333
179.7693333
180.096
180.2986667
179.1766667
179.604
178.6353333
177.3206667
175.136
173.9893333
170.228
164.008
155.506
136.422
201.234
209.5193333
207.4326667
198.7553333
190.2886667
185.64
182.3286667
177.612
173.238
169.398
167.2326667
169.2666667
169.1266667
166.848
168.376
168.5946667
169.4706667
166.7513333
164.542
164.3133333
163.7913333
162.5433333
156.2413333
151.0793333
131.7126667
197.4613333
201.712
198.3633333
190.7373333
184.3533333
179.7126667
172.8953333
166.968
164.456
162.0186667
161.62
159.9026667
160.3726667
159.4273333
158.6886667
159.1773333
163.032
159.8706667
161.2966667
161.0593333
158.8653333
156.0826667
153.2286667
149.806
132.6093333
191.5853333
190.8553333
185.8566667
180.2193333
175.642
170.6193333
167.6206667
165.97
162.5973333
162.476
163.328
160.1893333
161.9906667
159.9153333
160.42
160.4186667
161.4786667
162.932
164.5206667
163.8926667
161.5366667
161.68
159.1133333
154.018
145.2313333
250.3146667
284.9713333
305.896
316.3373333
323.6546667
324.958
328.444
328.7213333
328.82
323.3053333
320.9026667
315.9706667
310.0293333
307.748
301.5893333
295.1973333
288.648
281.1733333
270.1333333
258.402
246.472
229.3266667
207.224
183.5866667
143.6566667
222.6113333
258.6906667
286.836
304.8573333
313.7966667
315.976
314.7466667
311.334
311.1513333
305.158
300.8893333
297.436
295.804
288.542
285.936
279.6666667
273.654
265.3013333
257.5626667
248.9393333
235.092
219.1813333
201.3446667
179.196
142.0573333
206.634
234.9593333
260.666
278.8686667
293.204
302.0493333
304.284
302.938
300.2246667
296.7073333
295.196
290.3
285.844
282.416
276.3846667
270.858
266.196
256.2726667
249.8913333
239.6193333
228.806
215.2153333
199.156
178.6613333
150.74
200.99
222.7986667
245.2506667
263.3373333
277.2746667
288.2006667
293.674
296.596
294.6313333
290.6806667
291.042
285.2846667
282.3886667
275.6093333
267.4426667
267.052
261.328
253.2893333
247.176
237.086
224.528
212.9346667
200.0913333
181.2826667
152.6346667
197.7386667
216.4286667
234.3473333
251.2686667
264.762
273.7546667
278.242
282.67
282.702
283.6686667
280.5373333
279.1893333
276.8973333
271.8433333
268.0313333
261.456
256.0973333
249.09
243.0613333
235.8826667
226.4553333
212.6466667
199.4253333
181.9046667
155.566
193.0153333
210.1666667
227.464
240.6446667
252.24
259.3806667
266.4566667
269.814
272.8206667
275.6466667
274.3666667
272.2926667
269.762
267.9886667
266.218
259.0773333
254.7966667
248.2273333
241.2106667
232.9086667
224.5613333
210.8506667
200.1013333
182.0733333
157.8173333
191.272
207.9173333
223.6666667
234.454
243.7126667
250.8033333
256.3373333
261.1153333
261.8733333
265.7073333
263.3053333
267.2513333
262.5473333
262.446
259.3493333
254.9253333
249.3006667
241.7473333
237.616
229.354
221.2986667
212.5946667
200.552
182.3366667
158.8333333
190.312
205.2573333
219.674
229.3666667
236.85
241.3913333
247.7366667
250.546
252.7066667
255.2686667
255.2593333
257.7413333
256.5033333
253.7593333
253.1026667
247.224
243.9793333
237.3446667
231.6053333
223.9833333
217.6626667
210.436
199.422
182.5186667
159.0833333
189.5253333
203.1526667
214.9773333
224.1946667
231.3166667
236.68
240.5653333
243.4653333
243.4366667
245.3786667
245.1873333
248.3446667
245.4586667
243.5393333
241.4506667
240.7293333
237.912
233.1066667
226.0646667
220.274
214.1153333
205.842
198.4526667
182.5946667
159.6773333
187.1233333
200.8793333
212.3886667
221.626
227.9013333
232.8
232.2026667
234.18
233.748
236.6113333
235.888
236.9373333
236.1293333
233.4446667
233.27
231.088
231.304
226.9393333
221.95
215.8466667
210.698
203.3193333
192.8606667
180.7573333
159.0733333
187.0126667
200.3773333
211.3846667
218.694
224.2006667
225.6853333
227.4233333
228.6173333
227.3893333
229.002
227.4346667
227.066
226.3126667
224.0773333
224.5973333
222.8873333
220.8746667
220.0946667
216.602
212.144
206.3733333
196.8413333
187.8246667
176.8146667
154.6566667
187.8
199.4346667
211.2
218.9173333
223.614
225.4146667
225.0013333
221.856
220.8833333
218.4286667
217.12
216.5113333
216.2726667
216.3586667
213.7326667
212.9346667
211.8566667
211.216
207.4986667
203.4006667
198.024
190.8886667
182.0246667
173.5013333
154.1966667
186.5566667
199.3573333
208.8193333
214.5046667
218.5093333
221.1413333
219.5926667
218.374
214.974
211.1073333
210.0126667
209.172
207.5986667
206.248
205.2366667
204.514
203.8013333
201.5053333
198.2906667
194.9593333
190.66
185.18
178.738
166.7206667
151.5706667
186.6086667
199.0986667
208.8413333
214.0613333
217.1266667
217.368
214.7753333
212.8013333
208.3606667
203.7426667
201.0286667
200.86
198.388
196.0186667
194.6293333
193.2533333
191.952
192.322
189.7933333
185.2166667
182.33
176.1526667
170.1113333
160.9973333
146.912
185.176
197.2586667
205.0973333
211.4613333
212.916
211.7926667
209.4926667
204.5473333
201.7973333
197.894
194.2273333
192.0886667
187.9353333
187.7113333
186.5073333
184.7773333
184.5146667
182.126
181.09
177.396
174.2533333
169.1233333
162.6693333
155.164
141.0193333
183.6213333
194.828
202.5046667
206.6426667
207.9873333
205.9966667
202.8233333
199.0386667
195.2206667
190.7646667
188.0286667
184.6113333
181.4
178.7326667
176.2933333
174.9453333
174.36
173.9966667
171.9786667
169.7786667
167.6473333
164.2813333
159.5866667
151.3986667
139.3526667
181.8986667
191.2266667
197.026
200.6106667
200.526
198.0353333
194.5753333
191.3253333
186.9573333
182.9826667
179.2133333
177.308
174.5066667
174.2846667
172.354
169.8646667
170.884
168.8493333
167.356
165.2793333
163.988
160.3313333
156.56
152.4953333
141.8686667
177.646
183.682
187.8746667
190.5853333
190.792
191.2393333
188.1186667
186.7213333
182.508
180.7766667
179.444
177.7906667
177.16
177.0213333
175.482
173.6273333
173.686
172.8973333
173.6606667
172.45
171.2666667
168.222
165.654
162.2633333
155.8913333
233.0326667
258.36
276.8773333
291.38
303.0806667
307.654
313.0873333
316.254
313.5653333
315.446
310.596
309.3086667
305.998
298.8953333
295.344
288.2833333
281.0546667
273.6153333
267.8853333
255.1373333
241.2453333
227.484
206.6873333
182.5933333
148.4166667
209.866
236.1926667
261.374
280.8906667
295.8866667
304.5206667
305.6113333
305.4606667
302.4526667
299.806
296.5253333
293.9906667
284.786
285.1366667
277.864
270.9926667
267.3206667
260.4726667
247.3213333
238.7013333
228.1213333
214.272
198.0653333
176.986
149.4646667
197.668
217.952
239.2906667
260.586
277.7026667
289.7786667
298.8693333
301.112
299.266
296.3593333
290.294
286.67
282.9186667
278.9573333
271.828
264.1926667
258.5806667
249.4766667
242.9693333
233.0826667
224.4613333
213.7573333
196.414
176.2673333
152.8726667
190.75
207.0593333
225.076
245.254
262.5586667
276.7106667
287.3533333
294.5626667
297.7793333
295.744
290.6313333
286.284
280.9353333
274.742
270.1493333
261.6446667
256.3353333
246.6446667
240.3793333
230.5666667
222.8166667
213.3366667
197.7273333
179.9953333
157.836
187.2313333
200.0406667
215.904
232.1753333
247.3186667
261.914
274.9373333
282.908
286.7653333
288.1406667
286.9413333
284.7226667
280.4146667
274.682
269.1333333
262
253.7046667
247.102
240.8513333
233.214
223.2826667
212.138
197.7
182.16
161.06
182.6993333
192.7453333
208.8573333
222.768
237.8206667
250.6073333
262.518
271.9113333
279.5633333
279.4266667
281.6546667
279.6346667
276.7053333
270.87
268.198
262.4313333
256.11
250.616
240.9733333
233.312
221.4913333
214.1586667
201.0113333
186.3193333
165.268
183.1966667
192.9953333
205.1006667
218.028
229.8973333
241.124
251.7946667
261.138
268.2606667
272.7073333
275.3386667
273.518
271.6513333
269.776
264.336
258.8933333
254.2033333
246.9013333
239.1873333
231.1106667
223.2613333
212.6366667
200.8566667
188.2246667
168.9386667
182.224
191.6253333
201.4553333
213.6113333
225.848
234.7133333
244.5166667
250.7466667
257.7286667
261.5013333
264.8973333
265.1573333
262.8206667
262.0073333
258.5073333
255.336
250.3746667
242.786
237.3506667
228.7086667
221.7713333
214.1826667
201.8313333
188.0413333
169.192
180.6893333
189.7666667
199.5113333
209.0793333
219.0766667
228.972
235.4466667
244.1633333
248.818
253.018
253.7466667
255.206
253.9613333
252.85
250.618
248.69
245.184
240.448