/*--------------------------------*- C++ -*----------------------------------*\
| =========                 |                                                 |
| \\      /  F ield         | OpenFOAM: The Open Source CFD Toolbox           |
|  \\    /   O peration     | Version:  v1706                                 |
|   \\  /    A nd           | Web:      www.OpenFOAM.com                      |
|    \\/     M anipulation  |                                                 |
\*---------------------------------------------------------------------------*/
FoamFile
{
    version     2.0;
    format      ascii;
    class       volScalarField;
    location    "0.003";
    object      dsmcSigmaTcRMax;
}
// * * * * * * * * * * * * * * * * * * * * * * * * * * * * * * * * * * * * * //

dimensions      [0 3 -1 0 0 0 0];


internalField   nonuniform List<scalar> 
9720
(
6.492531751e-16
6.346877718e-16
6.636546994e-16
6.39543031e-16
6.514054135e-16
6.101801759e-16
6.324100837e-16
6.415283234e-16
6.41794058e-16
6.409809471e-16
6.224188835e-16
6.631335236e-16
6.226752245e-16
6.283945676e-16
6.449373965e-16
6.226443171e-16
6.289005533e-16
6.35476055e-16
6.407785454e-16
6.45078525e-16
6.188423206e-16
6.378779032e-16
6.618817241e-16
6.473053448e-16
6.784562311e-16
6.349093753e-16
6.424284828e-16
6.322357735e-16
6.440780347e-16
6.417055527e-16
6.237528291e-16
6.154720918e-16
6.247498709e-16
6.391543225e-16
6.510453739e-16
6.314591296e-16
6.296480708e-16
6.20711685e-16
6.522772408e-16
6.49504264e-16
6.20949514e-16
6.160456336e-16
6.280573861e-16
6.404700195e-16
6.502144631e-16
6.011486686e-16
6.274768211e-16
6.244807392e-16
6.391246355e-16
6.546890344e-16
6.047725955e-16
6.146761061e-16
6.289021115e-16
6.448570858e-16
6.372166725e-16
6.192198409e-16
6.212944899e-16
6.139436542e-16
6.444167623e-16
6.404998665e-16
6.081639075e-16
6.170092016e-16
6.229002946e-16
6.316912582e-16
6.333189328e-16
5.741199731e-16
6.231171902e-16
6.426395943e-16
6.370763784e-16
6.528278771e-16
6.119655806e-16
6.562562455e-16
6.484401609e-16
6.288306925e-16
6.423977182e-16
6.133684117e-16
6.093189986e-16
6.393413092e-16
6.241408798e-16
6.332009343e-16
6.126858447e-16
6.259588667e-16
6.201225518e-16
6.227409659e-16
6.399101972e-16
6.099463202e-16
6.013825138e-16
6.26126475e-16
6.213706381e-16
6.274760431e-16
6.403595439e-16
6.535232429e-16
6.514261785e-16
6.691443823e-16
6.75137553e-16
6.295602245e-16
6.496852665e-16
6.446105067e-16
6.504541218e-16
6.339840028e-16
6.574703065e-16
6.345381891e-16
6.480608638e-16
6.378622635e-16
6.546629684e-16
6.412335653e-16
6.228013736e-16
6.348644529e-16
6.256380265e-16
6.517168326e-16
6.20781767e-16
6.284501415e-16
6.564004106e-16
6.436352334e-16
6.353586376e-16
6.135949909e-16
6.29834149e-16
6.381213347e-16
6.380672821e-16
6.345813609e-16
6.308047427e-16
6.285944444e-16
6.44442197e-16
6.189392246e-16
6.304055878e-16
6.034555044e-16
6.255492725e-16
6.534686353e-16
6.445284993e-16
6.349610457e-16
6.296915672e-16
6.206540313e-16
6.464828132e-16
6.419975326e-16
6.346895493e-16
6.230291933e-16
6.125347726e-16
6.267146553e-16
6.364495722e-16
6.203857402e-16
6.123748988e-16
6.061890042e-16
6.308525093e-16
6.341457555e-16
6.286776335e-16
6.309294911e-16
6.202265018e-16
6.583914426e-16
6.499582103e-16
6.636669808e-16
6.027681037e-16
6.253325601e-16
6.183134714e-16
6.316655747e-16
6.535117106e-16
6.509915381e-16
6.313226979e-16
6.414275543e-16
6.399027202e-16
6.303178009e-16
6.301088644e-16
6.276324102e-16
6.461095875e-16
6.272028898e-16
6.436129632e-16
6.401392712e-16
6.300735284e-16
6.263322806e-16
6.468690977e-16
6.23490851e-16
6.271996071e-16
6.200178131e-16
6.452766676e-16
6.111555423e-16
6.457085249e-16
6.089338927e-16
6.16033962e-16
6.284081396e-16
6.177811796e-16
6.144668038e-16
6.158250794e-16
6.244996565e-16
6.505634859e-16
6.586150479e-16
6.546268397e-16
6.321933351e-16
6.328928693e-16
6.478000178e-16
6.417328003e-16
6.331883281e-16
6.381882205e-16
6.276159613e-16
6.317053287e-16
6.571661359e-16
6.481470213e-16
6.255577417e-16
6.142701295e-16
6.211867447e-16
6.475211664e-16
6.370907304e-16
6.251235134e-16
6.290388003e-16
6.358343677e-16
6.550547761e-16
6.375309397e-16
6.314662105e-16
6.146078678e-16
6.520688859e-16
6.28952423e-16
6.321298774e-16
6.321987249e-16
6.152894821e-16
6.203128506e-16
6.309342643e-16
6.287621618e-16
6.256667896e-16
6.125528822e-16
6.355881328e-16
6.272787901e-16
6.223014091e-16
6.065458092e-16
6.306103674e-16
6.306628559e-16
6.367463268e-16
6.389010487e-16
6.446436742e-16
6.223215883e-16
6.309190697e-16
6.261934516e-16
6.395628655e-16
6.107222091e-16
6.33227464e-16
6.552402894e-16
6.538080509e-16
6.20676367e-16
6.234487237e-16
6.325813881e-16
6.343602145e-16
6.32346072e-16
6.203486812e-16
6.293718404e-16
6.332650989e-16
6.30924905e-16
6.271652598e-16
6.176605465e-16
6.190247754e-16
6.229198419e-16
6.342210278e-16
6.311333619e-16
6.300147839e-16
6.419426182e-16
6.210977895e-16
6.123423254e-16
6.367516981e-16
6.329037237e-16
6.294839463e-16
6.18478992e-16
6.337311767e-16
6.348285035e-16
6.160734502e-16
5.901591831e-16
6.472951111e-16
6.515499594e-16
6.343221124e-16
6.268828682e-16
6.132869416e-16
6.10798268e-16
6.330084688e-16
6.350796653e-16
6.23862013e-16
6.198897799e-16
6.282154137e-16
6.233447776e-16
6.169908961e-16
6.43880489e-16
6.376504143e-16
6.342292735e-16
6.389541529e-16
6.387954343e-16
6.567839389e-16
6.240191995e-16
6.246367153e-16
6.521994005e-16
6.401694461e-16
6.351646043e-16
6.102174498e-16
6.217835037e-16
6.45520998e-16
6.337122208e-16
6.321475776e-16
6.343644818e-16
6.534826091e-16
6.289191641e-16
6.785492753e-16
6.426812163e-16
6.22845521e-16
6.189466832e-16
6.431251445e-16
6.254877155e-16
6.331574039e-16
6.269488284e-16
6.273988158e-16
6.307604477e-16
6.303165846e-16
6.286722608e-16
6.169238571e-16
6.069179885e-16
6.329972104e-16
6.454035173e-16
6.362830721e-16
6.131098682e-16
6.58231362e-16
6.276374382e-16
6.057341534e-16
6.383610568e-16
6.250360348e-16
6.071247976e-16
6.401714939e-16
6.240410263e-16
6.373938332e-16
6.109328355e-16
6.426054284e-16
6.256901619e-16
6.397879304e-16
6.447093546e-16
6.506168108e-16
6.22381428e-16
6.211390297e-16
6.099132875e-16
6.319920561e-16
6.078621748e-16
6.217776766e-16
6.191992357e-16
6.370234682e-16
6.524456864e-16
6.164478412e-16
6.373372036e-16
6.318436247e-16
6.184789455e-16
6.218154581e-16
6.099226544e-16
6.270070369e-16
6.322010313e-16
6.233048276e-16
6.365458063e-16
6.234694486e-16
6.239627328e-16
6.331117935e-16
6.072640381e-16
6.5110172e-16
6.19322138e-16
6.10215483e-16
6.184434194e-16
6.245840653e-16
6.415347044e-16
5.739196581e-16
6.10473741e-16
6.300873127e-16
6.570441856e-16
6.083381629e-16
6.147432253e-16
6.195144278e-16
6.246739538e-16
6.553044042e-16
6.441066821e-16
6.339044552e-16
6.489285831e-16
6.603913032e-16
6.328515984e-16
6.334462623e-16
6.577954824e-16
6.280902728e-16
6.36686617e-16
6.480257689e-16
6.572314824e-16
6.173721404e-16
6.426409042e-16
6.290731446e-16
6.202165845e-16
6.255325658e-16
6.20611643e-16
6.055507681e-16
6.228854116e-16
6.410437299e-16
6.444936693e-16
6.061495834e-16
6.135494863e-16
6.229176069e-16
6.309988648e-16
6.110112486e-16
6.148447452e-16
6.197544391e-16
6.074122927e-16
6.292846348e-16
6.341620574e-16
6.238103193e-16
6.234916456e-16
6.389157433e-16
6.141556116e-16
6.3844573e-16
6.066802726e-16
6.190558042e-16
6.343421868e-16
6.34576344e-16
6.218136993e-16
6.343756763e-16
6.3690716e-16
6.340522067e-16
6.203011473e-16
6.219047859e-16
6.295303183e-16
6.273284961e-16
6.295792862e-16
6.143962751e-16
6.379909648e-16
6.196220559e-16
6.461179418e-16
6.096147098e-16
6.533131786e-16
6.327440367e-16
6.100721653e-16
6.109549489e-16
6.180068813e-16
6.273318203e-16
6.034873265e-16
6.202227553e-16
6.00383103e-16
6.18272356e-16
6.349672414e-16
6.286833421e-16
5.926222761e-16
6.199513338e-16
6.038435351e-16
6.214474071e-16
6.241947233e-16
6.125830886e-16
6.278248011e-16
6.144796574e-16
6.136147051e-16
6.508680717e-16
6.02487e-16
6.227946338e-16
6.125102059e-16
6.422783725e-16
6.207771276e-16
6.252689043e-16
6.189930496e-16
5.935545119e-16
5.948625203e-16
6.350973273e-16
6.094647159e-16
6.236920908e-16
6.209420062e-16
6.310528401e-16
6.458484397e-16
6.133720738e-16
6.379391387e-16
6.467766351e-16
6.35812713e-16
6.386351424e-16
6.086962121e-16
6.256155843e-16
6.343807599e-16
6.398209229e-16
6.424683818e-16
6.116425488e-16
6.260511916e-16
6.104542813e-16
6.101384167e-16
6.335239261e-16
6.083707114e-16
6.305354389e-16
6.222372101e-16
6.236701152e-16
6.398702432e-16
6.62057198e-16
6.194044583e-16
6.300964489e-16
6.237407675e-16
6.357383013e-16
6.283156523e-16
6.039643965e-16
6.176375171e-16
6.381616083e-16
6.102607603e-16
6.215035992e-16
5.971881942e-16
6.381436181e-16
6.142007229e-16
6.197918408e-16
5.890239506e-16
6.513504506e-16
6.117682879e-16
6.285126593e-16
6.256481895e-16
5.955321103e-16
6.326478921e-16
6.239335276e-16
6.083596072e-16
6.207899962e-16
6.312344021e-16
5.991233406e-16
6.051035472e-16
6.166875406e-16
6.148288491e-16
6.179845352e-16
6.024887321e-16
6.080085723e-16
6.173685599e-16
6.139224013e-16
6.036852299e-16
6.073560606e-16
6.158593898e-16
6.124292024e-16
6.205205097e-16
6.139789411e-16
6.230641981e-16
5.996293771e-16
6.224562072e-16
6.243642735e-16
5.914148923e-16
5.962824223e-16
6.038598448e-16
6.105770939e-16
6.265904076e-16
5.761025419e-16
6.053470975e-16
6.079489012e-16
6.112664121e-16
6.034684812e-16
6.46179028e-16
6.187717342e-16
6.055809237e-16
6.231615337e-16
6.135474968e-16
5.967487076e-16
5.954067815e-16
6.083895005e-16
5.988779437e-16
5.928052508e-16
6.107502289e-16
6.470857962e-16
6.204220133e-16
6.380319474e-16
6.60001753e-16
6.196309345e-16
6.587574276e-16
6.280118111e-16
6.481655059e-16
6.537149215e-16
6.349777939e-16
6.200722336e-16
6.203993656e-16
6.165196829e-16
6.384660008e-16
6.452192907e-16
6.247518502e-16
6.303337452e-16
6.302615197e-16
6.549535688e-16
6.299619372e-16
6.138915107e-16
6.392169243e-16
6.419370851e-16
6.262968642e-16
6.815264062e-16
6.207368644e-16
6.272687666e-16
6.145913505e-16
6.205481674e-16
6.14912103e-16
6.280726832e-16
6.023902558e-16
6.385963578e-16
6.331467401e-16
6.078681371e-16
6.237666372e-16
5.983769621e-16
6.313973229e-16
6.145439796e-16
6.079789283e-16
6.114051573e-16
6.307934489e-16
6.207265582e-16
6.225691565e-16
5.966385992e-16
6.010298913e-16
6.198988317e-16
5.910757201e-16
6.355839405e-16
6.099309417e-16
6.501558887e-16
6.181359809e-16
6.22138265e-16
6.18862672e-16
6.016199164e-16
6.186945175e-16
5.945114517e-16
6.06253947e-16
6.199267327e-16
6.05123815e-16
5.855863472e-16
6.144150033e-16
6.223114871e-16
6.118630124e-16
6.172592224e-16
6.402033069e-16
5.901155867e-16
5.873256768e-16
6.291154148e-16
5.90860053e-16
5.919309857e-16
6.070460759e-16
6.023443828e-16
6.228540106e-16
5.576832686e-16
5.938131632e-16
6.037687141e-16
6.035150512e-16
6.057897945e-16
5.73787191e-16
5.735843646e-16
5.853131144e-16
6.582594905e-16
6.151063438e-16
6.267375589e-16
5.737167097e-16
5.769102757e-16
6.02373704e-16
6.306427983e-16
6.049957294e-16
6.145288135e-16
6.472031835e-16
6.357558587e-16
6.47674483e-16
6.263385776e-16
6.226687654e-16
6.317857604e-16
6.462540603e-16
6.479658916e-16
6.138875752e-16
6.387842824e-16
6.442858527e-16
6.427809998e-16
6.496321486e-16
5.990199633e-16
6.428893129e-16
6.4365706e-16
6.587746126e-16
6.194568072e-16
6.108716787e-16
6.011310626e-16
6.158506496e-16
6.437099222e-16
6.412495952e-16
6.42303033e-16
6.426981903e-16
6.190465695e-16
6.363124884e-16
6.541114363e-16
6.114831826e-16
6.043036358e-16
6.40105751e-16
6.393760372e-16
6.103695402e-16
6.197369469e-16
5.998920922e-16
6.050549603e-16
6.207166861e-16
6.21934609e-16
6.01210065e-16
6.229782471e-16
5.968924856e-16
6.353341279e-16
6.069982165e-16
6.000723078e-16
5.874490962e-16
6.267601983e-16
6.212229792e-16
6.306780044e-16
6.083173622e-16
6.096394201e-16
5.809384871e-16
6.230660323e-16
6.400005095e-16
6.12588152e-16
6.286870222e-16
5.969499704e-16
6.328784503e-16
5.877134739e-16
5.872942282e-16
6.269689186e-16
5.927366406e-16
6.135842041e-16
5.958213915e-16
6.057653284e-16
5.969926655e-16
5.913433653e-16
6.098425138e-16
5.921514898e-16
5.958144877e-16
6.224613733e-16
6.074025939e-16
6.334157667e-16
6.030362718e-16
5.814139997e-16
6.27018395e-16
6.103978889e-16
5.966690013e-16
6.021234171e-16
6.034476621e-16
5.663578585e-16
5.851910607e-16
5.954618378e-16
5.864286988e-16
6.134742375e-16
6.035578708e-16
5.905137843e-16
6.092880336e-16
5.888075248e-16
6.00514326e-16
6.181984787e-16
6.09771046e-16
6.544653004e-16
6.276022554e-16
6.351365948e-16
6.288615025e-16
6.18682821e-16
6.252983674e-16
6.269271654e-16
6.268685023e-16
6.246529452e-16
6.203562288e-16
6.363734523e-16
6.36561486e-16
6.247267402e-16
6.039083126e-16
6.550233386e-16
6.179984331e-16
6.2622523e-16
6.051371759e-16
6.393917853e-16
6.25512218e-16
6.505441398e-16
6.197942152e-16
6.1491186e-16
6.113501506e-16
6.123824037e-16
6.245217351e-16
6.324493458e-16
6.063628201e-16
6.214859316e-16
6.210057214e-16
6.208853626e-16
6.18798555e-16
5.938284592e-16
6.111601753e-16
6.134222335e-16
6.251877366e-16
6.109012331e-16
6.070165578e-16
6.130578523e-16
6.209726897e-16
5.921682315e-16
6.299839318e-16
5.849304889e-16
6.068377623e-16
5.893810345e-16
6.148879127e-16
5.910586474e-16
6.120914043e-16
5.934073601e-16
6.022873048e-16
5.804036348e-16
5.979206695e-16
5.869182428e-16
6.062124866e-16
5.995242847e-16
6.035045733e-16
6.095143504e-16
5.885125225e-16
5.828420397e-16
6.083626917e-16
6.232547912e-16
6.015986939e-16
5.83393772e-16
5.636507574e-16
6.119750146e-16
5.817504594e-16
6.037034615e-16
5.713489487e-16
5.651948647e-16
6.049484216e-16
5.994231216e-16
5.799612301e-16
5.853450494e-16
6.308489522e-16
6.11900682e-16
6.022249963e-16
6.133967974e-16
5.454334859e-16
6.10165301e-16
6.145342205e-16
5.941847942e-16
5.83611831e-16
5.592976754e-16
6.036520636e-16
5.580745305e-16
5.699135017e-16
6.059129714e-16
6.053945147e-16
6.397539998e-16
6.271618492e-16
6.437225559e-16
6.349921956e-16
6.307604449e-16
6.59306175e-16
6.251948498e-16
6.176200365e-16
6.455808346e-16
6.134284841e-16
6.274185369e-16
6.183082084e-16
6.357458789e-16
6.326413108e-16
6.185172062e-16
6.13137328e-16
6.231506406e-16
6.181042276e-16
6.083506117e-16
6.150669167e-16
6.175400926e-16
6.172519357e-16
6.412957814e-16
6.23101406e-16
5.91857289e-16
6.230882308e-16
6.116337319e-16
6.159009745e-16
6.289502847e-16
5.989445245e-16
6.066040788e-16
6.205156875e-16
6.137761185e-16
6.230180611e-16
6.216780543e-16
6.188888201e-16
6.203490678e-16
6.112982548e-16
6.276508093e-16
5.879386847e-16
6.040950896e-16
6.329444461e-16
6.193766283e-16
6.077650018e-16
5.988505043e-16
6.078937173e-16
5.9286066e-16
6.236169754e-16
6.033191327e-16
5.887996343e-16
6.168078025e-16
5.917094914e-16
5.969616537e-16
6.135183349e-16
5.969739034e-16
6.086013995e-16
5.764084684e-16
5.958016951e-16
5.696376862e-16
6.050614094e-16
6.052021788e-16
5.862864822e-16
6.073000609e-16
6.017635079e-16
5.852290454e-16
5.927123781e-16
6.153479616e-16
6.145243768e-16
5.983944949e-16
6.106961452e-16
6.008671622e-16
5.838364029e-16
5.908308484e-16
5.718189456e-16
5.583223869e-16
5.602739307e-16
5.952285761e-16
5.870014693e-16
5.96208713e-16
5.772646934e-16
5.231015879e-16
5.682891047e-16
6.165781137e-16
5.806852998e-16
5.563672992e-16
5.80708113e-16
6.069432078e-16
5.660937428e-16
5.754378956e-16
6.240208097e-16
6.115780561e-16
6.484353919e-16
6.314131091e-16
6.395634037e-16
6.280362052e-16
6.441223799e-16
6.344884867e-16
6.422204875e-16
6.375129889e-16
6.139642742e-16
6.37842727e-16
6.228946119e-16
6.377582038e-16
6.296174732e-16
6.041949652e-16
6.177917722e-16
6.727249769e-16
6.529223326e-16
6.327753973e-16
6.154349373e-16
6.147996841e-16
6.445854499e-16
6.376336161e-16
6.076173702e-16
6.027712749e-16
6.200534035e-16
6.094540623e-16
6.322213893e-16
6.180792122e-16
6.046267902e-16
6.366056649e-16
6.165210741e-16
5.975074404e-16
6.025864071e-16
6.364419824e-16
5.96913085e-16
6.11683902e-16
6.003841139e-16
6.053121713e-16
5.897869681e-16
6.010735293e-16
6.324579181e-16
6.331874642e-16
6.15705543e-16
6.159994394e-16
6.066062817e-16
6.086633238e-16
6.067845635e-16
6.029742344e-16
5.842091494e-16
5.957171166e-16
6.034216469e-16
5.748290922e-16
5.946197638e-16
5.996478963e-16
5.907840814e-16
5.997971526e-16
5.883327072e-16
6.07501044e-16
5.850028639e-16
6.127069017e-16
5.811672752e-16
5.737108794e-16
5.9611212e-16
5.74063198e-16
6.066763837e-16
5.919973913e-16
5.907766378e-16
5.861901741e-16
5.306690223e-16
5.832053722e-16
6.625037394e-16
5.883227978e-16
5.743346837e-16
6.049807257e-16
5.87255607e-16
5.796582415e-16
6.187501651e-16
5.830615829e-16
6.281751253e-16
5.670807384e-16
5.818008983e-16
5.62210096e-16
5.966334641e-16
6.179551454e-16
5.531585672e-16
5.944935086e-16
5.863767857e-16
6.239574854e-16
6.325964999e-16
6.370108512e-16
6.299676726e-16
6.269159262e-16
6.352746596e-16
6.212676008e-16
6.317723288e-16
6.253780514e-16
6.4431373e-16
6.507328961e-16
6.124405197e-16
6.284476517e-16
6.210292469e-16
6.187030855e-16
6.468251792e-16
6.304279606e-16
6.138206219e-16
6.253445328e-16
6.347681924e-16
6.260799358e-16
5.885366262e-16
6.092556238e-16
5.996390075e-16
6.373841733e-16
6.179137658e-16
6.246652961e-16
6.267983394e-16
6.383805747e-16
6.480363685e-16
6.257721596e-16
6.306893075e-16
6.024718012e-16
5.962617215e-16
6.023032641e-16
6.009820614e-16
5.879426435e-16
6.032519068e-16
6.29452479e-16
6.062847023e-16
6.177176245e-16
5.565629648e-16
5.887443918e-16
6.328165994e-16
6.108097045e-16
6.097938669e-16
6.008734398e-16
6.338835151e-16
5.984895938e-16
6.166722543e-16
6.253617195e-16
5.616187358e-16
5.775284471e-16
6.212272016e-16
5.823718216e-16
5.873405484e-16
6.003021103e-16
5.84359757e-16
5.768515732e-16
5.737489574e-16
5.854438717e-16
5.850211549e-16
5.920043577e-16
5.841954231e-16
5.910146061e-16
6.218476056e-16
5.826801714e-16
6.015854058e-16
5.875891345e-16
5.894206649e-16
6.090929191e-16
5.504954875e-16
6.139448128e-16
5.629273463e-16
5.982191551e-16
5.779598162e-16
5.611166525e-16
5.781586243e-16
6.383137771e-16
6.048391124e-16
6.05811639e-16
5.883481602e-16
5.618096948e-16
5.593016669e-16
5.904745808e-16
5.730592055e-16
5.245613233e-16
5.527554432e-16
5.594804731e-16
6.040538255e-16
6.095997569e-16
6.12920569e-16
6.046532307e-16
6.116046082e-16
6.246086326e-16
6.470312357e-16
6.230925836e-16
6.426994404e-16
6.203403512e-16
6.127865764e-16
6.223813764e-16
6.084792546e-16
6.138371044e-16
6.299326824e-16
6.261350833e-16
6.336420507e-16
6.336586443e-16
6.244012375e-16
6.389726186e-16
6.274586599e-16
6.207488426e-16
6.016749264e-16
6.071525943e-16
6.286674464e-16
6.369316266e-16
6.409871153e-16
6.513882833e-16
6.08092251e-16
5.963009204e-16
6.1902043e-16
6.382136217e-16
6.146538447e-16
6.018036573e-16
6.040560751e-16
6.109462297e-16
6.037845298e-16
6.01199747e-16
6.102114235e-16
6.013811931e-16
5.977733437e-16
6.086276146e-16
5.963976395e-16
6.217731513e-16
5.945521596e-16
5.848444354e-16
5.989795945e-16
5.919879126e-16
5.856179295e-16
5.823834503e-16
5.909278146e-16
5.950868206e-16
6.288182958e-16
5.737804264e-16
6.406589673e-16
6.25099578e-16
5.930363448e-16
6.072051362e-16
5.711493486e-16
5.990937556e-16
5.943792725e-16
5.885009475e-16
5.892860613e-16
5.984322764e-16
5.838713217e-16
5.750662197e-16
5.93928149e-16
5.83576442e-16
5.768193548e-16
6.035319097e-16
5.913082626e-16
5.585061498e-16
5.698155139e-16
5.765149111e-16
5.885693851e-16
5.510957311e-16
5.478902779e-16
5.436572318e-16
6.160464639e-16
5.587161015e-16
5.846096599e-16
5.954777307e-16
5.722384238e-16
5.587977356e-16
5.465383841e-16
5.932777479e-16
5.832645726e-16
6.005740594e-16
5.410261424e-16
5.613851004e-16
5.780582438e-16
5.651641998e-16
6.324784861e-16
6.051182578e-16
6.304431379e-16
6.421900205e-16
6.372394492e-16
6.402233644e-16
6.315429821e-16
6.302139735e-16
6.456006369e-16
6.568880918e-16
6.201047481e-16
6.318963307e-16
6.224120218e-16
6.280692554e-16
6.330717396e-16
6.253118173e-16
6.334150298e-16
5.991483765e-16
6.51629761e-16
6.254230549e-16
5.927092667e-16
6.275830314e-16
6.312336955e-16
6.210618838e-16
6.076244726e-16
5.98454269e-16
6.243326981e-16
6.056128214e-16
6.429197362e-16
6.14733586e-16
5.904747174e-16
6.032146058e-16
6.196397375e-16
6.126878696e-16
5.963649383e-16
6.004615306e-16
6.016995428e-16
5.955587238e-16
6.187231726e-16
5.896665326e-16
5.770265775e-16
6.480708349e-16
5.917475364e-16
6.08335854e-16
6.01384279e-16
5.989548609e-16
6.04957934e-16
5.973451839e-16
5.82368152e-16
6.205183799e-16
5.901949745e-16
5.721384227e-16
5.854031309e-16
6.180956259e-16
6.056113407e-16
6.041336113e-16
6.196470733e-16
5.660971153e-16
5.995706783e-16
5.684772004e-16
5.762835686e-16
6.122463575e-16
6.293865823e-16
5.951264116e-16
5.83550383e-16
5.697762581e-16
5.870572148e-16
5.600059079e-16
5.972941052e-16
5.704112233e-16
5.565323366e-16
6.130576631e-16
5.598960874e-16
5.688699203e-16
5.768172035e-16
5.723832358e-16
5.912944779e-16
5.983678229e-16
5.805918109e-16
6.152408214e-16
5.438023645e-16
5.204225217e-16
5.790525724e-16
6.112131619e-16
5.94941344e-16
5.61665347e-16
6.013328193e-16
5.875708057e-16
5.561394479e-16
5.28251644e-16
6.078718539e-16
6.232595328e-16
6.258957964e-16
6.398737408e-16
6.305139845e-16
6.215759852e-16
6.237980338e-16
6.388729225e-16
6.460498918e-16
6.327294105e-16
6.002873994e-16
6.227995431e-16
6.319874971e-16
6.299639116e-16
6.342189776e-16
6.00674232e-16
6.240675612e-16
6.119899004e-16
6.106965578e-16
6.266833709e-16
6.174176927e-16
5.97924987e-16
5.981586577e-16
6.02402623e-16
6.317266138e-16
6.080997017e-16
6.294884482e-16
5.999264483e-16
6.219098987e-16
6.065060921e-16
6.24028981e-16
6.287430219e-16
6.065442916e-16
6.207836865e-16
6.147118224e-16
6.067721339e-16
5.865015856e-16
6.157578063e-16
6.231281664e-16
6.295489254e-16
5.822558275e-16
5.718112805e-16
6.029388121e-16
6.008155199e-16
5.735319693e-16
6.085357255e-16
6.070130642e-16
5.950858041e-16
5.87896233e-16
6.070243243e-16
6.09257051e-16
5.766937165e-16
6.327435688e-16
6.181801517e-16
6.135095797e-16
5.817446203e-16
5.618527304e-16
5.983604052e-16
5.656255676e-16
5.778440102e-16
6.177102511e-16
5.624669812e-16
5.903074427e-16
5.856186032e-16
6.120747329e-16
5.682546443e-16
5.893626035e-16
5.776246713e-16
5.549553597e-16
6.002284508e-16
5.448012974e-16
5.194703416e-16
5.890258577e-16
5.692350116e-16
5.9059047e-16
5.068120609e-16
5.807988499e-16
5.984050547e-16
5.572685414e-16
5.710804572e-16
5.607721423e-16
6.349675851e-16
5.214541651e-16
5.621378133e-16
5.74348067e-16
5.468320373e-16
5.523268954e-16
5.912331304e-16
5.662301079e-16
5.786553648e-16
6.091438986e-16
6.169226361e-16
6.22873781e-16
6.454316772e-16
6.296017609e-16
6.170186592e-16
6.22792714e-16
6.215742347e-16
6.376074779e-16
6.216965161e-16
6.118704469e-16
6.360104066e-16
6.300466846e-16
6.298509303e-16
6.30909834e-16
5.818500931e-16
6.287919581e-16
6.135251614e-16
5.993259309e-16
6.124681339e-16
6.062341798e-16
6.204038902e-16
6.212647355e-16
6.150326656e-16
6.450034076e-16
6.023312104e-16
6.221577625e-16
6.073599965e-16
6.052196336e-16
6.087270541e-16
5.805542677e-16
6.196624494e-16
5.9930367e-16
6.023103944e-16
6.040466246e-16
5.992034005e-16
6.035601155e-16
5.994934933e-16
5.952340147e-16
6.110395837e-16
5.827074642e-16
5.85512012e-16
5.870219236e-16
5.8926407e-16
5.980840714e-16
6.053936755e-16
5.995054833e-16
5.857852332e-16
5.992068329e-16
6.13097618e-16
5.686353129e-16
6.282072008e-16
5.783053432e-16
5.997945108e-16
6.054417679e-16
5.679500081e-16
5.551533518e-16
5.491668444e-16
6.162980344e-16
6.058220832e-16
5.997660274e-16
5.85031733e-16
5.784370762e-16
5.706604959e-16
5.960212285e-16
5.651212819e-16
5.621748179e-16
5.80518314e-16
5.630112005e-16
5.63086147e-16
4.917722671e-16
5.395080842e-16
5.785356774e-16
5.700094012e-16
5.851425138e-16
4.609853314e-16
5.489486549e-16
5.683359793e-16
5.472619158e-16
5.464362206e-16
5.946897875e-16
5.94452091e-16
5.871604186e-16
6.122599447e-16
5.34046382e-16
4.659316289e-16
5.12641728e-16
6.175414856e-16
5.400409073e-16
5.569952093e-16
5.993563171e-16
6.262373979e-16
6.21236483e-16
6.199349292e-16
6.91219245e-16
6.266447974e-16
6.11142153e-16
6.224516091e-16
6.46919511e-16
6.336948853e-16
6.216076792e-16
5.991799946e-16
6.41634385e-16
6.276949879e-16
6.135427499e-16
5.9245569e-16
6.377682443e-16
6.348369757e-16
6.036039347e-16
6.091089511e-16
6.171499114e-16
6.179811026e-16
6.240791912e-16
6.063328206e-16
6.182077997e-16
6.035941528e-16
5.65131831e-16
6.011206582e-16
6.140965666e-16
6.251162333e-16
5.929088921e-16
5.901515997e-16
6.178128963e-16
6.071481081e-16
5.956971335e-16
6.152971306e-16
5.751711634e-16
5.749003049e-16
6.090558515e-16
6.23110483e-16
6.083424279e-16
6.030210359e-16
6.077127962e-16
5.905910909e-16
5.731757155e-16
5.934604401e-16
5.580011413e-16
6.040206878e-16
5.782845964e-16
5.783127528e-16
5.636657421e-16
5.826671952e-16
5.666085148e-16
5.761392896e-16
5.848908832e-16
4.926998731e-16
5.866964859e-16
6.05571872e-16
5.85353995e-16
5.902461151e-16
5.667816754e-16
5.764827061e-16
5.881066508e-16
5.539131148e-16
5.568306807e-16
5.386974323e-16
5.430006619e-16
5.488216978e-16
6.196318134e-16
5.65586945e-16
4.608972502e-16
5.348060572e-16
5.501374026e-16
5.44618092e-16
6.097328012e-16
6.066386428e-16
4.768645119e-16
5.661187712e-16
5.712635117e-16
5.506134197e-16
4.651994928e-16
4.539097692e-16
6.026182933e-16
5.650736628e-16
5.785669028e-16
4.558368918e-16
5.599779134e-16
5.356779667e-16
5.511818258e-16
6.014427531e-16
6.008846418e-16
6.321664193e-16
6.075585529e-16
6.208270416e-16
6.383479832e-16
6.153044856e-16
6.205231456e-16
6.421493047e-16
6.338442103e-16
6.408308909e-16
6.257167748e-16
6.152850903e-16
6.249641133e-16
6.135124543e-16
6.216023654e-16
6.227603129e-16
6.26575788e-16
6.191418152e-16
6.268304376e-16
6.055042795e-16
6.157046077e-16
6.027134116e-16
6.204337248e-16
6.08026955e-16
6.06775976e-16
6.103236726e-16
6.224116182e-16
5.968262582e-16
5.911331128e-16
5.993194008e-16
6.030366722e-16
6.147364179e-16
5.932071417e-16
5.993062871e-16
6.137755515e-16
5.829074066e-16
5.945993527e-16
5.745574919e-16
6.168147064e-16
5.915787449e-16
5.621284124e-16
5.938276398e-16
5.768979805e-16
6.031912786e-16
6.036206447e-16
5.299870348e-16
5.923044592e-16
6.080055247e-16
5.943583516e-16
5.839077434e-16
6.017048935e-16
5.753642579e-16
5.731009427e-16
5.530497337e-16
5.520437212e-16
5.315406049e-16
5.671792293e-16
5.808152779e-16
5.58784033e-16
5.900351826e-16
4.653037479e-16
5.417628872e-16
5.788580871e-16
5.672101438e-16
5.694982112e-16
4.627824831e-16
5.403935007e-16
5.62538798e-16
6.014933739e-16
5.960159709e-16
5.592863076e-16
5.380978941e-16
5.744930956e-16
5.70445509e-16
5.758036381e-16
5.873044883e-16
5.947439895e-16
5.451724184e-16
6.130388659e-16
5.669136287e-16
5.571531609e-16
4.532136323e-16
5.538190324e-16
5.44377911e-16
5.544716617e-16
4.579658895e-16
5.757709489e-16
5.39198098e-16
5.366620756e-16
5.142518744e-16
6.52033984e-16
6.618942737e-16
6.587987571e-16
6.559960586e-16
6.744516923e-16
6.548856596e-16
6.549364746e-16
6.450370726e-16
6.526891548e-16
6.558516608e-16
6.434165363e-16
6.465629219e-16
6.497562122e-16
6.449092242e-16
6.600681195e-16
6.472479437e-16
6.351642821e-16
6.330043384e-16
6.268538134e-16
6.374144642e-16
6.31544805e-16
6.106196395e-16
6.430897517e-16
6.326035402e-16
6.117120557e-16
6.498554465e-16
6.492771621e-16
6.527978598e-16
6.625950842e-16
6.500986605e-16
6.510164116e-16
6.421813235e-16
6.532751722e-16
6.6588256e-16
6.454426089e-16
6.561819899e-16
6.520661563e-16
6.501849483e-16
6.804030253e-16
6.489759484e-16
6.55896272e-16
6.3721981e-16
6.314076746e-16
6.333709142e-16
6.356224898e-16
6.330749466e-16
6.271391569e-16
6.357755145e-16
6.452062199e-16
6.045515271e-16
6.639728039e-16
6.598086804e-16
6.396599119e-16
6.506722546e-16
6.440428971e-16
6.521516784e-16
6.572961012e-16
6.49948656e-16
6.607155654e-16
6.711529634e-16
6.556677491e-16
6.422236142e-16
6.426826645e-16
6.602766325e-16
6.70008601e-16
6.350223137e-16
6.49319242e-16
6.714761753e-16
6.734300218e-16
6.321764626e-16
6.294206698e-16
6.294755579e-16
6.236714893e-16
6.428407478e-16
6.44795899e-16
6.480298387e-16
6.735789492e-16
6.552264272e-16
6.484241252e-16
6.501879123e-16
6.571810811e-16
6.530058263e-16
6.677397881e-16
6.694666203e-16
6.409019524e-16
6.507823906e-16
6.572381153e-16
6.376457538e-16
6.582880552e-16
6.525771501e-16
6.561426039e-16
6.458233349e-16
6.625386205e-16
6.492855584e-16
6.366192099e-16
6.377123898e-16
6.376081484e-16
6.326741789e-16
6.262047515e-16
6.304569032e-16
6.59213061e-16
6.503370245e-16
6.603532921e-16
6.666740829e-16
6.514433534e-16
6.569977375e-16
6.682446326e-16
6.610030622e-16
6.537206725e-16
6.695664059e-16
6.381774823e-16
6.8225416e-16
6.676074392e-16
6.563848402e-16
6.602783261e-16
6.491185909e-16
6.469751348e-16
6.790021341e-16
6.636172509e-16
6.637456743e-16
6.492785344e-16
6.499871441e-16
6.458959105e-16
6.195930917e-16
6.208044715e-16
6.610622595e-16
6.513757441e-16
6.487499459e-16
6.432771963e-16
6.48382332e-16
6.490379442e-16
6.478350251e-16
6.787740918e-16
6.582454059e-16
6.610321363e-16
6.516795278e-16
6.506666847e-16
6.427294502e-16
6.451556975e-16
6.735897754e-16
6.460885514e-16
6.435989651e-16
6.346112751e-16
6.663321166e-16
6.558394379e-16
6.395507866e-16
6.328281275e-16
6.323677048e-16
6.335806031e-16
6.433928448e-16
6.470216254e-16
6.409243769e-16
6.497412721e-16
6.502747595e-16
6.619548965e-16
6.578230725e-16
6.603129151e-16
6.592556643e-16
6.703734011e-16
6.632843636e-16
6.536036211e-16
6.918178605e-16
6.57059571e-16
6.487444642e-16
6.759660672e-16
6.533676401e-16
6.643437272e-16
6.457847418e-16
6.633758842e-16
6.578192126e-16
6.410935067e-16
6.581543899e-16
6.408211693e-16
6.361959369e-16
6.249990323e-16
6.540358214e-16
6.469621766e-16
6.443705782e-16
6.534204223e-16
6.410098591e-16
6.606300981e-16
6.880636667e-16
6.527828671e-16
6.512526745e-16
6.452960688e-16
6.495862318e-16
6.716660717e-16
6.82699033e-16
6.677281857e-16
6.415037994e-16
6.501991344e-16
6.603263811e-16
6.515879357e-16
6.429124313e-16
6.355817732e-16
6.515876196e-16
6.33638313e-16
6.401881138e-16
6.378802725e-16
6.550903809e-16
6.343139257e-16
6.596409595e-16
6.413541667e-16
6.565127096e-16
6.397936288e-16
6.528422024e-16
6.427777099e-16
6.811676658e-16
6.532237565e-16
6.491351639e-16
6.614892358e-16
6.58376064e-16