/*--------------------------------*- C++ -*----------------------------------*\
| =========                 |                                                 |
| \\      /  F ield         | OpenFOAM: The Open Source CFD Toolbox           |
|  \\    /   O peration     | Version:  v1706                                 |
|   \\  /    A nd           | Web:      www.OpenFOAM.com                      |
|    \\/     M anipulation  |                                                 |
\*---------------------------------------------------------------------------*/
FoamFile
{
    version     2.0;
    format      ascii;
    class       volVectorField;
    location    "0.003";
    object      fD_Ar;
}
// * * * * * * * * * * * * * * * * * * * * * * * * * * * * * * * * * * * * * //

dimensions      [1 -1 -2 0 0 0 0];


internalField   uniform (0 0 0);

boundaryField
{
    flow
    {
        type            calculated;
        value           uniform (0 0 0);
    }
    entrance
    {
        type            symmetry;
    }
    walls
    {
        type            calculated;
        value           nonuniform List<vector> 
900
(
(1.59623436 -2.068722209 0.1411579314)
(1.653329138 -1.668297815 0.1451606264)
(1.594013948 -1.445206301 0.1193646667)
(1.540131802 -1.25411642 0.06462558061)
(1.489853522 -1.147983657 0.06823624005)
(1.470008448 -1.08512948 0.04517169952)
(1.491511239 -1.07650753 0.03382444504)
(1.517028664 -1.05770548 0.03841158568)
(1.453372942 -1.011506771 0.02006696332)
(1.457305229 -1.008778487 0.04000990312)
(1.410051792 -0.9480802909 0.02295948766)
(1.513469297 -0.9952120869 0.008774005646)
(1.411291254 -0.95089496 0.03268492568)
(1.474917746 -0.956261208 0.004539464123)
(1.435402048 -0.9409549856 0.003353374648)
(1.411191339 -0.898353822 0.03547487065)
(1.423815388 -0.8710778469 0.007995649056)
(1.452760045 -0.869611033 0.0595765403)
(1.739160472 -2.758605565 0.123805143)
(1.848895487 -2.275042444 0.2076749911)
(1.790214907 -1.913145987 0.1833450776)
(1.695656633 -1.62946257 0.1226322065)
(1.648725797 -1.501740378 0.1122851264)
(1.598443666 -1.367522661 0.04527522274)
(1.596026842 -1.298131334 0.06102595949)
(1.566361159 -1.244901917 0.0626916508)
(1.539809487 -1.212827362 0.03770005529)
(1.559454414 -1.216601535 0.02416208166)
(1.497118291 -1.14038459 0.007459267046)
(1.575306367 -1.173202401 0.008680038246)
(1.485053972 -1.106788781 0.03271425716)
(1.50155841 -1.120468296 0.01849165453)
(1.506801617 -1.105068948 0.04212396706)
(1.519580635 -1.069124381 -0.008282118436)
(1.461791137 -0.9973366552 0.05510856161)
(1.384210324 -0.8791943634 0.07223922975)
(1.659130826 -3.10086127 0.09937051389)
(1.959004165 -2.776066951 0.2962137349)
(1.864549673 -2.284409109 0.2291885028)
(1.8578855 -2.023210326 0.1642712372)
(1.785941798 -1.779497616 0.1386802404)
(1.751171109 -1.621765219 0.1028903596)
(1.657059697 -1.535067475 0.07041762556)
(1.644615662 -1.492515925 0.06245291306)
(1.713455557 -1.454076909 0.06002430449)
(1.607539761 -1.35296605 0.02569477476)
(1.61515731 -1.357138052 0.03537960809)
(1.546163191 -1.274007034 0.04838291169)
(1.552251413 -1.264835838 0.0336779244)
(1.575352058 -1.238330144 0.02172091793)
(1.559391959 -1.208837018 0.03166247355)
(1.516962342 -1.163909039 0.03743820556)
(1.482438336 -1.077822938 0.07180873292)
(1.396537164 -0.9211578381 0.1045348261)
(1.519095349 -3.340690174 0.04486515837)
(2.031190813 -3.137718783 0.2389672695)
(2.047401896 -2.690526629 0.3089879863)
(1.93253091 -2.369253342 0.2662353115)
(1.901381891 -2.090276131 0.1819968133)
(1.790097105 -1.891155861 0.1392210382)
(1.779951756 -1.750437656 0.09771552599)
(1.76946775 -1.675299435 0.06737115568)
(1.686869358 -1.564727153 0.07215355139)
(1.656550745 -1.482403051 0.04015552681)
(1.649941782 -1.464728007 0.05363442642)
(1.718620431 -1.4504524 0.03273627706)
(1.609168619 -1.387676968 0.02352908643)
(1.570635561 -1.346135549 0.04462895894)
(1.532514375 -1.272191068 0.05707860164)
(1.575846696 -1.248083053 0.08098101499)
(1.481175771 -1.124697728 0.0897273971)
(1.450915707 -0.9900841876 0.1372858798)
(1.374809248 -3.396579204 0.00376297703)
(1.983464922 -3.30588182 0.2234027943)
(2.105437132 -2.99143419 0.2899744916)
(1.996314099 -2.656426315 0.3138825957)
(1.951638414 -2.35078674 0.2669908616)
(1.881626182 -2.089927298 0.196358798)
(1.806345375 -1.960704584 0.1720419605)
(1.712177103 -1.803902842 0.09548817396)
(1.693986507 -1.739054694 0.09423932491)
(1.720305736 -1.652796876 0.07774985172)
(1.682429519 -1.581213644 0.06585869451)
(1.650660922 -1.541210575 0.06265638513)
(1.586474911 -1.448463147 0.05541896665)
(1.596009505 -1.386145468 0.06373532336)
(1.557488622 -1.314337556 0.05589376409)
(1.542964194 -1.270304767 0.08813748692)
(1.428520617 -1.1371729 0.112195593)
(1.429533908 -1.009122711 0.1357317399)
(1.260218427 -3.501925153 -0.00832465712)
(1.829606922 -3.387015672 0.2042144589)
(2.070404112 -3.192738793 0.283740552)
(1.976032722 -2.837578669 0.2995826782)
(1.937205565 -2.522619671 0.26789084)
(1.922994572 -2.353375283 0.2488730084)
(1.798400718 -2.11973075 0.1886429357)
(1.792709356 -1.957785705 0.1357699549)
(1.692424261 -1.816255728 0.1345011629)
(1.670379236 -1.748630726 0.1209238743)
(1.684002852 -1.693384623 0.09146991381)
(1.638826373 -1.572385499 0.05242986386)
(1.618177226 -1.517279113 0.06132226785)
(1.634511214 -1.484649827 0.06134737351)
(1.578806901 -1.40527512 0.09595640988)
(1.473555692 -1.277131794 0.09123217018)
(1.451286595 -1.170831338 0.1223795197)
(1.476062266 -1.06514822 0.1619250236)
(1.153980687 -3.475322055 -0.03495227252)
(1.756405261 -3.496882731 0.1142477631)
(2.002717837 -3.33301857 0.2661147887)
(2.049762467 -3.048478028 0.3322818456)
(2.011553843 -2.781593752 0.3025370472)
(1.95035209 -2.536188492 0.2547092567)
(1.835253108 -2.2754005 0.2374969967)
(1.815898587 -2.140009707 0.1645092365)
(1.7411938 -1.977700216 0.1563987524)
(1.703364082 -1.880729567 0.1434425183)
(1.687913837 -1.763422294 0.1077302568)
(1.622901546 -1.662737458 0.1066976987)
(1.626190537 -1.604803298 0.1016062084)
(1.557219915 -1.484290905 0.08718311386)
(1.543933176 -1.409777584 0.1070589864)
(1.492426374 -1.359151769 0.1364000545)
(1.48032954 -1.230345918 0.1564972528)
(1.412379868 -1.048125218 0.1788802398)
(1.078754802 -3.508768857 -0.02345743191)
(1.642566609 -3.594589244 0.05875647439)
(1.959690588 -3.448104847 0.2233538603)
(1.946825096 -3.134719621 0.3157256452)
(1.982815782 -2.944048132 0.2904546133)
(1.960508734 -2.698687475 0.2945497102)
(1.860449087 -2.460423495 0.249584705)
(1.792031322 -2.278663289 0.2075561083)
(1.802952554 -2.137656075 0.1854244945)
(1.737687352 -1.958978216 0.1382807286)
(1.660471139 -1.861854234 0.1699838106)
(1.616228558 -1.714381433 0.09183710535)
(1.611833572 -1.635298128 0.1232744484)
(1.573244539 -1.566707873 0.1122166483)
(1.520866182 -1.502102966 0.1317141925)
(1.43808147 -1.328308395 0.1522847278)
(1.396304636 -1.223025519 0.1576131101)
(1.40296429 -1.068247833 0.1911283845)
(0.9772762875 -3.453753112 -0.1074344444)
(1.527243824 -3.510932729 0.09168088932)
(1.809507291 -3.378215551 0.1812605029)
(1.969654509 -3.291920911 0.3051580216)
(1.946655525 -3.028410002 0.3353214606)
(1.975889358 -2.85430197 0.3036201419)
(1.909436761 -2.646324168 0.3058225011)
(1.857156734 -2.43026981 0.258786293)
(1.800032393 -2.216952006 0.202704921)
(1.708853531 -2.072054156 0.2096776595)
(1.691696962 -1.965552951 0.1811724628)
(1.623919266 -1.823603772 0.1395458056)
(1.595149535 -1.717418554 0.1491643606)
(1.585324961 -1.596663346 0.1369960171)
(1.476586907 -1.464548203 0.1564815058)
(1.443377761 -1.35426108 0.1358332504)
(1.402276054 -1.242812827 0.1747461219)
(1.464317602 -1.139251606 0.1981429665)
(0.9023579924 -3.385899688 -0.05941145634)
(1.448418635 -3.531026484 0.06556078703)
(1.758908679 -3.475605023 0.1829662073)
(1.832340943 -3.283830746 0.2831872694)
(1.941626435 -3.152981858 0.3783529334)
(1.978317853 -2.976212569 0.3210403117)
(1.877733612 -2.748050071 0.3027576141)
(1.785197969 -2.470183847 0.2752105394)
(1.767985553 -2.321843808 0.2841954563)
(1.729468454 -2.153211973 0.2358457849)
(1.680251842 -2.035185227 0.1973199392)
(1.579898389 -1.854930681 0.1646448654)
(1.533900865 -1.706085843 0.1426459352)
(1.518024943 -1.624397329 0.1562621878)
(1.427848934 -1.492978277 0.162444837)
(1.417525977 -1.376755078 0.1873811722)
(1.366595545 -1.24959414 0.2101002808)
(1.371492742 -1.120139302 0.2160601685)
(0.843010963 -3.354862118 -0.08010662438)
(1.281526644 -3.441688698 0.04019750842)
(1.543171205 -3.388710615 0.180231219)
(1.789196383 -3.363601634 0.1815558141)
(1.824718415 -3.119247093 0.2824727817)
(1.830485634 -2.955218082 0.3219229793)
(1.877697606 -2.788547022 0.3199231099)
(1.869377347 -2.664372478 0.3204067739)
(1.725802895 -2.384529331 0.2779238223)
(1.711177137 -2.261130391 0.249461781)
(1.694338793 -2.118367754 0.2187458379)
(1.57446398 -1.935995349 0.2088883069)
(1.562059747 -1.799023234 0.1967243)
(1.508522266 -1.653991565 0.1570168512)
(1.457236779 -1.531932452 0.1830368957)
(1.399051126 -1.402884737 0.2002264891)
(1.336043381 -1.233321057 0.2069356685)
(1.362065274 -1.141548316 0.2369130539)
(0.7870135728 -3.343886413 -0.07179570995)
(1.203873494 -3.354147733 -0.008554793903)
(1.542817277 -3.390003209 0.1188971514)
(1.680174757 -3.306462899 0.2172859766)
(1.807109936 -3.176014613 0.2482236755)
(1.871652257 -3.082460689 0.2981848974)
(1.838944697 -2.86680327 0.3441292719)
(1.816142248 -2.683836736 0.3315151631)
(1.733907966 -2.50995868 0.2955427498)
(1.712141142 -2.324787968 0.2624096972)
(1.704601902 -2.183490792 0.2328334288)
(1.605815237 -2.025273813 0.2242515159)
(1.542984177 -1.858800201 0.2269821242)
(1.504102061 -1.73597436 0.225731441)
(1.407911497 -1.570419808 0.2166242471)
(1.409118418 -1.450662655 0.2184973232)
(1.394074225 -1.357314923 0.2430908254)
(1.425837514 -1.185607043 0.2403570881)
(0.75369854 -3.250096503 -0.09064910649)
(1.127808972 -3.27951584 -0.01584547005)
(1.455560667 -3.339439015 0.07419302052)
(1.61976303 -3.282954421 0.1879311582)
(1.734351802 -3.18310659 0.2325705195)
(1.761128962 -3.024099461 0.2939615179)
(1.826269252 -2.886854095 0.3067015541)
(1.775773742 -2.741577289 0.3169811968)
(1.724429814 -2.538180192 0.2772955212)
(1.679125264 -2.340447274 0.2884948425)
(1.616876551 -2.214039573 0.3169579616)
(1.58572617 -2.04075055 0.2246344152)
(1.587511191 -1.917649474 0.2646821742)
(1.513555777 -1.799835892 0.2187032584)
(1.449393576 -1.622848765 0.2344273163)
(1.371989415 -1.453835147 0.2249284165)
(1.365819353 -1.345295179 0.2283784749)
(1.432071423 -1.255124168 0.2402564104)
(0.6979133455 -3.160438881 -0.0779419054)
(1.058062609 -3.22722722 0.004685094836)
(1.356825799 -3.212809731 0.06159429235)
(1.516454068 -3.208262116 0.148099708)
(1.652442606 -3.102450394 0.208176233)
(1.726628713 -3.007984313 0.292070435)
(1.76793329 -2.881949015 0.3036776601)
(1.74862249 -2.79367236 0.3163864889)
(1.726073717 -2.605854845 0.2916290794)
(1.688178005 -2.462783894 0.2803928757)
(1.571306899 -2.230014152 0.2600173455)
(1.590503679 -2.128647024 0.253777463)
(1.539047241 -1.951240151 0.2862954978)
(1.448212352 -1.787528404 0.2640651195)
(1.430309627 -1.689864989 0.2527016655)
(1.375520611 -1.518607941 0.2458505101)
(1.331435936 -1.344182358 0.2397992354)
(1.404726198 -1.215784405 0.2751654915)
(0.647663154 -3.082421334 -0.07250652876)
(0.9819198083 -3.140681983 -0.005292337757)
(1.292247836 -3.19072768 0.05547550165)
(1.482411139 -3.148061262 0.1102411987)
(1.623508667 -3.147780728 0.1696332221)
(1.679606627 -3.008419817 0.2450271934)
(1.735487996 -2.952890834 0.2772137984)
(1.675926972 -2.755694064 0.3229034883)
(1.668169655 -2.605899432 0.323148046)
(1.65466409 -2.451096953 0.2880369243)
(1.653743181 -2.322797509 0.3094688954)
(1.529875347 -2.129412117 0.2779222382)
(1.509567975 -1.98675527 0.2585228983)
(1.465428583 -1.868871723 0.2807409877)
(1.386026194 -1.666928845 0.2737322575)
(1.396797109 -1.548686664 0.2669617046)
(1.389130857 -1.43034789 0.2743857862)
(1.447081787 -1.286019853 0.2981879463)
(0.6457446118 -3.035400693 -0.05768319372)
(0.956884089 -3.069764496 -0.01724699445)
(1.247225843 -3.114162237 0.0389475204)
(1.423306256 -3.105309347 0.1239954979)
(1.532575263 -3.017969857 0.1591079563)
(1.595402749 -2.936575025 0.2095837887)
(1.695740268 -2.914779396 0.2616829763)
(1.713775678 -2.799818052 0.3061611645)
(1.698401951 -2.647734781 0.3053551374)
(1.630652645 -2.460432019 0.3163235131)
(1.618561133 -2.35084574 0.3243763806)
(1.589322254 -2.176805007 0.3070362162)
(1.483438868 -2.012614417 0.2954157121)
(1.466022039 -1.874847003 0.294282383)
(1.41947309 -1.734219954 0.300919416)
(1.35076007 -1.578257329 0.2760732104)
(1.371123171 -1.471236874 0.2865035021)
(1.423358425 -1.285150912 0.2980784852)
(0.5999770192 -2.923651587 -0.07055753831)
(0.8997223984 -2.937397208 -0.02867182822)
(1.138538882 -2.992090657 0.02926617771)
(1.361014274 -3.044551626 0.09409709684)
(1.462812797 -2.934814164 0.1688845184)
(1.579419433 -2.934265641 0.2444744515)
(1.597200743 -2.862163407 0.2257186641)
(1.648164605 -2.757804773 0.3011124498)
(1.640691868 -2.649658764 0.3176871425)
(1.611357742 -2.505070774 0.2831168225)
(1.597328783 -2.361622057 0.3338566512)
(1.511331999 -2.161788118 0.3148136352)
(1.503460173 -2.06507872 0.3232515737)
(1.411719136 -1.907251249 0.3083904043)
(1.391603831 -1.730637275 0.3056069732)
(1.433339124 -1.652779252 0.3013414996)
(1.35554734 -1.447760154 0.3058866911)
(1.501290098 -1.36357631 0.3234985044)
(0.5858653818 -2.754881196 -0.02540414795)
(0.9154552173 -2.91679808 -0.009792960256)
(1.074716559 -2.844955421 -0.01043401853)
(1.265197378 -2.871653553 0.1079851158)
(1.411659658 -2.846009662 0.1411096123)
(1.537331665 -2.890739113 0.1715148399)
(1.551578184 -2.777628291 0.2326569373)
(1.533754949 -2.635930829 0.2546011931)
(1.592613806 -2.614367246 0.3044500872)
(1.546523451 -2.486785899 0.3178946155)
(1.595532034 -2.360172008 0.3443168804)
(1.534116272 -2.202453189 0.3284529926)
(1.511760695 -2.101910481 0.3376486868)
(1.402451181 -1.889308166 0.3203300071)
(1.362541198 -1.727786384 0.3287151416)
(1.33473983 -1.582471748 0.330088852)
(1.375495211 -1.485380352 0.2979784322)
(1.428133082 -1.331054503 0.3081608046)
(0.5451263008 -2.707720536 -0.07162873548)
(0.8499510276 -2.742016884 -0.009908597996)
(1.07222424 -2.812126757 0.02670252621)
(1.229318172 -2.814871161 0.06513713988)
(1.359818995 -2.755219231 0.09612647887)
(1.464362952 -2.754488264 0.1681738652)
(1.531174755 -2.696365597 0.2236714165)
(1.53717624 -2.643084665 0.2489832389)
(1.561634196 -2.549152481 0.2824528765)
(1.574255789 -2.457840077 0.3139027657)
(1.465932451 -2.254545783 0.3123379412)
(1.507320841 -2.217536677 0.3245888421)
(1.422072762 -2.027951995 0.3353207172)
(1.359527537 -1.863503518 0.333342247)
(1.356373766 -1.751701864 0.3127636064)
(1.363867655 -1.619646347 0.3356351177)
(1.372595724 -1.512508243 0.3271539252)
(1.448081341 -1.36459748 0.3261755673)
(0.5701723538 -2.567828062 -0.05795810107)
(0.7993159631 -2.628750394 -0.05929735856)
(1.049677684 -2.599008175 0.01773050658)
(1.171065461 -2.615022754 0.03857191251)
(1.294411599 -2.574656468 0.08171773786)
(1.36899462 -2.56882067 0.1620210484)
(1.451245577 -2.58401545 0.2114331459)
(1.528170063 -2.565159109 0.2564792272)
(1.514219892 -2.46145947 0.2654436745)
(1.505833606 -2.379677567 0.3150825949)
(1.516121392 -2.273322622 0.3186459105)
(1.473616672 -2.130141303 0.3339610011)
(1.404257664 -2.0262542 0.3344652963)
(1.395094531 -1.896801653 0.3401218461)
(1.327726423 -1.735972153 0.3224488592)
(1.301804396 -1.597905639 0.322873608)
(1.323921015 -1.500497775 0.3424534549)
(1.474970343 -1.403593058 0.3224192191)
(0.5509979372 -2.361441682 -0.03977503129)
(0.8139715671 -2.431805808 -0.06543523677)
(0.9618826472 -2.463015767 -0.01531417567)
(1.192341895 -2.529407705 0.04816311851)
(1.247884365 -2.510244879 0.08411301961)
(1.340162337 -2.499676556 0.1505141392)
(1.436022919 -2.473977488 0.1617244555)
(1.47557525 -2.473067433 0.2225879536)
(1.509802172 -2.439451836 0.2616266686)
(1.458590473 -2.303898938 0.2924707766)
(1.424512188 -2.181292113 0.2885013563)
(1.428466408 -2.084814516 0.2894364863)
(1.399059014 -1.964287618 0.3543328587)
(1.376152352 -1.885377913 0.3275202926)
(1.334300986 -1.747810656 0.35464088)
(1.268897213 -1.583499968 0.3578329629)
(1.362516158 -1.547498154 0.3150308546)
(1.470315053 -1.380411056 0.3347704362)
(0.564111597 -2.207319579 -0.08013215112)
(0.7824862079 -2.265873204 -0.04843526033)
(0.9442741796 -2.297033554 -0.001340868776)
(1.140181786 -2.367268429 0.03740202019)
(1.213904922 -2.357100692 0.08436717085)
(1.268469876 -2.328030971 0.1064233336)
(1.400130942 -2.390187224 0.1523425206)
(1.41907788 -2.335705565 0.1966171785)
(1.42599123 -2.239484312 0.2322406126)
(1.426842041 -2.261881906 0.2586667651)
(1.477923902 -2.175223403 0.2906632655)
(1.374099645 -2.006692355 0.3011427152)
(1.366972162 -1.928092938 0.2943325593)
(1.368651709 -1.852210338 0.3040401502)
(1.301858109 -1.692964994 0.3072371115)
(1.295805813 -1.587131262 0.330796691)
(1.363132225 -1.535295921 0.3351395591)
(1.499340933 -1.423586118 0.3533626429)
(0.5582959665 -2.055583802 -0.06662019056)
(0.7420007349 -2.038172439 -0.0441108201)
(0.9572441001 -2.093221659 -0.007009564664)
(1.045906363 -2.100899903 -0.002838028276)
(1.189217493 -2.158403327 0.05256557124)
(1.324933387 -2.251312985 0.08897752922)
(1.383278777 -2.246752682 0.1099122785)
(1.344303645 -2.157289713 0.1604075182)
(1.426039272 -2.154319481 0.1875000146)
(1.425809005 -2.099171368 0.2677177237)
(1.37850524 -2.02710937 0.2684108818)
(1.387975316 -1.953246851 0.2744922656)
(1.349512811 -1.859565708 0.3026763598)
(1.326044069 -1.733494591 0.3049269506)
(1.303742939 -1.655244292 0.3017887394)
(1.28233687 -1.571280722 0.331729945)
(1.381869232 -1.514045671 0.3308544221)
(1.486720195 -1.42197754 0.3608972329)
(0.5742030472 -1.806544568 -0.04910004852)
(0.8180765724 -1.866161139 -0.04813406934)
(0.9275081543 -1.85885096 -0.04244854984)
(1.078366816 -1.965651951 -0.00966860665)
(1.181882697 -1.999303699 0.01069860667)
(1.2272074 -1.980465828 0.04753669564)
(1.286032851 -2.002984448 0.09730280752)
(1.283785825 -1.95227903 0.1518342463)
(1.357560006 -2.001958614 0.2008293378)
(1.406833276 -1.987871538 0.2306701681)
(1.409227129 -1.924736236 0.2415886032)
(1.342577175 -1.816826388 0.2480885486)
(1.317273998 -1.753007028 0.2802869468)
(1.329800541 -1.686896095 0.3046413646)
(1.252791699 -1.550861466 0.2753128674)
(1.298928801 -1.516411759 0.3288059894)
(1.340379598 -1.442845839 0.3312137324)
(1.502484375 -1.392255638 0.3389959392)
(0.5705536576 -1.390989545 -0.06149336248)
(0.8165397976 -1.510929291 -0.09562118968)
(0.9241808394 -1.610619974 -0.04260705335)
(1.059116588 -1.714227749 -0.02066425959)
(1.133527669 -1.75273733 0.06104480005)
(1.208331191 -1.755779634 0.04088977178)
(1.300960024 -1.814941661 0.08544247907)
(1.375480669 -1.830864129 0.1408038999)
(1.397421327 -1.834200771 0.1825359038)
(1.362388192 -1.775760876 0.2216697205)
(1.406969563 -1.752927497 0.2255148113)
(1.325178485 -1.651030974 0.2358796292)
(1.316619497 -1.57204314 0.2765680673)
(1.30327882 -1.55624372 0.2818085554)
(1.305622389 -1.495744298 0.2908287896)
(1.315676193 -1.408900736 0.3189888539)
(1.391433615 -1.387229833 0.3141514714)
(1.529294969 -1.368375037 0.3218764981)
(1.633816469 0.1482388092 -2.12107632)
(1.623117822 0.1254477705 -1.617357442)
(1.591284621 0.1164233668 -1.41350493)
(1.5399747 0.06472852014 -1.272933678)
(1.514487409 0.05626601155 -1.167002894)
(1.481491706 0.02716593344 -1.101174442)
(1.506567416 0.03232047775 -1.070418496)
(1.497251466 0.03272115979 -1.037543474)
(1.45771263 0.009523667614 -1.005764431)
(1.418915795 0.01191246409 -0.9574076307)
(1.46078485 0.005421291977 -0.9865618448)
(1.42402477 0.02259961077 -0.9578290653)
(1.421092953 0.002231795797 -0.9360266725)
(1.458570795 0.01433263706 -0.9691094626)
(1.444559719 0.02563342731 -0.9310295118)
(1.393250205 0.01932176218 -0.9002961291)
(1.335055439 0.01204159879 -0.8254713251)
(1.388073547 0.04732641833 -0.7902400461)
(1.672919495 0.1345096849 -2.72925054)
(1.841806674 0.2193792654 -2.273899437)
(1.825874988 0.1862497205 -1.928143954)
(1.702718337 0.1416817287 -1.649206649)
(1.677259083 0.1091285477 -1.480543015)
(1.634981972 0.08232710608 -1.37953275)
(1.575894972 0.05572877916 -1.345954226)
(1.612806666 0.04216534289 -1.286298318)
(1.538730401 0.005254015238 -1.199261651)
(1.543705553 0.04239142014 -1.18155788)
(1.558787448 0.01398131012 -1.192721889)
(1.532034719 0.02166851498 -1.150623202)
(1.488721038 0.02133929676 -1.113221514)
(1.550151154 -0.004052180739 -1.1233619)
(1.515796831 0.01576342326 -1.09898821)
(1.552431593 0.0412430154 -1.108083865)
(1.470329055 0.06805164758 -1.003505585)
(1.383427476 0.06711880518 -0.8636721148)
(1.622291962 0.07796170537 -3.062895998)
(2.008953747 0.2555256973 -2.803772922)
(1.975042464 0.2806125421 -2.399973564)
(1.860982449 0.190914051 -2.026744986)
(1.810748516 0.1631963602 -1.785936849)
(1.766277651 0.1218957417 -1.702524426)
(1.682202346 0.06728311703 -1.555346613)
(1.677088778 0.08044256917 -1.48024031)
(1.679576889 0.04356848727 -1.418331233)
(1.599377879 0.0308961405 -1.340198551)
(1.621464368 0.02568254292 -1.355817797)
(1.631907863 0.01403249288 -1.301430147)
(1.601851374 0.03830433667 -1.296858475)
(1.539528293 0.02575091834 -1.214268456)
(1.572839612 0.03471968268 -1.254824561)
(1.614689053 0.04630019732 -1.214269621)
(1.485582768 0.07004003447 -1.086232268)
(1.422252492 0.09643736163 -0.9476390755)
(1.493527718 0.05603144536 -3.248819533)
(2.03424194 0.30656778 -3.109994553)
(2.027235579 0.2752730408 -2.712838739)
(1.956161798 0.2370319933 -2.358619269)
(1.88043872 0.2040379777 -2.109040226)
(1.801687563 0.1351544618 -1.894371241)
(1.816637087 0.1325502513 -1.819039487)
(1.723191476 0.08065514827 -1.64327199)
(1.726706091 0.06852807724 -1.576981562)
(1.661514028 0.06351897729 -1.510544143)
(1.616912202 0.02495692756 -1.44894012)
(1.600192851 0.03866511869 -1.405198909)
(1.571721954 0.04303367873 -1.361489875)
(1.609459886 0.0249490963 -1.369985551)
(1.558422072 0.05595336114 -1.294053911)
(1.536697808 0.05268779539 -1.240366943)
(1.451509589 0.07652534927 -1.102036378)
(1.466797359 0.1342434453 -1.011923035)
(1.470173849 0.01072075515 -3.411911388)
(1.967277917 0.2394696152 -3.246572893)
(2.086256718 0.2800351856 -2.974122358)
(2.073958618 0.2777149856 -2.701437058)
(1.966279108 0.2244798989 -2.372944948)
(1.846724677 0.1855611759 -2.089897747)
(1.804843455 0.1363883962 -1.981587419)
(1.823499737 0.1170548895 -1.868996195)
(1.7033738 0.07361929724 -1.711452807)
(1.731185749 0.07599840417 -1.647896243)
(1.630768632 0.06620752829 -1.552772567)
(1.645213384 0.06524118596 -1.513989491)
(1.588950003 0.04258231588 -1.441494907)
(1.574154018 0.06585057669 -1.394061542)
(1.550440204 0.06002959728 -1.333651818)
(1.493604725 0.08117116352 -1.258556506)
(1.483766651 0.08594661039 -1.158456269)
(1.400634984 0.1190617835 -1.00083264)
(1.28436737 -0.01920461614 -3.430127747)
(1.934228115 0.1816930715 -3.51560838)
(2.065151151 0.2790995055 -3.179612605)
(2.026702877 0.3476002902 -2.868545146)
(1.962354748 0.2847599358 -2.539414878)
(1.924114463 0.2365238272 -2.332612943)
(1.835811876 0.1818894558 -2.107366)
(1.767962432 0.1520367437 -1.958080938)
(1.711915706 0.1335063637 -1.828370171)
(1.680768315 0.08493947791 -1.727190189)
(1.722266652 0.09603910992 -1.709212494)
(1.658601015 0.06121417279 -1.596450625)
(1.588901472 0.0736005264 -1.512008736)
(1.565196554 0.06773428101 -1.433445453)
(1.540689291 0.08704569392 -1.365288794)
(1.516803983 0.1146343441 -1.317029732)
(1.441882031 0.1287587314 -1.181309981)
(1.422645295 0.1506937925 -1.050149566)
(1.168928636 0.004338432272 -3.447448243)
(1.71873533 0.1321383582 -3.441814994)
(1.997860465 0.2895109509 -3.356738264)
(2.03185057 0.2888266759 -3.042353788)
(2.011470193 0.305817524 -2.794590559)
(1.918034961 0.279398703 -2.511370242)
(1.871403657 0.2620227769 -2.317332817)
(1.827982314 0.2175350653 -2.151882404)
(1.746338858 0.1579927041 -1.971370893)
(1.676476076 0.1268455996 -1.819186575)
(1.685431125 0.0986203876 -1.792098226)
(1.66700479 0.1145021399 -1.699745595)
(1.589834398 0.08882783744 -1.59354657)
(1.585239262 0.07802849082 -1.514676354)
(1.516301977 0.1046282845 -1.416188796)
(1.508372953 0.1357755333 -1.359426603)
(1.469312517 0.1663064607 -1.239678887)
(1.421949378 0.1702223491 -1.058546476)
(1.052671911 -0.03825062621 -3.43541674)
(1.594421083 0.1512178616 -3.536907834)
(1.979620866 0.2629013189 -3.47401991)
(1.972817823 0.3505855498 -3.146316698)
(1.979968791 0.284921353 -2.886396752)
(1.968438323 0.2932372365 -2.697252771)
(1.919431897 0.2596860696 -2.498651963)
(1.803345689 0.2227788109 -2.280344757)
(1.850129116 0.1635431872 -2.129021104)
(1.690923397 0.1578427743 -1.968335945)
(1.682375126 0.1434137326 -1.822145826)
(1.678875746 0.1489651645 -1.755763987)
(1.64111769 0.1139963596 -1.672363547)
(1.624056944 0.1164540265 -1.594217784)
(1.478412533 0.1514428708 -1.448833158)
(1.507106487 0.143016413 -1.38709464)
(1.400008393 0.1750441963 -1.205753701)
(1.414024846 0.1808231945 -1.061065269)
(0.9455728597 -0.05672095942 -3.428462862)
(1.495245544 0.06494901627 -3.510680873)
(1.774478883 0.1944958365 -3.340620362)
(1.923952021 0.2862863127 -3.276285082)
(2.010896977 0.3319501681 -3.101956188)
(1.890489934 0.3057151709 -2.786051003)
(1.859215785 0.2886037857 -2.603731623)
(1.820414163 0.241452796 -2.389412494)
(1.804984636 0.2474191803 -2.206830153)
(1.704527879 0.1848691796 -2.072241623)
(1.67091183 0.1547302643 -1.94047403)
(1.612047028 0.1489509979 -1.801802994)
(1.603469316 0.1643415293 -1.713227156)
(1.577513217 0.126869422 -1.621863804)
(1.473998399 0.1418447568 -1.458239272)
(1.432937233 0.1547471509 -1.347637699)
(1.377593473 0.1708909143 -1.216238915)
(1.419579027 0.18293782 -1.102006342)
(0.9109661355 -0.07237010838 -3.44952639)
(1.430695356 0.06628088646 -3.507087025)
(1.689452862 0.1918876596 -3.412929635)
(1.859608844 0.2737519901 -3.276810114)
(1.890835481 0.3064706355 -3.104046878)
(1.884957529 0.3322239433 -2.877428244)
(1.881982367 0.3226552673 -2.709610918)
(1.863675362 0.284050848 -2.534486402)
(1.77017666 0.2368386933 -2.338235694)
(1.709575906 0.2163461509 -2.155474803)
(1.672690089 0.1856023606 -2.001097979)
(1.650574016 0.1556117644 -1.887112405)
(1.57599831 0.1718937255 -1.725456752)
(1.545184132 0.1786785955 -1.654529418)
(1.444605979 0.163520298 -1.476484079)
(1.400191711 0.1774307101 -1.365362074)
(1.393543042 0.195418449 -1.268170767)
(1.453246283 0.222493953 -1.144536245)
(0.8523430011 -0.08232251712 -3.36064951)
(1.320165369 0.03669598705 -3.430312253)
(1.613018485 0.1531612676 -3.381973616)
(1.857123929 0.2342270641 -3.377238317)
(1.870468443 0.2710907789 -3.139765513)
(1.915155019 0.3118790976 -2.955317515)
(1.855355022 0.3205734343 -2.765565544)
(1.828158294 0.2970001516 -2.590767831)
(1.798907648 0.2873154267 -2.450328541)
(1.707644617 0.2430943993 -2.23874676)
(1.685723366 0.2569711558 -2.111451116)
(1.611532318 0.2234252957 -1.951228625)
(1.547775583 0.1727725755 -1.80326709)
(1.48897811 0.1628776009 -1.647425455)
(1.484820512 0.2070952415 -1.555488781)
(1.390867961 0.1986536778 -1.411730008)
(1.348409867 0.2194182904 -1.277219301)
(1.487493768 0.2384714182 -1.202669117)
(0.8023731925 -0.08108007199 -3.317017535)
(1.150630595 0.02228303761 -3.300698908)
(1.480041539 0.134528205 -3.37333942)
(1.729530307 0.1858685069 -3.340906098)
(1.810864148 0.2765879111 -3.169255835)
(1.825208341 0.2926205777 -2.999060742)
(1.805002429 0.3251153925 -2.896600065)
(1.846327646 0.3289450021 -2.716194971)
(1.729267142 0.3167944831 -2.426601805)
(1.742240935 0.2602199758 -2.375032102)
(1.678635466 0.2464212953 -2.219957848)
(1.643400117 0.223188924 -2.024717221)
(1.555803809 0.2144648587 -1.883797991)
(1.513077532 0.1936511065 -1.715770867)
(1.436399597 0.2336341077 -1.571285123)
(1.350933235 0.2315226488 -1.433124057)
(1.359985784 0.2192699041 -1.33045417)
(1.421505566 0.2295978493 -1.180660151)
(0.7752133978 -0.0945119934 -3.272597702)
(1.099824375 -0.01584368171 -3.293070454)
(1.353561742 0.1128115763 -3.272025464)
(1.636550817 0.1793505887 -3.217776867)
(1.751966143 0.2157477425 -3.178541474)
(1.733650995 0.2643581876 -3.008902982)
(1.793357476 0.3165691395 -2.895233274)
(1.810233382 0.3467580345 -2.75714571)
(1.757933405 0.3058622844 -2.600991796)
(1.739644239 0.3080841767 -2.462858983)
(1.654481494 0.2800902155 -2.246053771)
(1.604479665 0.2819324785 -2.099401618)
(1.530539309 0.2675243629 -1.884054274)
(1.507665067 0.2154856253 -1.786237784)
(1.430254699 0.2348912095 -1.595322636)
(1.411073995 0.2508807208 -1.529553238)
(1.378932815 0.2180062634 -1.374375466)
(1.442612832 0.2744866143 -1.240260959)
(0.696951176 -0.08600292379 -3.193969423)
(1.117474473 -0.007416342443 -3.287794734)
(1.337422987 0.05661019599 -3.221978323)
(1.58026291 0.1554694005 -3.205440291)
(1.648742227 0.2143138723 -3.110514922)
(1.744010741 0.2535554169 -3.051698396)
(1.790015617 0.3010966531 -2.901375441)
(1.79454666 0.3252630273 -2.823898827)
(1.774934637 0.3413944066 -2.615713552)
(1.642041383 0.2902227417 -2.379275008)
(1.581622629 0.2829110005 -2.220335021)
(1.568830255 0.2610729387 -2.0926899)
(1.519560404 0.2578649909 -1.923648484)
(1.436871687 0.251588791 -1.744375169)
(1.469281798 0.2471805944 -1.729145806)
(1.399681911 0.2717642782 -1.512118005)
(1.35361384 0.2497864 -1.370225861)
(1.443022465 0.2692009223 -1.248392453)
(0.6817760533 -0.08560064342 -3.093261585)
(0.9838080966 0.01158799061 -3.106331343)
(1.262331298 0.04361374023 -3.139626925)
(1.509925627 0.1286087246 -3.155524598)
(1.609895654 0.2122733545 -3.089547192)
(1.662231819 0.2348830528 -3.022423591)
(1.74825411 0.2991682333 -2.946651244)
(1.684747275 0.2918683157 -2.750153722)
(1.653745821 0.3296107299 -2.615189865)
(1.693931939 0.3065673395 -2.479206109)
(1.599887005 0.3504249869 -2.311205224)
(1.560750276 0.3123212417 -2.168929555)
(1.497404739 0.296168894 -1.947365558)
(1.454491681 0.2576815135 -1.816358973)
(1.405709266 0.2930996228 -1.712520868)