/*--------------------------------*- C++ -*----------------------------------*\
| =========                 |                                                 |
| \\      /  F ield         | OpenFOAM: The Open Source CFD Toolbox           |
|  \\    /   O peration     | Version:  v1706                                 |
|   \\  /    A nd           | Web:      www.OpenFOAM.com                      |
|    \\/     M anipulation  |                                                 |
\*---------------------------------------------------------------------------*/
FoamFile
{
    version     2.0;
    format      ascii;
    class       volScalarField;
    location    "0.003";
    object      Ma_Ar;
}
// * * * * * * * * * * * * * * * * * * * * * * * * * * * * * * * * * * * * * //

dimensions      [0 0 0 0 0 0 0];


internalField   nonuniform List<scalar> 
9720
(
5.57468342
5.190402419
4.472633942
3.422388438
2.109150339
5.587549365
5.079631158
4.450042468
3.489566439
2.312763585
5.692858344
5.200742785
4.492176697
3.67295061
2.531000416
5.682832317
5.213000352
4.702522534
3.876979895
2.749472628
5.739376273
5.317435135
4.822613632
4.025767628
2.884050413
5.705142068
5.358750925
4.883799479
4.170837456
2.995678598
5.689126156
5.45145716
5.056050864
4.29134133
3.088752853
5.702572978
5.50139391
5.125158612
4.437325496
3.191787626
5.786566974
5.520724497
5.168412183
4.506734399
3.198231171
5.822679443
5.548344362
5.20672798
4.572494263
3.217556279
5.799029661
5.591769247
5.284955663
4.607051334
3.35671468
5.890457028
5.645189106
5.273287512
4.661912366
3.337733658
5.865313232
5.707583284
5.420484781
4.741289677
3.360259594
5.882700839
5.721714924
5.455409369
4.766264914
3.412770928
5.862006559
5.734192453
5.410831158
4.846137792
3.468378391
5.886742085
5.756495306
5.498340939
4.915304265
3.5265568
5.952170875
5.832519043
5.581119762
5.098357807
3.701466886
5.94955336
5.831833071
5.6832133
5.277288535
4.04114276
5.569632941
5.11146682
4.448820609
3.45034072
2.311606123
5.606492686
5.12225585
4.416024477
3.516605685
2.51201146
5.615171523
5.125576693
4.452503118
3.63696493
2.761850328
5.649719587
5.152315061
4.630350299
3.798998216
2.95097634
5.635278101
5.260337315
4.68141561
3.995423963
3.102242906
5.653303937
5.269932798
4.786660241
4.138370375
3.281606525
5.719327735
5.430589748
4.922720509
4.20116157
3.385801961
5.691465647
5.417248189
5.005413496
4.327065848
3.483768164
5.765011702
5.479223575
5.06828047
4.433462135
3.526242385
5.828413821
5.536489739
5.15433245
4.461276505
3.602842453
5.81659931
5.581360736
5.161540785
4.571867194
3.681307462
5.842895181
5.563909038
5.184746126
4.60589656
3.626607291
5.830883689
5.645551904
5.306121674
4.588394081
3.647063358
5.856194144
5.687442369
5.30676214
4.650370697
3.715101709
5.847564317
5.756716743
5.372239209
4.737276059
3.751530516
5.868496942
5.738284541
5.464709218
4.85554198
3.947295868
5.927869525
5.773478297
5.478127778
5.072154893
4.058342263
5.946872465
5.881052029
5.688901108
5.226999124
4.404172335
5.574897142
5.209698472
4.641580982
3.659628627
2.536637444
5.577630252
5.166116002
4.471216119
3.666927163
2.756940847
5.567479227
5.149865959
4.587769822
3.821122896
3.042313866
5.600786624
5.274354943
4.699886183
4.027690641
3.272664062
5.583007125
5.297106903
4.72497054
4.138322363
3.447507313
5.603172128
5.303526111
4.845458078
4.247691652
3.608600603
5.689145831
5.414777451
4.940464974
4.398033247
3.783912562
5.67206274
5.380344558
5.032183066
4.523034809
3.813089751
5.723880542
5.477734124
5.155304586
4.613572453
3.951330961
5.758387435
5.504181615
5.185260208
4.721517203
4.038305266
5.833385527
5.610140679
5.279441133
4.732975712
4.088254059
5.842685327
5.604546774
5.37074945
4.837768447
4.146597407
5.814881865
5.671838163
5.352055429
4.803512871
4.203917261
5.848723926
5.703425999
5.394006262
4.829984411
4.240724863
5.887660456
5.723337828
5.353553718
4.882934812
4.303423447
5.847214319
5.722101758
5.428754443
4.993074502
4.37614105
5.912197877
5.790830951
5.54467041
5.079084375
4.504934776
5.929782039
5.852035597
5.713254702
5.320392812
4.838792649
5.6864041
5.197296857
4.585477226
3.880369556
2.791605345
5.639107936
5.234734244
4.68583326
3.837866552
2.996976483
5.636874647
5.242855113
4.751592646
4.010869874
3.328470924
5.61105701
5.277999193
4.854959032
4.175242666
3.600019223
5.660049628
5.316414053
4.855503612
4.326341128
3.772408898
5.65903011
5.408684748
4.977951257
4.522635394
3.959689007
5.738672139
5.498695244
5.145715861
4.662300692
4.114960027
5.772167333
5.585199097
5.184600798
4.758593492
4.200419224
5.803480778
5.587482587
5.250045426
4.803962968
4.288584192
5.784091658
5.569993414
5.242469333
4.903834261
4.405049991
5.794136879
5.610792827
5.389370019
4.878410914
4.464069005
5.836133454
5.650724985
5.418212645
5.000490404
4.50440217
5.8373431
5.672814994
5.413614416
5.072003159
4.588636285
5.88607506
5.731228347
5.447200407
5.065462587
4.633057038
5.859590678
5.719767
5.467600978
5.165302685
4.721000725
5.945665495
5.786895979
5.544826982
5.294444863
4.823526986
5.880900107
5.814776746
5.610060329
5.328945297
4.903159666
5.935039265
5.859651146
5.687480184
5.469934243
5.113605667
5.688610643
5.247152648
4.779408507
4.03600798
2.897605097
5.653345842
5.216886619
4.801301328
4.046339892
3.144278654
5.672118777
5.331291383
4.839941325
4.207178208
3.491960206
5.713358122
5.352244871
4.978117948
4.450981702
3.766612015
5.697279154
5.386941097
5.033766896
4.531426938
3.984845691
5.702733321
5.454787874
5.176673482
4.769135533
4.170403758
5.804421381
5.548853655
5.311777715
4.909631476
4.426333696
5.801199199
5.576227493
5.275044844
4.937859809
4.520723038
5.829258803
5.562029575
5.328697168
5.025286724
4.590509158
5.841057136
5.671725131
5.381504464
5.186639833
4.720212452
5.849353199
5.686956889
5.511637964
5.100531135
4.727980045
5.791877988
5.729466712
5.541094044
5.173395281
4.850690743
5.826842723
5.720487207
5.520991103
5.330871955
4.860860692
5.835167396
5.700463247
5.568796618
5.29278793
4.948196895
5.900601125
5.829568039
5.68364196
5.369110271
5.055265348
5.922210365
5.776975527
5.693182064
5.430299424
5.187379712
5.925171819
5.854820481
5.68796888
5.434175812
5.169863891
5.912251727
5.864666516
5.717401065
5.565521005
5.363689931
5.675307271
5.281552342
4.8877703
4.187878309
3.012140839
5.697109214
5.371042029
4.945231655
4.156389798
3.256205764
5.721875303
5.354960718
4.935633461
4.324771704
3.635611273
5.724138836
5.437206736
5.042664092
4.537076635
3.981612252
5.673221454
5.446122335
5.179642607
4.702372935
4.142408401
5.770709567
5.564471882
5.249263084
4.852485818
4.397466965
5.82407235
5.612847677
5.334609021
5.071177112
4.617953542
5.835889773
5.651042921
5.393019105
5.120642448
4.763015757
5.835046765
5.598329525
5.554996413
5.173039077
4.857166425
5.827111501
5.665467323
5.500290221
5.233341446
4.931040456
5.866909236
5.702026752
5.59849896
5.343291978
5.112188858
5.834772188
5.752607621
5.582221686
5.412449579
5.144553677
5.895223503
5.807246468
5.659329622
5.452192113
5.157411032
5.875580624
5.765818484
5.675073537
5.559559135
5.2824156
5.896026896
5.844475996
5.726823108
5.56035919
5.34188168
5.937891085
5.849339062
5.785015406
5.611435582
5.403147347
5.926128332
5.865700558
5.741849263
5.594929127
5.449964176
5.925625642
5.896750942
5.813634567
5.735731319
5.525787356
5.718966983
5.475558881
4.996102355
4.36081675
3.103820819
5.690285571
5.395030798
5.011466818
4.30088833
3.404456852
5.707410911
5.443435414
5.061022858
4.452762942
3.794047447
5.759247473
5.476767149
5.078211712
4.622004471
4.113309851
5.726671651
5.52522958
5.17477205
4.832196838
4.392670499
5.772099558
5.56065458
5.3107175
4.999105545
4.637216249
5.818542537
5.628115639
5.452899338
5.120526807
4.766651181
5.789820513
5.62396261
5.508182776
5.245180594
4.973585193
5.849764632
5.705450921
5.57204825
5.276105337
5.100964246
5.840769222
5.744474718
5.616578165
5.43926373
5.141851362
5.8239226
5.755761858
5.645801818
5.420423522
5.290985652
5.834508425
5.82416495
5.67354547
5.471506376
5.352279553
5.882298756
5.827750811
5.730764993
5.541810923
5.343463905
5.917090382
5.852276217
5.743243991
5.611282698
5.415076354
5.930466445
5.884703408
5.767475311
5.69354081
5.511771359
5.957007914
5.907602037
5.830414151
5.744589556
5.510702442
5.923401697
5.881568443
5.83058572
5.761486006
5.65336566
5.956942095
5.916718546
5.857928855
5.778749436
5.656379646
5.7588713
5.508674247
5.116532573
4.467463894
3.167140311
5.749715038
5.525020479
5.150339602
4.34672035
3.441529055
5.769484019
5.448691372
5.105295332
4.526551931
3.886561738
5.799251489
5.499930748
5.149274347
4.759070921
4.209410353
5.816998555
5.670676325
5.223374163
4.960505867
4.468770125
5.768086094
5.592221536
5.430786659
5.152336859
4.704957816
5.818314306
5.695375993
5.468993471
5.23899619
4.912672807
5.851439357
5.741094289
5.618412119
5.392259758
5.10391141
5.841004144
5.749361599
5.663051353
5.422251888
5.178589768
5.883859706
5.790313359
5.694386759
5.506701935
5.291126036
5.918321956
5.796321602
5.736442183
5.570769258
5.416820501
5.930887116
5.842953199
5.748829338
5.577970427
5.436554765
5.939032764
5.916375952
5.793858569
5.62275117
5.490709087
5.930536242
5.889783724
5.838213972
5.703143485
5.574620873
5.94044178
5.918083705
5.852546071
5.756671372
5.639559378
5.964852685
5.909626719
5.91315075
5.763811428
5.668715223
5.946074232
5.93872848
5.884836523
5.827177024
5.762341064
5.970004614
5.918246912
5.886937093
5.851206592
5.799000778
5.787884338
5.580870174
5.150847714
4.487131334
3.213700536
5.735277843
5.527680017
5.102565912
4.436524361
3.510098071
5.782596982
5.529821157
5.194764397
4.561489753
4.011775752
5.795542963
5.59157289
5.283986024
4.839563004
4.314085522
5.774080699
5.627937722
5.385726424
5.011670315
4.637055006
5.844860001
5.719413781
5.55359122
5.247581447
4.908422284
5.88981604
5.737255015
5.577060316
5.356020386
5.087702743
5.837941125
5.744959989
5.619342306
5.445601204
5.168589941
5.888341505
5.756803733
5.630386105
5.585142941
5.324830487
5.891565613
5.825909357
5.754787927
5.59054418
5.469643223
5.904478347
5.833695011
5.749390838
5.632867654
5.481447289
5.904200945
5.868665052
5.763806459
5.652455164
5.534509695
5.947025963
5.899913382
5.84044403
5.729922934
5.546581061
5.934846348
5.917619751
5.885827477
5.720716865
5.642906887
5.969644757
5.933685578
5.874050038
5.761151826
5.692406945
5.960192197
5.927025015
5.903933622
5.83210615
5.704469425
5.96388371
5.948533718
5.950120566
5.860432601
5.813169711
5.988354683
5.977613161
5.963304664
5.898934294
5.853473754
5.814322493
5.592535633
5.197417622
4.521905137
3.301578005
5.748815328
5.567631897
5.194826366
4.503834951
3.620563589
5.77794097
5.605875699
5.234649624
4.638927855
4.043814514
5.821019407
5.587272916
5.38438332
4.889325199
4.417171689
5.80734198
5.630477485
5.432903281
5.092707348
4.703497978
5.852087108
5.688294587
5.492380756
5.238032392
4.923366182
5.887525452
5.754521761
5.63844455
5.409329891
5.139032659
5.886477131
5.78952745
5.659276224
5.511434789
5.294555924
5.900691345
5.815813761
5.708332259
5.581345228
5.426366487
5.935338929
5.883160477
5.78483247
5.639489035
5.53943756
5.932252205
5.840545652
5.80494272
5.720975845
5.581072273
5.992874488
5.924124335
5.794969773
5.759612102
5.636225086
5.965392655
5.928343885
5.837750465
5.764230169
5.689388979
5.942976457
5.941724166
5.876258426
5.815598161
5.703897761
5.964818475
5.946621343
5.91767727
5.839323371
5.764441179
5.977966744
5.949564045
5.919626525
5.89373272
5.815268814
5.979050569
5.968024158
5.938648518
5.88570788
5.873622501
5.981469138
5.983833306
5.952029705
5.904746486
5.859609767
5.826798
5.652254107
5.272579514
4.630280293
3.333328995
5.813321789
5.581841862
5.17639532
4.550862274
3.627406515
5.795071732
5.571033031
5.306674501
4.773736905
4.041810821
5.814049557
5.677793137
5.414806537
4.883856543
4.457116434
5.873352448
5.706013838
5.465713652
5.170686572
4.853324014
5.849294456
5.738188453
5.559092198
5.317198702
5.029742274
5.884902051
5.814597394
5.647251506
5.480310077
5.243670309
5.903580906
5.830181974
5.749669668
5.601286588
5.421048807
5.933980305
5.890912099
5.764611521
5.662084023
5.528620986
5.935043858
5.901736523
5.806260213
5.730604174
5.626105945
5.926024331
5.924414574
5.846343967
5.767803822
5.695542356
5.96159142
5.914119758
5.847762096
5.792993523
5.722264038
5.945092495
5.919639386
5.844459748
5.805682505
5.767903969
5.983471527
5.953783208
5.90480997
5.879556889
5.748563377
5.9910472
5.965955798
5.899904526
5.877820205
5.782740269
5.972974142
5.954851474
5.893532161
5.898099715
5.86426671
6.001598182
5.962234615
5.925566061
5.918570736
5.881639708
5.979748651
5.966278679
5.950373784
5.891104163
5.874214674
5.883216153
5.641193404
5.364774686
4.780977466
3.304726582
5.842257941
5.68016085
5.238981443
4.573406562
3.671156809
5.781743243
5.625365421
5.278038448
4.764020474
4.122798187
5.876104977
5.689160123
5.480244814
4.973541124
4.562177783
5.839504618
5.715040244
5.439116373
5.241453456
4.893232936
5.857622416
5.754607177
5.539923367
5.409304385
5.141833478
5.880848387
5.800796249
5.712739282
5.496645784
5.303354985
5.922299813
5.880690856
5.744680632
5.609258852
5.4600254
5.962446314
5.909336072
5.833233547
5.680379413
5.619594766
5.961676519
5.892795508
5.812019842
5.767178878
5.682214233
5.950953097
5.928896131
5.839237791
5.784216169
5.689106859
5.976797748
5.946883292
5.880364866
5.867006509
5.768384203
5.980279331
5.940836248
5.916407978
5.864242031
5.806397268
5.981945666
5.935202151
5.906307145
5.868011023
5.807219669
5.958762324
5.926845299
5.931815846
5.887421112
5.822054591
5.979813265
5.943579092
5.95360396
5.931224204
5.886850792
5.989664254
5.923167465
5.921897767
5.929428045
5.887625718
5.987667863
5.993705533
5.977879193
5.948081302
5.924077078
5.863999116
5.655404775
5.313339592
4.745217534
3.442428288
5.798321423
5.661428585
5.309002284
4.643798208
3.715967369
5.803794024
5.58052845
5.310850173
4.83740844
4.147171578
5.864382259
5.68484233
5.471946454
5.04898023
4.590388888
5.888019224
5.74528279
5.51989532
5.241258958
4.924005793
5.906544076
5.778893441
5.63229845
5.449102576
5.163821593
5.929890814
5.80148584
5.696338564
5.492253403
5.403961713
5.914040301
5.865335662
5.787028556
5.603798129
5.557735678
5.96830525
5.902585768
5.81175788
5.733400629
5.630092006
5.93835629
5.904456398
5.840749615
5.790228076
5.657888794
5.964816592
5.957593632
5.886770941
5.801876614
5.753778679
5.981883623
5.945513837
5.909622252
5.884203429
5.830201158
5.997184711
5.948806501
5.922730459
5.90145579
5.864540949
5.978244896
5.942423134
5.954430219
5.905563281
5.843656229
5.996014195
5.962037744
5.974352897
5.931420994
5.89976458
5.971330782
5.932348163
5.910476518
5.919845468
5.88626284
5.994882385
5.964962588
5.951785994
5.95261183
5.949834613
5.983266854
6.008539506
5.99904364
5.973225889
5.939818459
5.863328792
5.690900939
5.432811136
4.770141076
3.419937349
5.84426148
5.679143237
5.340804141
4.720635276
3.727882393
5.826836752
5.664548383
5.323256129
4.879234093
4.253058819
5.848774351
5.715563435
5.450267149
5.094122816
4.645571603
5.842826217
5.734028095
5.642152375
5.26099124
4.906400904
5.899608212
5.822271096
5.650539365
5.47389939
5.244009154
5.930291709
5.834275972
5.717824994
5.641437612
5.446692745
5.907837998
5.826073474
5.739980273
5.679906934
5.545674952
5.949042924
5.944716613
5.866495173
5.776906122
5.670049143
5.970773863
5.94667788
5.904033471
5.834347456
5.752465417
5.970044186
5.956901869
5.923241007
5.821936663
5.812831986
5.961189654
5.945418379
5.936380275
5.871861395
5.846870326
5.980058753
5.973256982
5.946934772
5.914065399
5.89572244
5.989443253
5.99610986
5.964754303
5.944168681
5.904185685
6.00184615
5.982048334
5.975330835
5.92431107
5.913553064
5.977570123
5.969298939
5.958368563
5.952957984
5.924497117
5.991230995
5.969951988
5.973540113
5.973324648
5.951787577
6.018781942
6.00834982
5.980977216
5.943280048
5.968347882
5.812048088
5.679155016
5.450252934
4.825010635
3.45513882
5.842251947
5.652206422
5.341039052
4.759455819
3.823676825
5.831669842
5.675208155
5.442569734
5.002550751
4.286222754
5.852862574
5.763483116
5.483846537
5.177450739
4.681401971
5.852584541
5.761104596
5.53196411
5.281417287
5.010614947
5.879087218
5.78713613
5.61748214
5.526482868
5.302720875
5.919907922
5.852161361
5.722410417
5.591293536
5.491150598
5.919799228
5.862292436
5.784367094
5.699419373
5.602950016
5.965376212
5.934371242
5.853115455
5.809656018
5.721057972
5.963655683
5.942708901
5.914440043
5.851415024
5.758232034
5.979119613
5.972703648
5.914593353
5.857093151
5.800755505
5.94567268
5.95132481
5.929443568
5.876365807
5.876251392
5.980843785
5.951266506
5.953535593
5.912887274
5.893466303
5.992233781
5.967223443
5.959510097
5.961754302
5.916606935
5.985613169
5.988259826
5.953276879
5.969267406
5.93478544
5.983566476
5.953274719
5.962633096
5.9813204
5.964986864
5.973157882
5.970311774
5.969076506
5.979568492
5.941394573
5.995928013
5.98109019
5.9796684
5.974753559
5.961181391
5.836757291
5.790274087
5.537181502
4.878347001
3.516299006
5.908227103
5.707410027
5.418416493
4.772387402
3.892125594
5.869493792
5.732776652
5.439733569
5.042587342
4.444455634
5.896652689
5.734469027
5.593896783
5.23500488
4.814196454
5.914821689
5.794181243
5.684661962
5.436028904
5.131463487
5.91838483
5.821197808
5.709205834
5.594696182
5.391054156
5.935029119
5.839883701
5.777599133
5.722242367
5.559113081
5.954649201
5.896846418
5.820662989
5.790127139
5.670880899
5.936322421
5.915850991
5.879636244
5.853163969
5.7269172
5.960212255
5.956675259
5.932807826
5.873484146
5.775675996
5.987066641
5.984426661
5.941000398
5.902582383
5.817812138
5.964837825
5.973625754
5.961591568
5.942188412
5.879505954
5.960088634
5.972855953
5.971257903
5.945845668
5.895267565
6.004564495
5.981917279
5.957364997
5.932290298
5.930205048
5.987182444
5.983481223
5.962435352
5.953581205
5.965212955
6.027359921
6.005249391
5.976070212
5.972287621
5.952785652
5.996203838
5.977287752
5.987471502
5.979827607
5.974157828
5.994736674
5.987157917
5.991739298
5.998867933
5.981364852
5.901988136
5.805669179
5.580522513
5.059753088
3.601921276
5.900938903
5.768009624
5.5012984
4.8469099
3.973141629
5.864705405
5.77262022
5.528225347
5.095641096
4.513128302
5.865880655
5.791846875
5.627614526
5.377300162
4.95925325
5.915876093
5.846881993
5.717319932
5.560675549
5.247936154
5.941184709
5.913776082
5.779807075
5.655372072
5.448017591
5.945048933
5.899736619
5.8090215
5.70660847
5.610004162
5.972300551
5.909379459
5.871371118
5.764026713
5.722597835
5.983042272
5.963734044
5.93460928
5.867995105
5.775064805
5.97917205
5.98611423
5.962791393
5.914598745
5.809253595
5.976638191
5.983717444
5.963211957
5.934408238
5.850899268
5.987682905
5.97869701
5.980551754
5.972763937
5.890794352
5.986510518
5.984409274
5.96570324
5.947744768
5.928813271
6.000126052
5.984826672
5.967703649
5.935986872
5.910563334
5.999067983
5.994219592
5.973891345
5.964025792
5.922778657
5.98813066
6.002445213
5.990749532
5.962644528
5.974838707
6.008692668
6.001643525
5.987333052
6.001174672
5.968949783
5.978283537
5.988948668
5.98976444
5.989771019
5.974142068
5.929050795
5.79047335
5.685637168
5.172117239
3.865269152
5.906343988
5.773894974
5.576605675
5.078839703
4.353678363
5.951464703
5.798895776
5.612887304
5.338006586
4.845823522
5.92861699
5.855072134
5.686891877
5.459505635
5.19313738
5.94430795
5.902411266
5.755621786
5.57619257
5.467492142
5.948732456
5.910161549
5.797975498
5.723675509
5.605813031
5.974059517
5.917872874
5.858283196
5.779266295
5.69602962
5.965334405
5.927845922
5.903489307
5.85292345
5.771804323
6.000646374
5.974125592
5.952256121
5.879885478
5.835465728
5.982736905
5.988806556
5.981412576
5.936458382
5.870281638
6.000449887
6.004823642
5.975297591
5.949048356
5.917901159
6.001836962
6.006793244
5.963521484
5.95325105
5.920155912
5.98244265
5.968457997
5.965567114
5.960844722
5.920512142
5.991823904
5.992069042
5.966007628
5.944927971
5.955449985
5.987282022
5.981840652
5.982524495
5.974088855
5.964701868
5.998511276
6.007264974
6.000446784
5.98098397
5.970511661
5.99338787
5.981516472
5.969747119
5.949928815
5.972786865
6.001385416
5.991918202
6.00215773
6.007025949
5.984405061
1.170853714
0.9169823753
0.7501840587
0.6254136536
0.5323988421
0.458831157
0.4042385363
0.3566389126
0.3251460849
0.2993089197
0.2843021296
0.2624533727
0.2559040303
0.2442280719
0.2377221729
0.2304508434
0.2281894694
0.2268351595
0.2289606738
0.2385289417
0.247390605
0.2652650917
0.2984653674
0.3625133761
0.5465169814
1.479045918
1.195011627
1.012227854
0.8834896128
0.7772178166
0.6837319135
0.6169965911
0.5574662079
0.505980008
0.4686813393
0.4350032759
0.4106893527
0.3853351395
0.3709717891
0.3564613435
0.349436263
0.3448714026
0.3392556525
0.3386261246
0.3440979014
0.3570280215
0.3887814161
0.4309857635
0.4953038145
0.6926573648
1.647239483
1.332643652
1.151943813
1.013199093
0.9040246633
0.8170641438
0.7347579224
0.671206493
0.6237987932
0.5786623624
0.5370431517
0.5085987413
0.4848157227
0.4617665635
0.4436648619
0.427654511
0.4189279569
0.4157330108
0.4242995906
0.4305129731
0.4393005928
0.4653069336
0.5027964573
0.5702642075
0.7420800159
1.753269838
1.465991998
1.258845504
1.097082098
0.9725616219
0.8877794548
0.8160922153
0.7546534496
0.7012593116
0.66290853
0.6179182672
0.5868331484
0.5603330487
0.5398486113
0.5203882612
0.5034612463
0.4964816063
0.4894835936
0.4864061592
0.48801803
0.4928070481
0.512552598
0.5516698254
0.6066892062
0.7855252385
1.830178868
1.55303733
1.332331869
1.164916454
1.047284028
0.9566926347
0.8734839325
0.8094357062
0.7486650276
0.7025545951
0.6739619984
0.6456591087
0.6159362003
0.5850840697
0.5721839958
0.5566258831
0.5451638661
0.5418291878
0.5298952881
0.5246814956
0.5385367858
0.5642791526
0.5923713466
0.6505375647
0.8190051903
1.904945865
1.624588967
1.404028863
1.240346777
1.117576128
1.009883354
0.9322557179
0.8611429031
0.8028207595
0.7535748963
0.7140279167
0.6817594001
0.657635675
0.6314240611
0.6075187551
0.5916639336
0.5831496817
0.5797869935
0.5719748828
0.5675416575
0.5733184824
0.5939181885
0.6203773343
0.6711682124
0.8393253699
1.970879265
1.663168742
1.449904629
1.298847994
1.163406093
1.0650953
0.972324765
0.9013497712
0.8470982915
0.7932506542
0.7590353845
0.7213058671
0.6849783024
0.6568000932
0.6387600682
0.6245852159
0.6172611786
0.6053113013
0.6026034777
0.6030682791
0.6032389488
0.6165114515
0.6465804041
0.692199148
0.8531393658
2.010269504
1.696187201
1.499823765
1.351271445
1.196651338
1.10582569
1.012864627
0.9373742566
0.8804119992
0.8227315681
0.7824557369
0.7441197085
0.7089784443
0.6864173527
0.6743706816
0.6519614667
0.6367886336
0.6342501194
0.6252917977
0.6297028771
0.6296201881
0.6394533309
0.6603622298
0.714894867
0.8798866705
2.047676642
1.744124683
1.546373691
1.380242267
1.25110141
1.145473836
1.06447975
0.9775869794
0.918662086
0.863211508
0.8271234254
0.7804399608
0.742298791
0.7211990923
0.6925285407
0.6696921088
0.6548256443
0.6542136341
0.6479075074
0.6446001901
0.6543172791
0.6653457638
0.6893364732
0.7407547123
0.9008218427
2.04540251
1.764197387
1.577103973
1.420813806
1.284323628
1.174185068
1.08173039
1.006823633
0.9469036661
0.892718285
0.8476512623
0.8034833924
0.7726732857
0.7470621238
0.7171096116
0.6967220508
0.6931556403
0.6710560295
0.6706497259
0.6712062467
0.6779432179
0.6850334705
0.6990093292
0.7591981667
0.91897698
2.06506522
1.76489467
1.576831023
1.432901756
1.32246052
1.212442918
1.118355947
1.043938424
0.979822059
0.925869332
0.8727582507
0.8209880748
0.8014957138
0.7742146234
0.7476164276
0.7320645443
0.704942991
0.7005604866
0.6838203767
0.6894098997
0.6876929795
0.702969727
0.7274196273
0.7785782213
0.9335524028
2.101454134
1.807376891
1.600016052
1.467254105
1.338723476
1.237227449
1.145440063
1.072784367
1.008751383
0.961667775
0.9030598225
0.857286413
0.8236040759
0.8006189338
0.7677173725
0.7553992708
0.7310048185
0.7140892089
0.7079862506
0.702953991
0.7033147883
0.7237187461
0.7372761929
0.7900237993
0.9570732782
2.113113396
1.798976382
1.60826186
1.486746804
1.368467051
1.252882808
1.169943033
1.110980176
1.048620265
0.9951786943
0.9394846162
0.8994519019
0.8638180501
0.8341158825
0.8087520333
0.7811772075
0.7640925207
0.7482178488
0.7344416078
0.7202879112
0.7330223894
0.733655203
0.7576047304
0.8084028846
0.9659121063
2.110312294
1.825272153
1.653662968
1.500460499
1.403319285
1.319840896
1.227894316
1.141467488
1.084735484
1.034715141
0.983645468
0.9444335386
0.8970958351
0.8725885502
0.8406477519
0.8137360922
0.7864255657
0.7606825847
0.7551835153
0.7545644382
0.7544494713
0.7689145265
0.7917797238
0.8378662986
0.9887768216
2.132107343
1.84992558
1.677536024
1.553524911
1.441387117
1.344360209
1.257847779
1.205091008
1.123298164
1.076897792
1.028370211
0.9849368963
0.9467337746
0.9077453856
0.8739247308
0.8476759816
0.8210756558
0.802394085
0.7893868844
0.7897182942
0.7794538095
0.7842308998
0.8026131547
0.8533119501
1.017364821
2.198805282
1.87354882
1.689506437
1.595717843
1.49596569
1.396542012
1.306554127
1.246834121
1.189694502
1.137501957
1.095349766
1.034781448
0.9940344075
0.9722027446
0.9372906389
0.913724773
0.8811867963
0.8611562182
0.8466699648
0.840326204
0.8357394429
0.8320183452
0.8575242277
0.8840052728
1.058994569
2.262159531
1.986672689
1.811389317
1.701378875
1.589873966
1.474815372
1.411522579
1.347287476
1.282304039
1.239309896
1.192592997
1.151913455
1.099747157
1.07049008
1.036931202
1.011285236
0.9729337167
0.9770730691
0.9582064596
0.9428436215
0.9418411667
0.9494364093
0.9572756708
0.9831361961
1.155118797
2.506270666
2.247912939
2.087271437
1.954539643
1.863257285
1.787475365
1.704558585
1.64447571
1.611314741
1.558488188
1.486525924
1.470870203
1.421990848
1.393255497
1.359634652
1.329141567
1.299918266
1.26733789
1.253115462
1.247344031
1.249844217
1.247155629
1.261626412
1.308101087
1.468314067
1.460938117
1.182608946
1.015442597
0.8863501462
0.7785720506
0.692784009
0.6141062857
0.5601449889
0.5117013253
0.4750253733
0.4365635056
0.4126610757
0.3907667636
0.3687199735
0.3566633286
0.3489977618
0.3390028786
0.3375470225
0.3475190784
0.3517544176
0.3709407168
0.3859759883
0.4297246458
0.5065863872
0.7035366648
1.864396102
1.57009614
1.414695603
1.286722411
1.168119447
1.065309628
0.9720577007
0.8854106988
0.8032061217
0.7479211366
0.6957508552
0.6460497365
0.6061312014
0.5811189559
0.5576912403
0.5343616383
0.5188652419
0.5181968967
0.5113776348
0.5134404968
0.532115159
0.5713569512
0.6156318175
0.7093602495
0.9274778244
2.131791837
1.785037854
1.598805872
1.477368575
1.36596986
1.265389774
1.170333067
1.080980432
1.003613917
0.9335134685
0.8699086993
0.8182249374
0.7735532332
0.7304481529
0.6992442457
0.6765061737
0.6538965998
0.6504057933
0.6422076906
0.6528955949
0.6627316873
0.6858861908
0.7334969767
0.8332232882
1.023872171
2.304220707
1.971652806
1.768255213
1.612743442
1.497406404
1.392861418
1.300414794
1.20766271
1.130263862
1.067216088
0.994935129
0.9526628962
0.8986077647
0.8649586629
0.828362148
0.7906259103
0.7707296968
0.755822643
0.7431765705
0.744794577
0.7511278851
0.7722159327
0.8236102693
0.9110693115
1.102386476
2.471786732
2.100815617
1.882226881
1.71189215
1.5784356
1.466046861
1.373564741
1.284341364
1.214335616
1.148969516
1.096074635
1.039122859
0.9910725284
0.9526544217
0.912000226
0.8811966481
0.8534587518
0.8370666813
0.8210587904
0.8113927263
0.8265357795
0.8481309406
0.8832057385
0.9732068732
1.157865696
2.588461509
2.198279835
1.940093567
1.791044979
1.657194709
1.559618338
1.443918639
1.35950556
1.289428276
1.212100793
1.160083745
1.098357072
1.053129189
1.013456467
0.9750651396
0.9485763573
0.9212727267
0.9007767914
0.8878937833
0.8832390548
0.879865972
0.9082711248
0.9376444969
1.018315906
1.195463561
2.668881748
2.286476291
2.040860293
1.903426706
1.760848932
1.625828209
1.521454035
1.423402453
1.35210937
1.267191331
1.211943189
1.13253551
1.105972775
1.063361093
1.022784189
1.005513104
0.9767093092
0.9554350665
0.9450722448
0.9429085836
0.9414265353
0.9572011318
0.9847474149
1.061062351
1.239035649
2.747799764
2.355926403
2.126721385
1.967270154
1.822676542
1.700438376
1.579874738
1.479236937
1.389152793
1.317138095
1.256839834
1.190573798
1.147085434
1.107091148
1.071118135
1.037842034
1.009035946
0.9943898319
0.9821097152
0.979305583
0.9760628375
0.978927069
1.004689689
1.0958996
1.279905747
2.76771833
2.397300204
2.173573715
2.008479216
1.873149415
1.751343082
1.643267003
1.530062447
1.443618647
1.364660218
1.301714868
1.233536168
1.193569151
1.151437418
1.111046142
1.073423634
1.04433502
1.029402885
1.012478261
1.002748191
1.008953
1.022800192
1.041838842
1.127968117
1.31602753
2.844642
2.448904263
2.236797802
2.078383507
1.942220887
1.795522291
1.706158972
1.580302793
1.494368816
1.402294671
1.339361732
1.273129575
1.231091334
1.196456157
1.151226758
1.120071777
1.087180625
1.06453568
1.049115138
1.042972019
1.034522383
1.049973499
1.088680068
1.156343487
1.345531552
2.900508867
2.498856231
2.264329001
2.102268183
1.971367884
1.848800563
1.743400173
1.628753299
1.543400957
1.46704706
1.394266275
1.322505711
1.268816519
1.227229689
1.190455551
1.156143948
1.126803451
1.094253403
1.086962211
1.073743813
1.060832711
1.076664532
1.104950149
1.177414477
1.366618996
2.889822924
2.522828439
2.297715715
2.152896067
2.009574583
1.892098388
1.78952606
1.694762354
1.587704424
1.505923896
1.434719147
1.371635577
1.301758819
1.249366185
1.223975358
1.183919995
1.15332392
1.124035397
1.107255848
1.098915829
1.09213647
1.102426873
1.145830563
1.203399245
1.379306728
2.925748007
2.510818081
2.325828996
2.188033494
2.056697647
1.945060635
1.842658894
1.725550133
1.644278359
1.560081739
1.481573902
1.400714744
1.359175141
1.305906828
1.257245538
1.214070564
1.18224267
1.150425341
1.136243852
1.12551173
1.121728515
1.130794272
1.170936494
1.242487976
1.413232818
2.992475165
2.572162645
2.3885047
2.250156666
2.117603663
1.998628063
1.902997054
1.790694186
1.708377205
1.632098148
1.566425835
1.475639502
1.406465503
1.346804015
1.297891293
1.251679152
1.216654336
1.186667954
1.168420943
1.159531779
1.152201119
1.169361565