/*--------------------------------*- C++ -*----------------------------------*\
| =========                 |                                                 |
| \\      /  F ield         | OpenFOAM: The Open Source CFD Toolbox           |
|  \\    /   O peration     | Version:  v1706                                 |
|   \\  /    A nd           | Web:      www.OpenFOAM.com                      |
|    \\/     M anipulation  |                                                 |
\*---------------------------------------------------------------------------*/
FoamFile
{
    version     2.0;
    format      ascii;
    class       volScalarField;
    location    "0.003";
    object      rhoM_Ar;
}
// * * * * * * * * * * * * * * * * * * * * * * * * * * * * * * * * * * * * * //

dimensions      [1 -3 0 0 0 0 0];


internalField   nonuniform List<scalar> 
9720
(
6.64774188e-06
6.68041452e-06
6.74607804e-06
6.99772632e-06
7.94788488e-06
6.66940872e-06
6.72990084e-06
6.8352648e-06
7.07503212e-06
7.86389604e-06
6.64235832e-06
6.70099404e-06
6.79155984e-06
6.9914676e-06
7.62381048e-06
6.6468402e-06
6.67378452e-06
6.75183288e-06
6.92911908e-06
7.45946604e-06
6.64686672e-06
6.69237504e-06
6.7372734e-06
6.91055508e-06
7.355322e-06
6.6628848e-06
6.69619392e-06
6.76270608e-06
6.90840696e-06
7.32413448e-06
6.66625284e-06
6.69998628e-06
6.74249784e-06
6.8704038e-06
7.2554742e-06
6.6652716e-06
6.68060016e-06
6.725472e-06
6.84353904e-06
7.22280156e-06
6.64859052e-06
6.68959044e-06
6.74981736e-06
6.81144984e-06
7.18840512e-06
6.64257048e-06
6.6500226e-06
6.68306652e-06
6.78548676e-06
7.14560184e-06
6.6407406e-06
6.67723212e-06
6.70507812e-06
6.79537872e-06
7.1141226e-06
6.64447992e-06
6.65742168e-06
6.68524116e-06
6.7690974e-06
7.108023e-06
6.64641588e-06
6.64787448e-06
6.6813162e-06
6.75002952e-06
7.09513428e-06
6.6354366e-06
6.65617524e-06
6.66972696e-06
6.75111684e-06
7.05355092e-06
6.63885768e-06
6.65362932e-06
6.70117968e-06
6.75016212e-06
7.0561764e-06
6.63222768e-06
6.62710932e-06
6.660498e-06
6.73109424e-06
7.02960336e-06
6.61061388e-06
6.61127688e-06
6.62647284e-06
6.6630174e-06
6.91837848e-06
6.64609764e-06
6.66439644e-06
6.67139772e-06
6.71656128e-06
6.88652796e-06
6.66137316e-06
6.68563896e-06
6.7968108e-06
7.03968096e-06
7.79451972e-06
6.64161576e-06
6.69903156e-06
6.781164e-06
7.02138216e-06
7.62898188e-06
6.66505944e-06
6.70521072e-06
6.77782248e-06
6.9742296e-06
7.38351276e-06
6.64819272e-06
6.67346628e-06
6.7275936e-06
6.89695032e-06
7.27570896e-06
6.6451164e-06
6.6892722e-06
6.78071316e-06
6.89763984e-06
7.24388496e-06
6.63830076e-06
6.673758e-06
6.71425404e-06
6.83476092e-06
7.12202556e-06
6.63792948e-06
6.66532464e-06
6.69741384e-06
6.81227196e-06
7.08675396e-06
6.63299676e-06
6.64386996e-06
6.70433556e-06
6.83046468e-06
7.07285748e-06
6.63644436e-06
6.65768688e-06
6.69081036e-06
6.80574804e-06
7.06887948e-06
6.641934e-06
6.66768492e-06
6.68327868e-06
6.74475204e-06
6.976749e-06
6.64673412e-06
6.68691192e-06
6.71998236e-06
6.80312256e-06
6.99194496e-06
6.64920048e-06
6.67219332e-06
6.70865832e-06
6.78256956e-06
7.02199212e-06
6.61666044e-06
6.61732344e-06
6.67160988e-06
6.78073968e-06
6.99918492e-06
6.66055104e-06
6.68319912e-06
6.71693256e-06
6.81288192e-06
7.03260012e-06
6.63917592e-06
6.6431274e-06
6.65832336e-06
6.72531288e-06
6.96934992e-06
6.64771536e-06
6.65840292e-06
6.68730972e-06
6.74711232e-06
6.90445548e-06
6.65707692e-06
6.68749536e-06
6.684366e-06
6.71847072e-06
6.89488176e-06
6.61764168e-06
6.62573028e-06
6.62321088e-06
6.67330716e-06
6.8112642e-06
6.66259308e-06
6.713538e-06
6.79834896e-06
7.01154324e-06
7.62359832e-06
6.6461772e-06
6.71292804e-06
6.82301256e-06
7.00478064e-06
7.4758554e-06
6.66471468e-06
6.702267e-06
6.79474224e-06
6.94561452e-06
7.29859572e-06
6.65726256e-06
6.6713712e-06
6.74271e-06
6.89021424e-06
7.15196664e-06
6.68431296e-06
6.7185768e-06
6.7726776e-06
6.88613016e-06
7.11101976e-06
6.65286024e-06
6.67956588e-06
6.74414208e-06
6.8285022e-06
6.97759764e-06
6.64158924e-06
6.66012672e-06
6.74345256e-06
6.81945888e-06
6.9885504e-06
6.6622218e-06
6.70436208e-06
6.7358148e-06
6.81142332e-06
6.9493008e-06
6.63851292e-06
6.66848052e-06
6.69383364e-06
6.77318148e-06
6.93747288e-06
6.6441882e-06
6.66269916e-06
6.70852572e-06
6.79331016e-06
6.92580408e-06
6.62626068e-06
6.64381692e-06
6.67717908e-06
6.73867896e-06
6.8685474e-06
6.63116688e-06
6.6508182e-06
6.66630588e-06
6.73817508e-06
6.89185848e-06
6.65211768e-06
6.65869464e-06
6.70446816e-06
6.76872612e-06
6.85552608e-06
6.63572832e-06
6.67081428e-06
6.70436208e-06
6.78869568e-06
6.90922908e-06
6.62565072e-06
6.6623544e-06
6.7047864e-06
6.74697972e-06
6.859398e-06
6.62878008e-06
6.6139554e-06
6.6082536e-06
6.6703104e-06
6.78824484e-06
6.63978588e-06
6.65773992e-06
6.70539636e-06
6.73698168e-06
6.8141814e-06
6.62565072e-06
6.6427296e-06
6.68563896e-06
6.73605348e-06
6.79317756e-06
6.65423928e-06
6.70680192e-06
6.77633736e-06
6.9625608e-06
7.44607344e-06
6.65156076e-06
6.69107556e-06
6.78439944e-06
6.96075744e-06
7.30909764e-06
6.65447796e-06
6.68468424e-06
6.73629216e-06
6.88186044e-06
7.15167492e-06
6.64957176e-06
6.69041256e-06
6.72671844e-06
6.86157264e-06
7.05519516e-06
6.63678912e-06
6.65537964e-06
6.70298304e-06
6.7889874e-06
6.91832544e-06
6.65588352e-06
6.69998628e-06
6.7762578e-06
6.84155004e-06
6.98900124e-06
6.64182792e-06
6.65471664e-06
6.68868876e-06
6.77474616e-06
6.91851108e-06
6.65490228e-06
6.65397408e-06
6.70308912e-06
6.75827724e-06
6.87621168e-06
6.64225224e-06
6.66675672e-06
6.71170812e-06
6.76411164e-06
6.87833328e-06
6.64119144e-06
6.6546636e-06
6.67052256e-06
6.7205658e-06
6.82126224e-06
6.65803164e-06
6.67505748e-06
6.685029e-06
6.76408512e-06
6.82364904e-06
6.64978392e-06
6.6742884e-06
6.69884592e-06
6.75947064e-06
6.85868196e-06
6.65909244e-06
6.66967392e-06
6.70051668e-06
6.7474836e-06
6.80855916e-06
6.6410058e-06
6.659835e-06
6.64479816e-06
6.69287892e-06
6.79240848e-06
6.62360868e-06
6.60950004e-06
6.6456468e-06
6.681714e-06
6.72146748e-06
6.64145664e-06
6.66476772e-06
6.68240352e-06
6.68388864e-06
6.76116792e-06
6.63167076e-06
6.62318436e-06
6.62718888e-06
6.68545332e-06
6.77018472e-06
6.62143404e-06
6.62687064e-06
6.64230528e-06
6.64959828e-06
6.67845204e-06
6.6652716e-06
6.70738536e-06
6.76403208e-06
6.89177892e-06
7.29912612e-06
6.653205e-06
6.70096752e-06
6.73525788e-06
6.8568786e-06
7.1954064e-06
6.653868e-06
6.66978e-06
6.723483e-06
6.83529132e-06
7.05851016e-06
6.65821728e-06
6.67715256e-06
6.70722624e-06
6.77185548e-06
6.93752592e-06
6.65288676e-06
6.68266872e-06
6.75082512e-06
6.8281044e-06
6.96555756e-06
6.65540616e-06
6.718842e-06
6.73242024e-06
6.78256956e-06
6.90331512e-06
6.6408732e-06
6.6648738e-06
6.73173072e-06
6.80765748e-06
6.89774592e-06
6.634641e-06
6.6566526e-06
6.6726972e-06
6.72390732e-06
6.81065424e-06
6.64188096e-06
6.68558592e-06
6.71695908e-06
6.75819768e-06
6.82781268e-06
6.649227e-06
6.65935764e-06
6.70430904e-06
6.74400948e-06
6.80336124e-06
6.63090168e-06
6.65357628e-06
6.66826836e-06
6.70444164e-06
6.76915044e-06
6.6612936e-06
6.6475032e-06
6.64275612e-06
6.69791772e-06
6.747351e-06
6.63129948e-06
6.6573156e-06
6.70468032e-06
6.70481292e-06
6.76522548e-06
6.63859248e-06
6.64394952e-06
6.64583244e-06
6.68484336e-06
6.72024756e-06
6.6303978e-06
6.63983892e-06
6.69035952e-06
6.7275936e-06
6.77530308e-06
6.63713388e-06
6.6235026e-06
6.6281436e-06
6.69797076e-06
6.72531288e-06
6.64660152e-06
6.6623544e-06
6.66688932e-06
6.67550832e-06
6.69343584e-06
6.6354366e-06
6.6252264e-06
6.64148316e-06
6.66320304e-06
6.70377864e-06
6.6461772e-06
6.67338672e-06
6.73310976e-06
6.85690512e-06
7.28904852e-06
6.66558984e-06
6.68192616e-06
6.74432772e-06
6.87064248e-06
7.17050412e-06
6.6268176e-06
6.65392104e-06
6.70475988e-06
6.82219044e-06
7.04137824e-06
6.65816424e-06
6.69783816e-06
6.76092924e-06
6.83576868e-06
6.9251676e-06
6.64580592e-06
6.6325194e-06
6.64620372e-06
6.7311738e-06
6.8486574e-06
6.6497574e-06
6.64135056e-06
6.66280524e-06
6.72716928e-06
6.82619496e-06
6.6303978e-06
6.65349672e-06
6.68372952e-06
6.72154704e-06
6.8075514e-06
6.64943916e-06
6.70144488e-06
6.72319128e-06
6.7527876e-06
6.7893852e-06
6.63946764e-06
6.63620568e-06
6.6334476e-06
6.684366e-06
6.72685104e-06
6.62970828e-06
6.626022e-06
6.63607308e-06
6.6713712e-06
6.70974564e-06
6.64265004e-06
6.66365388e-06
6.70099404e-06
6.73838724e-06
6.76323648e-06
6.6367626e-06
6.64986348e-06
6.67107948e-06
6.69940284e-06
6.7348866e-06
6.63206856e-06
6.62705628e-06
6.65368236e-06
6.652542e-06
6.70441512e-06
6.63575484e-06
6.65657304e-06
6.64408212e-06
6.67145076e-06
6.69441708e-06
6.64546116e-06
6.64514292e-06
6.62878008e-06
6.65317848e-06
6.69932328e-06
6.65288676e-06
6.65773992e-06
6.65991456e-06
6.66691584e-06
6.6912612e-06
6.63413712e-06
6.64996956e-06
6.6557244e-06
6.661161e-06
6.68179356e-06
6.63647088e-06
6.63408408e-06
6.63175032e-06
6.64930656e-06
6.66887832e-06
6.65654652e-06
6.68418036e-06
6.72783228e-06
6.82834308e-06
7.20590832e-06
6.66545724e-06
6.69396624e-06
6.728787e-06
6.84430812e-06
7.10751912e-06
6.64241136e-06
6.65715648e-06
6.71404188e-06
6.77925456e-06
6.96128784e-06
6.65832336e-06
6.69157944e-06
6.7403232e-06
6.82964256e-06
6.94603884e-06
6.65185248e-06
6.70377864e-06
6.74976432e-06
6.7925676e-06
6.85560564e-06
6.6427296e-06
6.65593656e-06
6.6738906e-06
6.69964152e-06
6.76761228e-06
6.65089776e-06
6.6707082e-06
6.67158336e-06
6.68619588e-06
6.75151464e-06
6.64965132e-06
6.65177292e-06
6.63949416e-06
6.69035952e-06
6.74119836e-06
6.63336804e-06
6.64368432e-06
6.6522768e-06
6.68611632e-06
6.72396036e-06
6.64572636e-06
6.64612416e-06
6.68632848e-06
6.69301152e-06
6.72287304e-06
6.62591592e-06
6.63310284e-06
6.62196444e-06
6.65312544e-06
6.67224636e-06
6.6533376e-06
6.63827424e-06
6.65421276e-06
6.65344368e-06
6.66413124e-06
6.63612612e-06
6.61384932e-06
6.612762e-06
6.63376584e-06
6.6402102e-06
6.6257568e-06
6.61599744e-06
6.666465e-06
6.6872832e-06
6.710886e-06
6.64124448e-06
6.65516748e-06
6.65580396e-06
6.64487772e-06
6.68341128e-06
6.634641e-06
6.63363324e-06
6.6059994e-06
6.62954916e-06
6.6656694e-06
6.62480208e-06
6.62276004e-06
6.64546116e-06
6.69274632e-06
6.7038582e-06
6.63525096e-06
6.62268048e-06
6.62037324e-06
6.6257568e-06
6.6410058e-06
6.63182988e-06
6.65060604e-06
6.69995976e-06
6.81781464e-06
7.21399692e-06
6.6599676e-06
6.69035952e-06
6.73732644e-06
6.83441616e-06
7.08038916e-06
6.63591396e-06
6.64607112e-06
6.66688932e-06
6.77312844e-06
6.94593276e-06
6.64111188e-06
6.6742884e-06
6.71351148e-06
6.7789098e-06
6.88825176e-06
6.65259504e-06
6.6766752e-06
6.72390732e-06
6.75883416e-06
6.84677448e-06
6.64954524e-06
6.65601612e-06
6.65657304e-06
6.67171596e-06
6.73798944e-06
6.65047344e-06
6.66490032e-06
6.67593264e-06
6.71032908e-06
6.77013168e-06
6.62607504e-06
6.63562224e-06
6.67471272e-06
6.7217592e-06
6.76183092e-06
6.63617916e-06
6.6257568e-06
6.63005304e-06
6.64400256e-06
6.68916612e-06
6.64015716e-06
6.64888224e-06
6.65694432e-06
6.69065124e-06
6.69730776e-06
6.63572832e-06
6.6675258e-06
6.69728124e-06
6.73239372e-06
6.74011104e-06
6.6349062e-06
6.67264416e-06
6.69823596e-06
6.71202636e-06
6.7199028e-06
6.63501228e-06
6.63511836e-06
6.65819076e-06
6.65848248e-06
6.65781948e-06
6.62846184e-06
6.63933504e-06
6.6342432e-06
6.62607504e-06
6.64607112e-06
6.65511444e-06
6.65511444e-06
6.66463512e-06
6.69401928e-06
6.72472944e-06
6.62339652e-06
6.63328848e-06
6.63922896e-06
6.65742168e-06
6.67020432e-06
6.6264198e-06
6.63851292e-06
6.6785316e-06
6.67503096e-06
6.688344e-06
6.63472056e-06
6.64731756e-06
6.64662804e-06
6.64662804e-06
6.64071408e-06
6.65760732e-06
6.69155292e-06
6.7078362e-06
6.81402228e-06
7.17376608e-06
6.62501424e-06
6.64601808e-06
6.72104316e-06
6.81235152e-06
7.05095196e-06
6.64813968e-06
6.67553484e-06
6.7165878e-06
6.79490136e-06
6.93951492e-06
6.65450448e-06
6.67330716e-06
6.69386016e-06
6.7315716e-06
6.81251064e-06
6.64389648e-06
6.64164228e-06
6.69269328e-06
6.78270216e-06
6.84990384e-06
6.63602004e-06
6.64893528e-06
6.64938612e-06
6.69860724e-06
6.75541308e-06
6.6349062e-06
6.65354976e-06
6.70722624e-06
6.71701212e-06
6.75891372e-06
6.64981044e-06
6.65723604e-06
6.64941264e-06
6.66558984e-06
6.69149988e-06
6.62997348e-06
6.66147924e-06
6.67550832e-06
6.6892722e-06
6.7350192e-06
6.63326196e-06
6.62161968e-06
6.62596896e-06
6.659835e-06
6.6872832e-06
6.6258894e-06
6.63307632e-06
6.6449838e-06
6.6508182e-06
6.68256264e-06
6.62689716e-06
6.61931244e-06
6.61589136e-06
6.60329436e-06
6.6245634e-06
6.63726648e-06
6.65270112e-06
6.64885572e-06
6.66773796e-06
6.70550244e-06
6.63655044e-06
6.62782536e-06
6.606795e-06
6.6360996e-06
6.64721148e-06
6.63511836e-06
6.6583764e-06
6.6603654e-06
6.68288088e-06
6.67354584e-06
6.63267852e-06
6.63307632e-06
6.61215204e-06
6.61257636e-06
6.63262548e-06
6.6587742e-06
6.66285828e-06
6.66749928e-06
6.67511052e-06
6.667128e-06
6.61891464e-06
6.6103752e-06
6.61957764e-06
6.6325194e-06
6.65712996e-06
6.63665652e-06
6.64230528e-06
6.66932916e-06
6.7789098e-06
7.10773128e-06
6.65689128e-06
6.65702388e-06
6.69757296e-06
6.77060904e-06
7.0011474e-06
6.6325194e-06
6.65617524e-06
6.67487184e-06
6.78127008e-06
6.9207918e-06
6.63962676e-06
6.63774384e-06
6.67195464e-06
6.75488268e-06
6.84011796e-06
6.633978e-06
6.66959436e-06
6.682377e-06
6.70868484e-06
6.80813484e-06
6.63509184e-06
6.66985956e-06
6.69985368e-06
6.69508008e-06
6.74544156e-06
6.64845792e-06
6.64588548e-06
6.64914744e-06
6.6891396e-06
6.73525788e-06
6.62167272e-06
6.62665848e-06
6.66452904e-06
6.68460468e-06
6.72088404e-06
6.65458404e-06
6.67195464e-06
6.66463512e-06
6.66315e-06
6.67688736e-06
6.62620764e-06
6.63429624e-06
6.66391908e-06
6.68762796e-06
6.69415188e-06
6.62968176e-06
6.63310284e-06
6.61215204e-06
6.62119536e-06
6.64766232e-06
6.64105884e-06
6.6795924e-06
6.69486792e-06
6.7196376e-06
6.73626564e-06
6.61936548e-06
6.59281896e-06
6.5956566e-06
6.60833316e-06
6.6229722e-06
6.6307956e-06
6.63281112e-06
6.63859248e-06
6.64646892e-06
6.6441882e-06
6.62909832e-06
6.62061192e-06
6.64066104e-06
6.65113644e-06
6.66224832e-06
6.62538552e-06
6.6597024e-06
6.6719016e-06
6.679062e-06
6.66848052e-06
6.63978588e-06
6.6394146e-06
6.61159512e-06
6.62649936e-06
6.63591396e-06
6.6331824e-06
6.653868e-06
6.6429948e-06
6.64530204e-06
6.66203616e-06
6.65012868e-06
6.6825096e-06
6.714201e-06
6.77615172e-06
7.07863884e-06
6.6388842e-06
6.679062e-06
6.70733232e-06
6.78238392e-06
7.02204516e-06
6.64996956e-06
6.66033888e-06
6.66683628e-06
6.74398296e-06
6.86387988e-06
6.6398124e-06
6.66736668e-06
6.70884396e-06
6.75997452e-06
6.84019752e-06
6.64068756e-06
6.65543268e-06
6.68402124e-06
6.71099208e-06
6.7523898e-06
6.64625676e-06
6.64495728e-06
6.6342432e-06
6.68723016e-06
6.718842e-06
6.63952068e-06
6.65728908e-06
6.6827748e-06
6.7152618e-06
6.72952956e-06
6.63400452e-06
6.65659956e-06
6.66882528e-06
6.64943916e-06
6.67049604e-06
6.64121796e-06
6.61721736e-06
6.64079364e-06
6.64241136e-06
6.66985956e-06
6.63798252e-06
6.6626196e-06
6.6602328e-06
6.63395148e-06
6.63899028e-06
6.63761124e-06
6.6256242e-06
6.62565072e-06
6.63514488e-06
6.64912092e-06
6.63140556e-06
6.64490424e-06
6.63991848e-06
6.64686672e-06
6.6628848e-06
6.62090364e-06
6.62692368e-06
6.62811708e-06
6.6209832e-06
6.62130144e-06
6.64044888e-06
6.663813e-06
6.6701778e-06
6.6773382e-06
6.68115708e-06
6.63633828e-06
6.64691976e-06
6.66601416e-06
6.64116492e-06
6.6546636e-06
6.63373932e-06
6.61308024e-06
6.6264198e-06
6.65588352e-06
6.6183312e-06
6.61032216e-06
6.6042756e-06
6.612762e-06
6.61085256e-06
6.6152814e-06
6.64148316e-06
6.64649544e-06
6.634641e-06
6.62472252e-06
6.62127492e-06
6.62143404e-06
6.63143208e-06
6.69598176e-06
6.78962388e-06
7.16554488e-06
6.64967784e-06
6.6536028e-06
6.67916808e-06
6.7653846e-06
6.99801804e-06
6.65617524e-06
6.69393972e-06
6.72661236e-06
6.77487876e-06
6.89989404e-06
6.64023672e-06
6.66840096e-06
6.70115316e-06
6.77503788e-06
6.8319498e-06
6.64861704e-06
6.65795208e-06
6.69094296e-06
6.70046364e-06
6.75421968e-06
6.64477164e-06
6.64288872e-06
6.68136924e-06
6.69873984e-06
6.74183484e-06
6.65156076e-06
6.66535116e-06
6.67776252e-06
6.7014714e-06
6.73798944e-06
6.63578136e-06
6.6159444e-06
6.64063452e-06
6.6610284e-06
6.68235048e-06
6.64132404e-06
6.67009824e-06
6.64389648e-06
6.67028388e-06
6.68532072e-06
6.63326196e-06
6.64845792e-06
6.66768492e-06
6.683703e-06
6.68505552e-06
6.62981436e-06
6.63267852e-06
6.6447186e-06
6.63721344e-06
6.64999608e-06
6.65606916e-06
6.6447186e-06
6.66264612e-06
6.68677932e-06
6.69208332e-06
6.6375582e-06
6.64477164e-06
6.63843336e-06
6.66081624e-06
6.67182204e-06
6.61875552e-06
6.63037128e-06
6.64562028e-06
6.64824576e-06
6.64583244e-06
6.63723996e-06
6.6059994e-06
6.59716824e-06
6.59714172e-06
6.62726844e-06
6.632652e-06
6.63777036e-06
6.60915528e-06
6.6057342e-06
6.62116884e-06
6.63485316e-06
6.61870248e-06
6.59136036e-06
6.57650916e-06
6.59732736e-06
6.62103624e-06
6.61920636e-06
6.62313132e-06
6.61297416e-06
6.61843728e-06
6.64262352e-06
6.6383538e-06
6.66848052e-06
6.757296e-06
7.08473844e-06
6.63395148e-06
6.64758276e-06
6.6549288e-06
6.72300564e-06
6.90559584e-06
6.64506336e-06
6.64490424e-06
6.6652716e-06
6.73061688e-06
6.85122984e-06
6.64479816e-06
6.64705236e-06
6.64888224e-06
6.68261568e-06
6.79943628e-06
6.63885768e-06
6.6489618e-06
6.6587742e-06
6.69131424e-06
6.72443772e-06
6.6281436e-06
6.64832532e-06
6.67049604e-06
6.68404776e-06
6.74331996e-06
6.64912092e-06
6.64225224e-06
6.6586416e-06
6.68200572e-06
6.68810532e-06
6.62222964e-06
6.6391494e-06
6.65418624e-06
6.6758796e-06
6.68174052e-06
6.63204204e-06
6.65654652e-06
6.69415188e-06
6.71152248e-06
6.7084992e-06
6.63787644e-06
6.62594244e-06
6.61016304e-06
6.59788428e-06
6.62649936e-06
6.63461448e-06
6.64137708e-06
6.66914352e-06
6.68778708e-06
6.66784404e-06
6.62848836e-06
6.62220312e-06
6.602817e-06
6.58918572e-06
6.62135448e-06
6.64039584e-06
6.65116296e-06
6.64702584e-06
6.64575288e-06
6.63533052e-06
6.61613004e-06
6.62082408e-06
6.63880464e-06
6.63249288e-06
6.648564e-06
6.6163422e-06
6.66362736e-06
6.67404972e-06
6.68341128e-06
6.66588156e-06
6.64275612e-06
6.62106276e-06
6.61862292e-06
6.60684804e-06
6.59722128e-06
6.6376908e-06
6.65065908e-06
6.65495532e-06
6.6455142e-06
6.61188684e-06
6.62289264e-06
6.61838424e-06
6.600828e-06
6.612099e-06
6.6563874e-06
6.63893724e-06
6.6530724e-06
6.69110208e-06
6.7693626e-06
7.09227012e-06
6.66057756e-06
6.6500226e-06
6.68152836e-06
6.76265304e-06
7.00011312e-06
6.64676064e-06
6.67301544e-06
6.70470684e-06
6.74583936e-06
6.85483656e-06
6.6382212e-06
6.64970436e-06
6.6818466e-06
6.72239568e-06
6.80333472e-06
6.64143012e-06
6.6329172e-06
6.65564484e-06
6.69375408e-06
6.7514616e-06
6.63392496e-06
6.64084668e-06
6.63909636e-06
6.65959632e-06
6.70282392e-06
6.63989196e-06
6.67211376e-06
6.68375604e-06
6.669117e-06
6.6742884e-06
6.63010608e-06
6.62119536e-06
6.61520184e-06
6.62763972e-06
6.6563874e-06
6.63228072e-06
6.63055692e-06
6.65153424e-06
6.66254004e-06
6.68404776e-06
6.6455142e-06
6.64455948e-06
6.64214616e-06
6.67423536e-06
6.7084992e-06
6.63527748e-06
6.61790688e-06
6.62127492e-06
6.660498e-06
6.70019844e-06
6.624033e-06
6.63068952e-06
6.62824968e-06
6.6297348e-06
6.63270504e-06
6.61008348e-06
6.62437776e-06
6.62864748e-06
6.61864944e-06
6.62901876e-06
6.62763972e-06
6.58841664e-06
6.5812032e-06
6.57892248e-06
6.59677044e-06
6.63472056e-06
6.6427296e-06
6.68526768e-06
6.70030452e-06
6.68574504e-06
6.63440232e-06
6.63771732e-06
6.61231116e-06
6.62981436e-06
6.65593656e-06
6.60411648e-06
6.60756408e-06
6.62846184e-06
6.63838032e-06
6.64819272e-06
6.64326e-06
6.63869856e-06
6.64421472e-06
6.66020628e-06
6.63997152e-06
6.63790296e-06
6.65034084e-06
6.68174052e-06
6.75817116e-06
7.05726372e-06
6.62305176e-06
6.65044692e-06
6.68086536e-06
6.7492074e-06
6.92498196e-06
6.65516748e-06
6.678399e-06
6.70841964e-06
6.75604956e-06
6.86913084e-06
6.61445928e-06
6.58443864e-06
6.62146056e-06
6.66980652e-06
6.78373644e-06
6.66185052e-06
6.68945784e-06
6.6801228e-06
6.68534724e-06
6.71799336e-06
6.62087712e-06
6.59687652e-06
6.62570376e-06
6.65461056e-06
6.68351736e-06
6.64943916e-06
6.64315392e-06
6.6440556e-06
6.65378844e-06
6.65776644e-06
6.65633436e-06
6.67595916e-06
6.68553288e-06
6.70430904e-06
6.68346432e-06
6.61888812e-06
6.63405756e-06
6.65331108e-06
6.63872508e-06
6.67086732e-06
6.62819664e-06
6.63909636e-06
6.642597e-06
6.66784404e-06
6.64368432e-06
6.64994304e-06
6.64660152e-06
6.65551224e-06
6.6597024e-06
6.6343758e-06
6.64066104e-06
6.6433926e-06
6.6407406e-06
6.6262872e-06
6.63917592e-06
6.64055496e-06
6.64058148e-06
6.6537354e-06
6.64593852e-06
6.6395472e-06
6.62660544e-06
6.61366368e-06
6.60119928e-06
6.60814752e-06
6.61376976e-06
6.63562224e-06
6.63519792e-06
6.63074256e-06
6.62896572e-06
6.64623024e-06
6.64145664e-06
6.65712996e-06
6.63559572e-06
6.62090364e-06
6.632652e-06
6.6387516e-06
6.64363128e-06
6.64164228e-06
6.624696e-06
6.642597e-06
6.64397604e-06
6.62596896e-06
6.62501424e-06
6.6095796e-06
6.61623612e-06
6.62806404e-06
6.6185964e-06
6.64227876e-06
6.70255872e-06
6.9804618e-06
6.63209508e-06
6.66338868e-06
6.68553288e-06
6.78803268e-06
6.95802588e-06
6.63787644e-06
6.63389844e-06
6.66718104e-06
6.70587372e-06
6.81187416e-06
6.6331824e-06
6.64925352e-06
6.6461772e-06
6.69388668e-06
6.76464204e-06
6.65654652e-06
6.67147728e-06
6.68304e-06
6.71085948e-06
6.73565568e-06
6.638619e-06
6.65026128e-06
6.67519008e-06
6.67168944e-06
6.7078362e-06
6.64357824e-06
6.65275416e-06
6.638619e-06
6.67662216e-06
6.72411948e-06
6.63275808e-06
6.64705236e-06
6.63957372e-06
6.61803948e-06
6.64349868e-06
6.63458796e-06
6.61822512e-06
6.62512032e-06
6.6536028e-06
6.64546116e-06
6.62994696e-06
6.60713976e-06
6.58480992e-06
6.60621156e-06
6.65036736e-06
6.62618112e-06
6.637293e-06
6.63031824e-06
6.63493272e-06
6.64853748e-06
6.62665848e-06
6.60358608e-06
6.61737648e-06
6.63312936e-06
6.60443472e-06
6.65007564e-06
6.6542658e-06
6.63323544e-06
6.64381692e-06
6.63681564e-06
6.60934092e-06
6.62771928e-06
6.63387192e-06
6.63480012e-06
6.61361064e-06
6.6350388e-06
6.63525096e-06
6.64347216e-06
6.64148316e-06
6.65209116e-06
6.62604852e-06
6.60615852e-06
6.66285828e-06
6.65858856e-06
6.65641392e-06
6.64394952e-06
6.66044496e-06
6.62021412e-06
6.63681564e-06
6.6139554e-06
6.63485316e-06
6.65941068e-06
6.66535116e-06
6.6504204e-06
6.65447796e-06
6.63177684e-06
6.64821924e-06
6.68996172e-06
6.73960716e-06
7.05519516e-06
6.63429624e-06
6.66824184e-06
6.65063256e-06
6.71865636e-06
6.88199304e-06
6.64129752e-06
6.67789512e-06
6.71626956e-06
6.74727144e-06
6.82555848e-06
6.63469404e-06
6.63665652e-06
6.63922896e-06
6.66683628e-06
6.73536396e-06
6.62321088e-06
6.62427168e-06
6.64318044e-06
6.6716364e-06
6.70600632e-06
6.6335802e-06
6.63970632e-06
6.6431274e-06
6.66757884e-06
6.72403992e-06
6.63745212e-06
6.65352324e-06
6.66757884e-06
6.67855812e-06
6.67277676e-06
6.61127688e-06
6.63922896e-06
6.66081624e-06
6.69144684e-06
6.66285828e-06
6.62029368e-06
6.62848836e-06
6.62493468e-06
6.62652588e-06
6.64821924e-06
6.6298674e-06
6.63620568e-06
6.63933504e-06
6.63551616e-06
6.65840292e-06
6.6410058e-06
6.65166684e-06
6.64071408e-06
6.63612612e-06
6.61586484e-06
6.62039976e-06
6.61907376e-06
6.62644632e-06
6.62899224e-06
6.66227484e-06
6.6274806e-06
6.658509e-06
6.65994108e-06
6.6530724e-06
6.6549288e-06
6.62689716e-06
6.63514488e-06
6.64861704e-06
6.645249e-06
6.66084276e-06
6.65044692e-06
6.63541008e-06
6.65296632e-06
6.66362736e-06
6.67564092e-06
6.6282762e-06
6.63323544e-06
6.60008544e-06
6.59814948e-06
6.6062646e-06
6.61748256e-06
6.62196444e-06
6.63777036e-06
6.64251744e-06
6.64015716e-06
6.62981436e-06
6.62461644e-06
6.63952068e-06
6.66787056e-06
6.6647412e-06
6.63893724e-06
6.65551224e-06
6.65646696e-06
6.71600436e-06
6.93028596e-06
6.63299676e-06
6.63015912e-06
6.63286416e-06
6.66625284e-06
6.75567828e-06
6.6444534e-06
6.65659956e-06
6.68672628e-06
6.7331628e-06
6.8048994e-06
6.6272154e-06
6.63599352e-06
6.67147728e-06
6.65999412e-06
6.68338476e-06
6.6370278e-06
6.63973284e-06
6.63262548e-06
6.62766624e-06
6.6410058e-06
6.63400452e-06
6.6614262e-06
6.651879e-06
6.65755428e-06
6.65445144e-06
6.62207052e-06
6.6005628e-06
6.62063844e-06
6.6209832e-06
6.64204008e-06
6.6508182e-06
6.63509184e-06
6.62238876e-06
6.61119732e-06
6.6156792e-06
6.61973676e-06
6.62525292e-06
6.64522248e-06
6.65962284e-06
6.66842748e-06
6.63222768e-06
6.61082604e-06
6.60804144e-06
6.59297808e-06
6.61392888e-06
6.62620764e-06
6.6231048e-06
6.64315392e-06
6.63641784e-06
6.63270504e-06
6.62631372e-06
6.59661132e-06
6.60634416e-06
6.6162096e-06
6.61079952e-06
6.65858856e-06
6.65978196e-06
6.64270308e-06
6.61708476e-06
6.63111384e-06
6.62976132e-06
6.61520184e-06
6.6276132e-06
6.66108144e-06
6.64986348e-06
6.63694824e-06
6.6415362e-06
6.61650132e-06
6.60591984e-06
6.61188684e-06
6.61750908e-06
6.6083862e-06
6.62273352e-06
6.61788036e-06
6.62724192e-06
6.63843336e-06
6.6510834e-06
6.66317652e-06
6.65959632e-06
6.64596504e-06
6.64957176e-06
6.6411384e-06
6.59597484e-06
6.5899548e-06
6.61366368e-06
1.118634816e-05
1.260898704e-05
1.313684112e-05
1.346730684e-05
1.35680298e-05
1.362404004e-05
1.35221502e-05
1.360096764e-05
1.3576914e-05
1.347181524e-05
1.336003344e-05
1.334536788e-05
1.313485212e-05
1.290166176e-05
1.266115188e-05
1.243835736e-05
1.19894268e-05
1.16127102e-05
1.1162931e-05
1.065218232e-05
1.005007224e-05
9.35410788e-06
8.55598848e-06
7.4842092e-06
5.713734e-06
9.87596844e-06
1.122615468e-05
1.214035212e-05
1.258750584e-05
1.285660428e-05
1.302314988e-05
1.290571932e-05
1.30023582e-05
1.290452592e-05
1.279176288e-05
1.279555524e-05
1.26131772e-05
1.256658156e-05
1.231503936e-05
1.198754388e-05
1.17511446e-05
1.153338888e-05
1.117364508e-05
1.069891056e-05
1.022735844e-05
9.74631216e-06
9.07668216e-06
8.26983768e-06
7.24810164e-06
5.74126176e-06
9.25776072e-06
1.035306324e-05
1.103857872e-05
1.154320128e-05
1.2036765e-05
1.226104464e-05
1.245238644e-05
1.253144256e-05
1.242154368e-05
1.236516216e-05
1.22835336e-05
1.217549112e-05
1.212152292e-05
1.186838952e-05
1.169532e-05
1.135925856e-05
1.116786372e-05
1.084516836e-05
1.036091316e-05
1.004328312e-05
9.56154732e-06
8.96890488e-06
8.20955772e-06
7.32474444e-06
5.93687328e-06
8.96596116e-06
9.7166628e-06
1.029026388e-05
1.08139278e-05
1.127638356e-05
1.142327784e-05
1.16662806e-05
1.18281852e-05
1.200807036e-05
1.18859988e-05
1.19241876e-05
1.183020072e-05
1.16864358e-05
1.156051884e-05
1.147989804e-05
1.1353212e-05
1.097320692e-05
1.072577532e-05
1.034834268e-05
9.9571992e-06
9.58241856e-06
8.87406936e-06
8.26034352e-06
7.38788856e-06
6.09604632e-06
8.68869456e-06
9.2040312e-06
9.69417384e-06
1.012355916e-05
1.044373512e-05
1.071034068e-05
1.098681168e-05
1.123304988e-05
1.141890204e-05
1.151874984e-05
1.145085864e-05
1.147963284e-05
1.147485924e-05
1.147231332e-05
1.11988656e-05
1.109710836e-05
1.082143296e-05
1.05499212e-05
1.034150052e-05
9.93555888e-06
9.30722052e-06
8.71266864e-06
8.24063916e-06
7.49643492e-06
6.21159396e-06
8.63244564e-06
9.09519312e-06
9.4565016e-06
9.65545464e-06
9.86909976e-06
1.014387348e-05
1.034484204e-05
1.058975424e-05
1.086161076e-05
1.108408704e-05
1.107904824e-05
1.11020676e-05
1.103674884e-05
1.114152936e-05
1.095477552e-05
1.085731452e-05
1.057095156e-05
1.040066664e-05
1.013949768e-05
9.7608186e-06
9.41833932e-06
8.81288772e-06
8.1802266e-06
7.44729336e-06
6.37630968e-06
8.4458244e-06
8.9469198e-06
9.15565872e-06
9.3412722e-06
9.53948268e-06
9.61471992e-06
9.89973036e-06
1.010380176e-05
1.026411516e-05
1.046487156e-05
1.053578604e-05
1.068400632e-05
1.07667222e-05
1.077987612e-05
1.062027876e-05
1.04466258e-05
1.032169008e-05
1.005805476e-05
9.76524744e-06
9.54619224e-06
9.19490832e-06
8.66254584e-06
8.13996924e-06
7.49423376e-06
6.37082004e-06
8.43935352e-06
8.9108526e-06
9.00412344e-06
9.00558204e-06
9.23580216e-06
9.24054924e-06
9.41733156e-06
9.57679632e-06
9.82104552e-06
9.98196888e-06
1.006927272e-05
1.017715608e-05
1.033091904e-05
1.03544688e-05
1.014159276e-05
1.013756172e-05
1.001485368e-05
9.72575916e-06
9.60260028e-06
9.35172108e-06
9.040668e-06
8.6065356e-06
8.14967556e-06
7.46800548e-06
6.3918504e-06
8.28092304e-06
8.64517524e-06
8.76653076e-06
8.87011788e-06
8.89342896e-06
9.01385628e-06
9.05663304e-06
9.26266692e-06
9.29016816e-06
9.48148344e-06
9.54157776e-06
9.7031376e-06
9.88230672e-06
9.785217e-06
9.90251496e-06
9.93858216e-06
9.70228896e-06
9.45286836e-06
9.25802592e-06
9.03114732e-06
8.81734308e-06
8.47428036e-06
8.07433224e-06
7.38990408e-06
6.3361584e-06
8.21913144e-06
8.57561328e-06
8.62048512e-06
8.6239062e-06
8.69195652e-06
8.691267e-06
8.70102636e-06
8.8586082e-06
8.96983308e-06
8.96293788e-06
9.12571764e-06
9.325758e-06
9.30064356e-06
9.356256e-06
9.43258056e-06
9.42690528e-06
9.29889324e-06
9.25487004e-06
8.98601028e-06
8.79546408e-06
8.49544332e-06
8.2542174e-06
7.88476728e-06
7.32357756e-06
6.28905888e-06
8.22432936e-06
8.55779184e-06
8.6139612e-06
8.6038836e-06
8.43935352e-06
8.4875934e-06
8.4915714e-06
8.4687642e-06
8.57203308e-06
8.62512612e-06
8.73001272e-06
8.93771736e-06
8.86240056e-06
8.8383204e-06
8.91870252e-06
8.90212752e-06
8.95259508e-06
8.84532168e-06
8.7049248e-06
8.5436832e-06
8.36032392e-06
8.03691252e-06
7.73930508e-06
7.1541678e-06
6.20894196e-06
8.20613664e-06
8.531484e-06
8.62772508e-06
8.4348186e-06
8.3652036e-06
8.27906664e-06
8.27180016e-06
8.27500908e-06
8.25888492e-06
8.20319292e-06
8.34255552e-06
8.40150948e-06
8.50289544e-06
8.41065888e-06
8.49838704e-06
8.43033672e-06
8.43145056e-06
8.35584204e-06
8.32998504e-06
8.14612188e-06
7.96358472e-06
7.76168796e-06
7.49436636e-06
6.96274644e-06
6.0265374e-06
8.132358e-06
8.45197704e-06
8.45091624e-06
8.28121476e-06
8.15466132e-06
8.0555826e-06
7.96671408e-06
7.91282544e-06
7.86612372e-06
7.85029128e-06
7.857876e-06
7.90659324e-06
7.92009192e-06
7.9501656e-06
7.91173812e-06
8.02458072e-06
7.98461508e-06
7.97822376e-06
7.90280088e-06
7.77988068e-06
7.6107096e-06
7.4537112e-06
7.10462844e-06
6.63766428e-06
5.7995262e-06
8.14166652e-06
8.43953916e-06
8.36578704e-06
8.26843212e-06
8.07793896e-06
7.91080992e-06
7.78903008e-06
7.76211228e-06
7.66306008e-06
7.55321424e-06
7.53796524e-06
7.47052488e-06
7.54637208e-06
7.49845044e-06
7.50990708e-06
7.52070072e-06
7.58307576e-06
7.57668444e-06
7.47901128e-06
7.31026452e-06
7.19217096e-06