/*--------------------------------*- C++ -*----------------------------------*\
| =========                 |                                                 |
| \\      /  F ield         | OpenFOAM: The Open Source CFD Toolbox           |
|  \\    /   O peration     | Version:  v1706                                 |
|   \\  /    A nd           | Web:      www.OpenFOAM.com                      |
|    \\/     M anipulation  |                                                 |
\*---------------------------------------------------------------------------*/
FoamFile
{
    version     2.0;
    format      ascii;
    class       volScalarField;
    location    "0.003";
    object      surfaceShearStress_Ar;
}
// * * * * * * * * * * * * * * * * * * * * * * * * * * * * * * * * * * * * * //

dimensions      [1 -1 -2 0 0 0 0];


internalField   uniform 0;

boundaryField
{
    flow
    {
        type            calculated;
        value           uniform 0;
    }
    entrance
    {
        type            symmetry;
    }
    walls
    {
        type            calculated;
        value           nonuniform List<scalar> 
900
(
1.602463633
1.659689382
1.598476897
1.541487085
1.491415335
1.470702322
1.491894725
1.517514882
1.45351147
1.457854355
1.410238702
1.513494729
1.411669688
1.474924732
1.435405965
1.411637157
1.423837838
1.453981125
1.743561545
1.860522353
1.799579071
1.700085314
1.652544917
1.599084738
1.597193115
1.567615234
1.540270934
1.559641585
1.497136874
1.57533028
1.485414259
1.501672268
1.507390309
1.519603205
1.462829546
1.386094054
1.662103967
1.981272292
1.878582671
1.86513366
1.791318038
1.754191175
1.658555239
1.645801034
1.714506595
1.6077451
1.615544754
1.546920011
1.552616712
1.575501795
1.559713369
1.517424254
1.48417651
1.400444066
1.519757732
2.045199617
2.070586414
1.950783678
1.910072233
1.795502755
1.782631925
1.770749838
1.688411788
1.657037368
1.650813295
1.718932183
1.60934063
1.57126949
1.533576954
1.577926086
1.483891057
1.45739624
1.374814398
1.99600649
2.125311912
2.020839495
1.969816392
1.891844039
1.814519785
1.714837725
1.696605829
1.722061807
1.683718045
1.651849661
1.587442567
1.597281606
1.558491232
1.545479447
1.432919748
1.435963196
1.260245922
1.840968504
2.089756418
1.998613294
1.955640791
1.939032207
1.808267485
1.79784324
1.697760419
1.674750541
1.686485206
1.639664835
1.61933874
1.63566207
1.581720223
1.476377217
1.456437272
1.484917347
1.15450989
1.760117039
2.020320721
2.076520502
2.034177359
1.966913847
1.850556347
1.823335122
1.748203769
1.709393153
1.691348258
1.626405185
1.62936168
1.559658539
1.547640552
1.498646542
1.488578832
1.423662541
1.079009812
1.643617166
1.972377791
1.972260287
2.003976623
1.98251205
1.877115695
1.80401103
1.812462457
1.743180683
1.669149155
1.618835633
1.616540768
1.577241566
1.526559063
1.44612204
1.405172064
1.415923324
0.9831638225
1.529993165
1.818563171
1.993153356
1.975324837
1.999080775
1.933772517
1.875100392
1.811409921
1.721669281
1.701370645
1.629903928
1.602108625
1.591233214
1.484855331
1.449755163
1.413122195
1.477662571
0.9043117093
1.449901638
1.768399382
1.854095025
1.978146647
2.004197698
1.901984671
1.806286973
1.790681427
1.745475399
1.691798278
1.588454233
1.540519304
1.526046395
1.437059812
1.429857196
1.382651623
1.388407122
0.8468084524
1.282156925
1.553660407
1.798384334
1.846452861
1.858577967
1.904756965
1.896637068
1.748038124
1.72926527
1.708400915
1.588260416
1.574398649
1.516671921
1.46868701
1.413306301
1.351974218
1.38251568
0.7902815876
1.203903889
1.547391897
1.694166583
1.82407821
1.89525629
1.870866792
1.846151394
1.758915107
1.732133407
1.720429903
1.621397952
1.559590027
1.520946315
1.424479149
1.425957853
1.415109923
1.445954407
0.7591302587
1.127920279
1.457450329
1.630628834
1.749875773
1.785493936
1.851843736
1.80384297
1.746582661
1.703728537
1.647650488
1.601558024
1.609424877
1.529275059
1.468229513
1.390304912
1.384781294
1.452085294
0.7022520761
1.058072982
1.358223143
1.523668752
1.6655041
1.751157289
1.79382503
1.777014638
1.750536488
1.711305099
1.592675231
1.610622536
1.565449303
1.472090148
1.452461276
1.397318656
1.352858206
1.431422977
0.6517091052
0.9819340705
1.293438055
1.486504594
1.632346723
1.697385268
1.75748857
1.706750679
1.699180584
1.679547118
1.682449853
1.554914579
1.531544828
1.492077891
1.412797919
1.422079715
1.415970373
1.477484941
0.6483158601
0.9570395073
1.247833808
1.428697163
1.540812213
1.609110094
1.715812646
1.740908307
1.725633491
1.661050455
1.65074534
1.61870827
1.51256779
1.495266779
1.451019072
1.37868386
1.400736594
1.45423519
0.6041115706
0.900179131
1.138914964
1.364263214
1.472529545
1.598228239
1.613071334
1.675444798
1.671165738
1.636040619
1.63184543
1.543772015
1.537817958
1.445010575
1.42476554
1.464673255
1.389631339
1.53574843
0.5864159073
0.9155075952
1.074767207
1.269797303
1.418694792
1.546869738
1.568924508
1.55474307
1.621452618
1.578857743
1.632261188
1.568883076
1.549008404
1.438568952
1.401631964
1.374950567
1.40740123
1.461002115
0.549812113
0.8500087821
1.072556686
1.231042653
1.363212382
1.473988231
1.547425291
1.557210148
1.586972272
1.605246472
1.498837196
1.541873547
1.461071841
1.399797192
1.391966546
1.404558974
1.411045255
1.484361839
0.5731105081
0.8015124363
1.049827419
1.171700519
1.296988503
1.378548907
1.466566637
1.549543589
1.537310062
1.538444633
1.549244749
1.510985124
1.443539615
1.435956692
1.366320139
1.341246455
1.367494505
1.509798552
0.5524316971
0.8165975033
0.9620045483
1.193314242
1.250715951
1.348588
1.445100905
1.492269318
1.532302552
1.487624053
1.453433179
1.457494343
1.443231755
1.414589989
1.380626407
1.318387108
1.398461554
1.507944827
0.5697745655
0.7839838263
0.9442751316
1.140795081
1.216833177
1.272926452
1.408394439
1.432634058
1.444779115
1.450098861
1.506235106
1.406711332
1.398300592
1.402015661
1.337620716
1.337362762
1.403726464
1.540418252
0.5622567349
0.7433107393
0.9572697641
1.045910214
1.190378673
1.327917724
1.3876386
1.353840043
1.438312991
1.450725369
1.404393498
1.414857407
1.383039337
1.360651799
1.338216012
1.324549963
1.420924777
1.529896648
0.576298494
0.8194914075
0.9284790012
1.078410159
1.181931119
1.228127737
1.289708622
1.292733415
1.372334359
1.425618671
1.429785353
1.365306339
1.346763364
1.364249186
1.282686328
1.339899029
1.380695478
1.540252429
0.5738579178
0.8221196099
0.925162464
1.059318158
1.135170227
1.209022845
1.303762786
1.382668727
1.409292632
1.38030397
1.424928168
1.346007881
1.345353781
1.333398569
1.337621474
1.35379383
1.426456677
1.562801197
1.640527658
1.627958417
1.595537886
1.541334441
1.515532242
1.481740755
1.506914063
1.49760897
1.45774374
1.418965799
1.460794909
1.42420409
1.421094705
1.458641213
1.444787131
1.393384177
1.335109743
1.388880111
1.678318352
1.854825891
1.835349675
1.708602777
1.680805483
1.63705339
1.57688004
1.613357758
1.538739371
1.544287495
1.558850148
1.532187947
1.488873968
1.550156451
1.515878794
1.552979342
1.471903039
1.385054697
1.624164166
2.025139141
1.994877474
1.870749542
1.818087797
1.770478837
1.683547371
1.679016908
1.680141881
1.599676271
1.621667749
1.631968193
1.602309285
1.539743639
1.573222775
1.615352731
1.487232923
1.425518262
1.494578391
2.057212695
2.04583952
1.970470285
1.891475951
1.80674979
1.821466408
1.725078003
1.728065399
1.662727736
1.617104795
1.600659911
1.572310974
1.609653249
1.559426219
1.537600779
1.453525444
1.472927628
1.470212937
1.981799207
2.104967173
2.092469824
1.979051479
1.856023971
1.809989418
1.827252894
1.704963959
1.732853097
1.632112058
1.64650645
1.589520483
1.575530759
1.551601875
1.495808755
1.486253779
1.405686333
1.284510941
1.942743105
2.083925577
2.056295337
1.982908061
1.938597428
1.844800536
1.774487625
1.717113664
1.682913202
1.724942298
1.659730249
1.590605208
1.566661478
1.543146281
1.521129632
1.447619634
1.430604157
1.168936687
1.723807321
2.018728072
2.052276197
2.034585141
1.938278036
1.88965806
1.840880454
1.753471157
1.681267926
1.688313969
1.670932587
1.592313976
1.587158455
1.519907485
1.514471512
1.478694394
1.432101841
1.053366633
1.601575921
1.997001722
2.003726626
2.000364115
1.990160172
1.936919116
1.81705423
1.857343296
1.6982745
1.688476699
1.685471563
1.645072169
1.628226795
1.486148903
1.513877028
1.410908916
1.42553965
0.9472725586
1.496655475
1.785106142
1.945135273
2.038111275
1.915049335
1.881482256
1.83635704
1.821863273
1.714523813
1.678060726
1.618913839
1.611869097
1.582606647
1.480807623
1.441268814
1.388152542
1.431317875
0.9138362723
1.432229855
1.70031522
1.879650288
1.915511176
1.914010877
1.909440769
1.885197798
1.78595016
1.723210792
1.682955843
1.657893122
1.585344797
1.555480646
1.453831257
1.411388849
1.407178233
1.470179689
0.8563092831
1.320675281
1.620273744
1.871836425
1.890011218
1.940383291
1.882846139
1.852126302
1.821707683
1.724860871
1.705197185
1.62694661
1.557388718
1.497860115
1.499193247
1.404982907
1.36614551
1.506488078
0.8064593716
1.15084634
1.486142926
1.739489059
1.831865125
1.84851624
1.834048469
1.875401448
1.75804539
1.761566891
1.696626206
1.658486431
1.570516052
1.525419408
1.455276159
1.370628812
1.377548773
1.439928209
0.7809534743
1.099938489
1.358254705
1.646349055
1.7652004
1.753690687
1.821084033
1.84314569
1.784343463
1.766713881
1.678022509
1.629061361
1.553743821
1.522986542
1.449414497
1.43320304
1.396059612
1.468494019
0.702237456
1.117499083
1.338620544
1.587892188
1.662612813
1.76234611
1.815162555
1.823785555
1.807468702
1.667491872
1.606726105
1.590404807
1.541284586
1.458731355
1.489928605
1.425820913
1.376467825
1.467917903
0.6871288504
0.9838763401
1.263084504
1.515392888
1.623830039
1.678744968
1.773666842
1.709842243
1.686273546
1.721449665
1.637814428
1.591692804
1.526413104
1.477141094
1.435940782
1.362397045
1.38217509
1.471892785
0.6351638242
0.9492859086
1.191305545
1.440597121
1.544589203
1.588371292
1.638889641
1.693320793
1.719015536
1.660317615
1.631438759
1.557407476
1.503381987
1.440949459
1.394634837
1.372852421
1.360822441
1.455600667
0.5824782397
0.8768410561
1.130925087
1.350235488
1.509034289
1.542871987
1.671553148
1.634077689
1.653514047
1.595856804
1.626549054
1.561000563
1.470617451
1.469225038
1.478187764
1.388936645
1.393538866
1.541718899
0.6014728592
0.9257018347
1.104469218
1.279781169
1.407713062
1.530233471
1.583911842
1.586177704
1.572826937
1.622453503
1.527435919
1.500322026
1.472953508
1.440308853
1.39727865
1.394198679
1.37398431
1.529962512
0.5873561183
0.8720383911
1.034850836
1.24497631
1.399078095
1.504281604
1.527103653
1.544114018
1.560330025
1.551386982
1.551819345
1.553256976
1.468050978
1.414082249
1.396962965
1.373024989
1.37417717
1.499236028
0.5620944168
0.8191991491
1.025962957
1.167133531
1.359498989
1.430587165
1.48000933
1.483282475
1.522835586
1.540575021
1.509000848
1.514099738
1.385589502
1.428533778
1.374409105
1.385442967
1.413930419
1.515011491
0.5192205575
0.801110463
0.9834573196
1.176250497
1.29979867
1.374396512
1.411719934
1.440490003
1.519180344
1.497890519
1.473464505
1.489640995
1.463182307
1.363851802
1.411743799
1.360333425
1.398632357
1.492504397
0.546896692
0.758158403
0.9632057585
1.118248685
1.147944133
1.360080308
1.38633557
1.425411737
1.433250433
1.458327693
1.474255727
1.406054685
1.407308188
1.35897754
1.332734825
1.34297913
1.360557763
1.559199874
0.5478082452
0.7581003744
0.9416386315
1.072935817
1.166406664
1.306402064
1.320176888
1.38056673
1.388626061
1.45585383
1.457055944
1.434099502
1.402760219
1.354500457
1.332680099
1.316277482
1.365134892
1.529468813
0.5975948269
0.8089964297
0.9274282935
1.090449421
1.190936785
1.266314487
1.314943005
1.366542174
1.397204624
1.396638193
1.41445995
1.382938091
1.368756047
1.353897949
1.361935096
1.328362945
1.389945016
1.532413318
0.5969158578
0.8175511153
0.9616946781
1.022176561
1.168863936
1.260488523
1.290050375
1.338621761
1.357247446
1.364528694
1.402800755
1.36636598
1.349955676
1.343392685
1.31286961
1.297562988
1.393166887
1.539974046
)
;
    }
}


// ************************************************************************* //
