/*--------------------------------*- C++ -*----------------------------------*\
| =========                 |                                                 |
| \\      /  F ield         | OpenFOAM: The Open Source CFD Toolbox           |
|  \\    /   O peration     | Version:  v1706                                 |
|   \\  /    A nd           | Web:      www.OpenFOAM.com                      |
|    \\/     M anipulation  |                                                 |
\*---------------------------------------------------------------------------*/
FoamFile
{
    version     2.0;
    format      ascii;
    class       volVectorField;
    location    "0.003";
    object      UMean_Ar;
}
// * * * * * * * * * * * * * * * * * * * * * * * * * * * * * * * * * * * * * //

dimensions      [0 1 -1 0 0 0 0];


internalField   nonuniform List<vector> 
9720
(
(1923.832052 1.419431128 2.457046749)
(1912.466896 2.096046324 2.16404882)
(1883.560636 0.6661451546 1.090904337)
(1807.179008 2.914686193 2.618887392)
(1561.049685 18.23326003 15.1613098)
(1928.568937 0.529036651 -0.9234671296)
(1912.526607 1.285010291 0.03983830982)
(1885.4983 3.219715359 1.649467777)
(1816.26038 10.57775498 2.089577671)
(1619.095782 29.66562863 16.56640419)
(1929.430496 -0.3293565635 -0.7560107293)
(1915.585305 0.06011322964 -0.3002536846)
(1887.445408 3.206416648 1.100438602)
(1833.553898 10.62547187 3.141743383)
(1673.180108 27.06419024 16.93358587)
(1928.311343 -0.7783837507 -1.014928241)
(1914.78037 1.931806355 -1.092515226)
(1894.927764 5.286080422 -0.479250459)
(1846.737389 10.23505511 2.837527049)
(1712.405302 21.99846437 16.41844239)
(1930.54357 0.02577967452 -1.852735588)
(1919.123395 1.922193426 -1.335751037)
(1901.437727 4.249013918 -0.0304828369)
(1858.634364 10.41810604 4.661918199)
(1735.288831 16.30636462 15.38395769)
(1930.134363 -0.6635735731 -1.234605602)
(1919.252828 0.8060462155 -1.963221694)
(1902.744808 5.254378478 -0.07687987437)
(1866.040411 8.321655279 1.118247875)
(1752.064429 14.99778785 13.9596586)
(1927.502862 0.4988356576 -1.454643514)
(1921.204729 1.646266136 -1.776072035)
(1908.617415 2.141659239 0.2953614035)
(1874.065921 5.179524538 0.5275324967)
(1764.841132 13.39381037 15.05230469)
(1927.73466 0.849400256 1.211775259)
(1922.689912 1.383081659 -0.1235528813)
(1910.167509 0.5648283711 0.4525023113)
(1880.370852 2.779885259 1.354249872)
(1777.317593 6.894424451 14.41476401)
(1931.164574 -0.3469507842 -1.886359265)
(1923.859584 0.939592732 -1.39615895)
(1912.571732 1.254267292 -1.364062631)
(1885.347306 2.999597491 0.02931049008)
(1779.07988 4.721624625 13.88752849)
(1932.789588 -0.4502830256 -1.098823858)
(1925.332797 0.6094946334 -0.4661014778)
(1914.723641 1.64092015 0.5464756669)
(1888.74439 3.435183372 0.7696705006)
(1780.373779 7.165849452 13.50333308)
(1931.481849 0.7060117097 -0.1223828752)
(1926.634553 1.714656009 -0.1802564151)
(1917.515023 1.618706621 0.2044759741)
(1890.467551 3.305027485 1.606110425)
(1797.320684 5.160195752 12.9660362)
(1931.660716 1.763268839 -1.534130866)
(1926.136385 1.032361336 -1.725436954)
(1915.23287 0.3997874218 -0.1927848814)
(1892.31479 2.745084763 1.681614564)
(1795.767762 3.264808022 14.54986345)
(1933.183133 1.07006908 -1.250297622)
(1929.208174 1.881299819 -1.244031025)
(1921.424372 3.017473641 -1.081050886)
(1895.99656 4.725081043 1.943887884)
(1797.313166 6.35200225 15.44961791)
(1932.620009 0.9685231563 -2.234654186)
(1928.77244 1.510463637 -1.315208487)
(1921.844852 3.079749438 -0.7010148512)
(1897.769447 3.497742111 0.7695733037)
(1802.810534 5.376234844 12.56466784)
(1933.661141 0.9437278645 0.08726243312)
(1930.613291 1.011001859 0.4338399822)
(1919.731066 1.889079801 1.187194893)
(1899.530002 3.190717788 2.055538254)
(1808.529093 4.82700495 12.37886793)
(1933.920606 -1.101870812 1.29775336)
(1930.890511 -0.06886847093 1.176357941)
(1924.399222 0.6643235365 0.9781928312)
(1903.749283 2.903224168 1.409137744)
(1813.184656 6.564864506 11.049287)
(1936.156977 -0.4376320681 0.6679593509)
(1933.25228 0.4327513336 -0.1310928526)
(1926.477137 2.737011564 -0.5689252833)
(1910.91873 4.447792592 -0.2787760847)
(1831.172452 9.517951717 9.636862986)
(1935.084572 1.846532443 0.1737353425)
(1932.368648 3.243516938 1.118852613)
(1927.943238 3.454728096 1.354828538)
(1916.547709 5.051686732 2.155735053)
(1856.346109 12.89483934 8.622995259)
(1927.724627 0.2115834379 2.196675686)
(1913.170045 0.2787620908 2.171213075)
(1884.889343 -0.06414443576 3.479543857)
(1811.743203 1.479177989 9.697766467)
(1620.644013 16.28639357 28.5749363)
(1929.244301 -0.4989093459 1.289305346)
(1913.735951 0.434053744 1.874053325)
(1882.994617 2.98055488 2.060776297)
(1818.817707 9.17198806 7.315768739)
(1669.211526 26.39122558 27.51902241)
(1927.567149 1.114792445 -0.03172416055)
(1913.197417 1.887508193 1.112821728)
(1885.412951 4.540738686 3.654691372)
(1829.565931 8.569821452 6.226126519)
(1716.412393 23.15814757 22.65022935)
(1928.966552 -1.604043985 2.492770066)
(1914.905959 0.4231350346 2.201520708)
(1893.909825 5.239663613 2.449808604)
(1842.622319 10.68981314 6.969349251)
(1747.360761 21.97536111 25.27258309)
(1928.116803 2.85705509 -1.519456857)
(1916.526823 3.579349121 -0.6765814609)
(1895.059558 5.16915704 0.591934548)
(1856.871543 7.807463045 5.235039822)
(1768.897768 18.44522393 22.29490943)
(1929.126113 1.68206337 -1.664090539)
(1917.980234 2.827404391 -0.2579554456)
(1900.237142 4.361413954 0.9580452634)
(1866.413667 7.496203493 5.238838534)
(1790.557965 12.56410274 22.11329751)
(1929.757339 3.088497664 -1.825362836)
(1921.883977 3.28200255 -1.04286823)
(1905.165985 4.760314707 0.9627845366)
(1870.176604 6.156826884 4.046744216)
(1803.226469 10.0221047 20.78529228)
(1929.001707 -1.520259177 -1.408375456)
(1921.662531 1.209778994 -0.3115257851)
(1908.562389 3.760664796 1.571279325)
(1876.916299 6.777546924 3.928450564)
(1811.465498 7.945598692 21.38994178)
(1931.621048 -1.598476519 1.948268324)
(1924.066373 0.09409326291 0.5629190276)
(1911.179925 0.5444988677 1.618830579)
(1881.855978 2.51382161 5.401001057)
(1814.853052 5.256578627 19.19143158)
(1933.853565 -0.006107451008 -1.511559)
(1926.606014 0.7621981415 -1.572281418)
(1914.310812 0.9585369997 0.9689728963)
(1884.585843 1.449961705 4.6670003)
(1823.593401 5.422774052 18.73348044)
(1932.836244 -0.5995546648 0.179441115)
(1926.828455 0.6204010837 0.2935071418)
(1913.94186 1.417324549 2.393517116)
(1888.718185 4.056354171 5.223550199)
(1828.605798 5.852993931 19.47781989)
(1932.390668 1.19649356 1.289154869)
(1925.041438 1.442598976 1.753052873)
(1913.01569 1.420436472 1.490541572)
(1890.139658 2.366176871 3.880460476)
(1824.813803 1.990628108 19.79679544)
(1932.521308 -0.1238282109 0.2198870154)
(1927.859128 -0.2817389539 -1.082284083)
(1918.53567 0.1695185042 0.07504766422)
(1889.669648 2.296546312 3.319672834)
(1826.084974 3.928711302 18.72705589)
(1932.50586 1.818875811 -1.103802759)
(1928.985175 1.88538293 -0.8208635629)
(1917.965183 1.352239098 1.96753723)
(1892.642567 2.845556401 6.054840276)
(1831.435644 5.639429609 19.23606725)
(1932.744127 -0.2187138115 0.5580467499)
(1930.406255 -1.026935043 0.883796121)
(1919.087936 -1.029935782 2.199846796)
(1895.886562 2.090810643 5.388192449)
(1835.81571 5.817399011 20.38844473)
(1933.21381 -0.03104072741 0.2169111516)
(1929.832864 0.2496571236 1.083089264)
(1922.392618 1.367907338 1.663071721)
(1900.589233 2.221048176 4.017523842)
(1850.092975 6.396771075 16.60434808)
(1932.791477 -0.2143615832 0.190541996)
(1930.067339 1.04370349 0.4689002311)
(1922.894663 2.711400517 0.4481915055)
(1910.801345 3.826247053 2.202018269)
(1859.976873 9.39458755 14.6970333)
(1935.885654 0.3163453143 -0.7993796602)
(1934.77537 2.3626795 -1.113139339)
(1930.761454 3.523499116 -0.5796217898)
(1916.589303 7.689598607 2.716394752)
(1880.279186 13.63679882 11.91638677)
(1925.939904 -0.2579311346 -0.009945482943)
(1915.983644 -0.3584029317 1.996694173)
(1893.233507 1.037539536 4.517677512)
(1830.803267 3.440400215 12.04076927)
(1673.287567 15.84569353 23.6688299)
(1927.364834 1.118915923 -1.009769958)
(1915.522354 1.76923223 -0.8161084636)
(1887.160252 2.81837444 3.665024626)
(1833.156892 7.128792347 8.915840036)
(1716.177599 25.25983493 22.73291504)
(1926.455198 -0.2259253587 0.8482519987)
(1913.937694 -0.5504562611 2.127959959)
(1889.60435 2.69006802 2.983537262)
(1843.041063 10.09399117 10.63225345)
(1760.674531 25.77602424 23.52328568)
(1925.803936 0.3626135126 -0.9910027793)
(1916.759038 1.618403995 1.437979068)
(1895.528263 5.134213515 4.899754608)
(1858.330547 10.16287922 10.87461696)
(1789.622856 20.71119828 23.07137998)
(1927.273657 2.447995525 -0.4379302581)
(1919.294263 3.070104966 0.3396205396)
(1898.047527 6.540605746 3.864939205)
(1866.73616 10.77556476 8.550840764)
(1810.16107 19.73063746 21.10081275)
(1925.364998 1.756492492 1.113093205)
(1916.528286 2.338487856 1.196380013)
(1900.50872 3.815009279 3.323674729)
(1870.493087 8.028826896 8.790817959)
(1823.744406 12.4989365 22.62815006)
(1928.622207 1.56880181 0.8869076565)
(1921.166621 3.36119543 0.8905357951)
(1904.671266 5.703128269 2.754841169)
(1880.619389 8.482938731 5.175741713)
(1839.037135 11.48254031 16.88956151)
(1928.133975 2.09507403 1.507151622)
(1919.655437 1.472809245 2.190644626)
(1907.375152 1.537538317 4.251737793)
(1885.963947 5.0572973 9.634640902)
(1840.767047 9.717018656 20.47804139)
(1929.229043 0.3286138537 0.1733934805)
(1924.253264 0.701392509 1.485648843)
(1914.537992 0.9694326214 3.46724165)
(1893.545567 2.927464836 6.278196648)
(1853.832585 6.991927492 18.00724422)
(1930.895633 -0.6375708643 0.1894796201)
(1924.255861 -0.8031255749 0.2579029579)
(1914.453602 0.9658031709 2.017456082)
(1897.116798 1.850954195 6.877638584)
(1857.954264 4.5831148 17.91362244)
(1930.47438 1.746177423 1.047261229)
(1924.755244 2.498536194 1.357954091)
(1915.814537 2.168872443 3.241427163)
(1894.981485 3.860623455 7.34985564)
(1860.205596 4.454338109 17.50432651)
(1931.837263 1.091715759 0.05407790108)
(1926.126711 0.8364679995 0.615953031)
(1918.647389 1.299783244 2.977340547)
(1900.175121 2.479369894 8.340535304)
(1862.551643 2.578741908 15.81158445)
(1931.986432 -0.7254564644 0.3840104479)
(1927.929296 -0.1194136918 1.539106139)
(1918.749207 0.5711299874 2.801264418)
(1899.103352 2.486739283 6.390428802)
(1868.305256 3.1481894 16.58965464)
(1934.353969 -0.8122546568 0.6637633476)
(1929.719326 -1.095603893 -0.6252579151)
(1920.105074 1.643663704 2.355618566)
(1900.253195 2.827011453 5.834470235)
(1870.575781 6.144029301 14.74387833)
(1933.030506 -0.6867725818 0.04260170468)
(1929.513197 -0.3415947788 0.5673946823)
(1919.120343 0.146700819 2.476063667)
(1901.399209 1.245108954 6.708384924)
(1872.333205 5.570638806 16.0601157)
(1932.590592 0.03473075656 -0.5324227829)
(1929.001147 0.02923813536 0.4054544149)
(1921.215933 1.646651803 1.981921335)
(1907.775311 2.609921923 6.689789114)
(1878.603531 6.359302007 15.76153571)
(1934.390053 0.9618123616 -1.289478815)
(1932.32786 0.1177342569 -0.4268180092)
(1924.966303 1.609136252 1.132287536)
(1909.321341 3.199788787 4.238770639)
(1884.146445 6.882083547 14.00521812)
(1934.683192 0.8248920843 0.4911218346)
(1932.47971 0.1770134476 0.6896266264)
(1928.117586 1.276460966 1.197367238)
(1917.020152 4.2828463 3.33479272)
(1899.812921 9.413297587 8.909828289)
(1928.966921 0.9174717312 -0.6334577745)
(1914.860755 2.125534338 2.055088667)
(1890.951085 2.358345401 7.051633069)
(1848.745513 2.365049132 12.53146251)
(1720.482416 15.38607913 21.42297715)
(1929.697996 -0.9922068426 -0.102466471)
(1916.82464 -0.741447118 -0.03644031675)
(1896.048892 2.293381393 2.9656013)
(1844.733965 8.685487588 6.511064629)
(1754.18177 24.20642142 19.64744312)
(1928.307108 1.463958459 -0.2629772649)
(1917.877314 3.485170707 1.452453524)
(1899.424977 4.348287766 2.611210035)
(1859.277505 8.392416355 8.388868674)
(1795.934026 21.82023802 19.42300022)
(1927.730543 -0.1551515399 0.2040577846)
(1917.456291 1.067882074 0.3973973834)
(1902.560681 2.939041934 1.993853083)
(1868.627957 7.753175758 7.68472234)
(1825.021834 18.66007857 18.04389173)
(1927.595612 1.205372625 1.560295871)
(1919.269676 2.515643969 2.741290499)
(1903.618869 5.498956188 4.534854792)
(1878.814252 8.95810289 9.306951967)
(1839.54477 15.90576337 20.39465741)
(1928.623287 0.7295743973 1.804771198)
(1920.604944 1.354627201 1.990483476)
(1906.57848 5.156532678 4.959612753)
(1886.618593 6.959691172 9.287058247)
(1853.18379 13.6702304 17.62141313)
(1929.162178 -0.1512054944 1.732096321)
(1923.7222 0.9978147191 2.549005696)
(1913.706786 3.187624282 5.114655725)
(1893.40913 5.750131138 9.553486183)
(1862.623782 10.19305499 17.00875077)
(1932.34914 0.2216498991 1.315361436)
(1928.133103 0.2575989312 2.199065602)
(1915.785356 2.036390132 3.983150883)
(1898.587343 4.947721013 9.160825933)
(1869.212287 7.605274336 16.21822588)
(1932.116733 -2.056132562 1.946733437)
(1927.226226 0.7665227021 2.675690454)
(1917.219459 2.342564951 3.431800792)
(1901.999452 4.877852139 6.243699285)
(1875.759944 7.647178201 14.55757791)
(1929.536009 -1.995020239 -0.9390719457)
(1924.731384 -1.717536818 -0.2606475937)
(1915.45291 -0.3328406533 2.74440017)
(1903.099521 2.952729438 7.845227739)
(1879.051999 6.385491427 15.13730556)
(1932.099547 0.8717740851 2.749193355)
(1927.114942 1.527788129 3.440269862)
(1921.267929 1.195187909 4.058799481)
(1902.836102 1.023604022 8.217913768)
(1883.770932 4.342927083 12.85080539)
(1930.963719 -0.6296198868 1.057069668)
(1926.567792 -0.2865959427 1.996389941)
(1919.555265 0.8820796525 2.799362655)
(1905.895801 3.290894208 5.905541425)
(1883.752946 4.750341793 13.32669027)
(1932.339957 -1.435776468 -0.5312968605)
(1928.108966 -1.099229388 -0.01358549717)
(1921.28929 0.5765187091 1.359878328)
(1910.642971 2.6148369 5.534294989)
(1890.382458 4.958452313 14.33572475)
(1932.206061 0.117563404 -1.675512719)
(1929.073423 1.013651563 -0.5331323107)
(1922.225323 0.4907400916 2.2212604)
(1909.199193 1.897967955 5.961431101)
(1890.421949 3.089881894 12.96635459)
(1933.146368 -1.144479015 -0.3297920668)
(1929.675491 0.2529384034 2.24511678)
(1922.277601 1.730568252 2.745876013)
(1912.535655 1.198773482 5.659750008)
(1895.072989 3.887979781 11.72256207)
(1934.604603 0.03447500329 2.088197656)
(1930.552107 0.6768725425 2.222648275)
(1926.301236 2.641029325 4.509808758)
(1918.197424 3.265018383 5.556763949)
(1900.401519 5.31313551 11.0922922)
(1933.975527 -0.7603720468 0.04895755564)
(1931.94212 0.2174912194 -0.01515346178)
(1926.584711 1.587341368 1.366950044)
(1918.63418 4.932619125 3.642418744)
(1901.953371 6.76222022 9.294344635)
(1935.097255 0.9580970809 0.5812951125)
(1933.496198 1.097293554 -0.1617731965)
(1929.788634 0.9104190957 0.7334164176)
(1924.222566 3.248493406 3.388579692)
(1913.316585 7.808361635 7.271489509)
(1927.252774 -0.1984831411 -0.6064379021)
(1915.189831 0.1144098713 -0.4489619901)
(1897.835136 0.3127765412 3.351055791)
(1858.958826 1.74606667 10.35687276)
(1738.741722 15.33547466 14.99408454)
(1926.430939 0.02057385719 1.734870453)
(1913.762255 0.6513652797 3.348072145)
(1897.4283 2.122870609 5.167969586)
(1858.23613 6.289046928 7.889981511)
(1772.232379 24.06445475 17.6826526)
(1927.872506 -0.6607598644 -1.19583685)
(1918.601521 2.335863907 0.1939629763)
(1901.995561 3.52025295 4.245333036)
(1870.573445 8.497094615 9.863672463)
(1813.880494 20.78592254 17.21516947)
(1929.687791 1.263269456 -2.368715134)
(1920.330531 1.755782275 0.4589541476)
(1907.190624 4.157880493 2.135020895)
(1884.318466 9.437276558 7.760550316)
(1840.194819 17.30549402 17.26004932)
(1927.437343 1.619316542 2.915376391)
(1920.450538 2.126790741 4.582290995)
(1908.757383 2.7172996 6.550833445)
(1886.603545 5.986441779 8.978999568)
(1854.621818 12.93260261 14.68209928)
(1928.864913 -0.9507467273 -0.303538862)
(1922.377833 2.158700322 0.8770701679)
(1914.528005 4.28214855 3.307476273)
(1898.127963 6.951526114 6.286900176)
(1868.350353 15.54747828 13.59260903)
(1931.769973 0.3583302755 0.2981743532)
(1926.141526 2.052094968 1.273756729)
(1918.704085 2.542830723 4.662880408)
(1903.679233 5.450341776 8.288609869)
(1882.159242 11.30283961 14.19089059)
(1932.123253 0.03730943424 1.281620424)
(1925.712171 0.8128463049 1.060840955)
(1916.738513 2.130847085 2.557580533)
(1904.974258 4.040071035 5.982925813)
(1886.195308 7.733693031 12.74823932)
(1931.401673 1.824470121 -2.159160841)
(1924.224574 0.6590030704 -0.1900945233)
(1917.4095 1.689630571 3.040153331)
(1907.159782 2.372560939 6.204673974)
(1888.036671 6.423161007 12.37523892)
(1933.271336 0.4691478171 -0.009955361697)
(1929.886857 1.404236619 0.09384183855)
(1921.165978 2.309688875 3.112310558)
(1915.053154 2.444270194 4.862232462)
(1897.449641 5.293055753 11.31690926)
(1933.353824 -0.7776385271 -2.194677661)
(1929.396623 -0.203425373 -0.3059913086)
(1923.54342 1.232334755 2.087362756)
(1910.565729 2.720916855 4.139319994)
(1894.964524 3.663064827 10.9679462)
(1931.580812 -0.458394878 2.670215786)
(1930.721256 -0.138024661 3.46290587)
(1926.221532 -0.4961781225 4.004255978)
(1915.279776 -0.7251366585 6.176277304)
(1902.266134 1.097324137 11.74635899)
(1933.585543 0.04431246637 0.5687592116)
(1929.974777 1.441823345 0.2269426485)
(1924.38264 0.7532514892 1.337558541)
(1918.140361 1.017286257 3.705000915)
(1900.264358 2.620021256 10.20313891)
(1933.639598 0.8802580699 1.024194339)
(1930.05674 0.43841477 0.941820692)
(1926.502972 0.176976587 2.149619175)
(1917.964188 1.713383189 5.242204736)
(1905.700372 3.215134134 9.283919363)
(1933.831396 -0.9318775065 -0.7185743717)
(1931.629113 0.2056673792 -0.9503836677)
(1927.519487 0.9536581588 0.5646487257)
(1918.550472 2.279033963 4.798072661)
(1908.675856 4.070117278 10.55258385)
(1935.383467 0.4847349483 1.821993752)
(1932.994643 0.4421595713 2.729503232)
(1929.936267 1.155696891 3.12860995)
(1922.067135 2.267586171 5.440383088)
(1914.410188 5.479256486 7.769900206)
(1932.90262 2.19812781 0.8379773217)
(1930.728689 1.520359525 2.087700163)
(1927.554525 1.662700147 1.769870424)
(1920.894636 2.601095069 4.742183129)
(1912.200016 4.662645979 6.69335181)
(1935.657706 1.811816114 0.5376453617)
(1934.045283 1.961122651 0.2037963657)
(1929.295997 2.313591527 0.9375397081)
(1924.544014 4.607071348 0.8274137155)
(1917.928194 6.225910196 5.393390254)
(1926.563641 1.002394403 1.311273252)
(1915.78671 1.825599757 3.391237385)
(1900.869875 0.4314702309 4.284504313)
(1865.57108 1.606174264 8.151991641)
(1753.213981 12.64976279 12.88665013)
(1926.289923 0.1134566045 1.632826536)
(1917.735277 0.5249657592 1.294716686)
(1903.445932 2.067175309 3.721873826)
(1864.895213 5.281486069 8.121098873)
(1784.728299 20.99343768 12.28191366)
(1930.993395 0.08109568051 0.7714744848)
(1919.671955 1.151289195 2.22449659)
(1904.442144 2.13803876 5.071098497)
(1876.733691 8.497040405 7.034479554)
(1826.654235 20.65284161 12.32680211)
(1930.44606 1.84954929 2.344214194)
(1921.769689 2.678356423 3.336142828)
(1908.262336 3.795851785 5.414815276)
(1886.594096 8.149649423 7.972650463)
(1853.635599 16.00570063 12.71920364)
(1925.8921 2.709124208 1.98232509)
(1919.58983 3.52111678 2.220235357)
(1912.810567 4.818384873 3.904978517)
(1894.335276 6.709185567 7.096784598)
(1864.178352 14.01145655 12.60195628)
(1931.980987 1.365400143 -0.2400097348)
(1926.954469 2.632063729 0.9850812126)
(1916.792708 4.863918198 1.542523621)
(1901.297138 7.822522049 5.276318444)
(1879.743311 12.79851723 11.30449653)
(1933.473949 0.05686906015 -0.4833658232)
(1927.151763 0.3633116641 -0.1674180633)
(1918.673745 1.947725892 0.229506092)
(1910.447358 4.461097999 3.439725985)
(1891.734146 6.878387707 9.417078183)
(1930.991068 -1.149582779 0.07362681123)
(1927.269469 -0.3192545448 1.814371333)
(1921.370207 1.6221212 2.923287364)
(1911.831563 4.247408418 4.171239403)
(1897.873037 7.392435695 8.988969399)
(1932.679994 -1.204353856 -0.98621494)
(1926.548156 -0.6900122234 0.4860417481)
(1925.255253 -0.1073959673 1.107432187)
(1913.383696 2.123695635 5.771601108)
(1901.070891 4.934661743 11.30141459)
(1930.968602 1.315346726 1.024400235)
(1926.885399 0.7743520219 1.411440643)
(1922.529784 1.521054835 1.011658518)
(1915.095946 2.563488392 2.982238263)
(1905.239906 4.525314274 9.126174671)
(1933.974635 1.09848095 0.5639169093)
(1929.500311 2.73196996 1.538488564)
(1925.844326 2.204009486 1.113847034)
(1917.754348 3.252757669 4.453655383)
(1910.940682 4.565142265 8.258752846)
(1932.794309 0.2458307144 -0.3664474167)
(1929.612323 0.07669357006 1.48111936)
(1925.479566 1.977274849 4.173871283)
(1920.659892 2.394775267 6.636519873)
(1910.934896 3.332578102 9.78479067)
(1934.843118 0.2716144544 -0.4166138739)
(1933.449132 -0.3201070761 0.8167624115)
(1929.724237 -0.03832104383 1.384732953)
(1923.582887 1.810704636 3.644826154)
(1914.316615 4.308011855 7.346311585)
(1932.120444 0.8111820629 1.716976035)
(1929.421574 1.847059695 2.759302732)
(1926.88098 2.569611949 3.179096265)
(1924.28407 3.448754764 3.493380748)
(1915.696772 3.605432345 6.472484372)
(1933.703839 1.882134345 -0.1608805926)
(1932.73176 1.606916589 -0.452848379)
(1929.612669 1.336519317 0.63929149)
(1924.442508 2.512476464 3.070727911)
(1917.835458 4.071396657 7.371736707)
(1933.536718 -0.9740450193 -1.433587488)
(1931.668854 1.168366875 -1.649949264)
(1930.019311 1.842494014 -1.045364143)
(1925.401064 2.569675425 1.915620918)
(1920.207254 3.185806695 4.901941261)
(1933.010609 0.2107929152 -1.170512375)
(1931.339294 0.3456841242 -0.9385318573)
(1929.701793 1.156478238 0.8455734551)
(1927.207136 2.38543173 2.613323872)
(1923.271385 2.039624844 6.995641495)
(1935.701565 -0.875371556 0.5165511751)
(1935.685636 0.5379651667 1.3059091)
(1933.482946 1.814421552 1.914293597)
(1931.922837 2.851034261 2.83749164)
(1925.802557 5.075239567 4.150002805)
(1929.649086 0.8362007309 3.003374884)
(1922.076454 0.1442319147 3.364749001)
(1906.390395 0.09251026545 4.588076461)
(1877.384163 1.007864501 6.306132782)
(1766.914849 14.88706931 11.16081323)
(1927.597104 -0.9415621591 1.273007237)
(1919.466167 0.6373511925 0.8841794597)
(1907.894739 0.3995183801 2.803204945)
(1874.552737 5.348850686 6.270446503)
(1804.337118 21.79483618 10.57386592)
(1929.83417 -0.9905236965 0.8588875129)
(1922.665656 0.2201116606 1.037246922)
(1910.629277 1.764561752 4.152103229)
(1884.540048 5.72463551 7.170303605)
(1840.24057 17.31506492 10.68017465)
(1932.417039 0.6483820841 -2.188099962)
(1924.590361 1.661049946 -0.7537731324)
(1911.279668 3.355120215 2.031077174)
(1891.41999 7.099382491 4.840859455)
(1862.36973 14.93688849 8.857494738)
(1930.59926 -0.3451966452 0.975289241)
(1925.372654 -0.2974651007 2.557540095)
(1914.36179 2.613934552 3.858310043)
(1901.531318 6.381916632 6.966927681)
(1879.866805 13.75910511 11.11243593)
(1929.069101 1.077697956 2.696678936)
(1923.336622 1.970644186 2.852430362)
(1916.503944 3.94681689 4.465989154)
(1906.594717 5.766709392 5.586727112)
(1891.811133 11.506203 8.655486216)
(1931.508348 0.6397621559 0.6452458823)
(1926.053484 1.658183508 1.886983916)
(1920.390118 2.849368757 2.894462883)
(1910.508076 5.850466567 3.951697359)
(1896.242436 8.405637924 8.878881886)
(1930.365041 2.413578427 -1.239991684)
(1926.266147 3.373151928 0.5099502477)
(1922.750465 3.583488284 1.588727062)
(1915.617211 4.800900642 3.684124435)
(1906.746517 7.160451077 5.794705402)
(1932.273521 1.030377724 1.944752557)
(1929.201577 0.686696281 3.089139512)
(1925.687979 1.91855045 2.620239702)
(1917.606385 3.62185985 4.269118873)
(1910.884834 4.617091847 8.421906049)
(1931.679476 -0.6137573543 -0.682168912)
(1928.900327 -0.1985330958 -0.4660463868)
(1925.601255 0.1165752865 1.276773678)
(1920.547216 0.8936347681 3.263335169)
(1911.766874 3.320902136 5.973049012)
(1931.806511 -1.229526854 0.5633842622)
(1930.810895 -0.4881219927 0.4472443523)
(1928.370695 0.9390320817 1.260518738)
(1921.884664 2.226796975 3.693453013)
(1918.689817 3.238570902 6.304972297)
(1932.454847 -0.2056478426 1.828375124)
(1932.654681 0.8665976876 2.232392031)
(1927.428331 0.03976567919 2.199424512)
(1923.023321 1.034252981 3.35239393)
(1919.266535 1.945668537 5.996519026)
(1931.893576 -0.04542374007 0.4796402265)
(1931.184332 -0.1432272957 0.4334004397)
(1930.023542 1.784168419 1.025266997)
(1925.629277 2.222401966 2.561295646)
(1919.696932 2.667307991 4.619040736)
(1933.672078 1.909888566 1.196951695)
(1932.506127 2.829806361 0.7552901362)
(1930.520912 1.948347748 1.882688775)
(1927.288283 4.111845572 2.176144273)
(1921.613719 5.94097521 6.181492812)
(1934.560605 1.966772216 0.5963383638)
(1933.301476 1.564418484 1.98271546)
(1930.066173 2.475358621 3.28694937)
(1929.044442 3.719484057 4.048240962)
(1923.937626 4.270438681 4.704743396)
(1936.334034 1.554005301 -0.353312004)
(1933.942124 1.398599204 0.7452711545)
(1931.723824 1.476416525 0.9245541077)
(1929.61566 1.386085151 2.080715302)
(1923.198552 2.654806435 4.897524926)
(1934.273327 0.4157057955 0.6839478335)
(1932.809727 0.4657562534 1.273754525)
(1930.700715 0.3863504356 2.021430312)
(1929.241484 1.541678651 2.620935522)
(1926.787422 2.665098518 3.88324283)
(1936.429796 1.031915569 1.282165868)
(1935.374595 1.737264557 1.03621348)
(1934.132812 1.395360632 2.099317463)
(1931.537959 0.9712151877 2.688195354)
(1928.300894 2.173732613 5.065729008)
(1929.68565 1.4232471 1.5693675)
(1923.509139 0.6200876811 2.359579607)
(1911.711406 0.8925975948 4.056468695)
(1882.704065 -1.120588101 7.518497586)
(1775.765851 12.98962573 10.85390875)
(1930.420953 0.6327335342 0.8064628043)
(1924.973564 0.8089811913 0.7418495993)
(1912.526304 2.342193443 4.020506789)
(1877.673181 6.240680717 6.348151499)
(1806.946588 22.1053785 10.02479784)
(1929.922964 2.55569332 1.143002568)
(1922.073762 2.280385897 1.395360133)
(1911.578856 4.24360918 2.451738366)
(1886.115079 8.623085025 4.249046595)
(1845.531087 18.64968749 8.289924624)
(1930.815068 1.674420174 0.111920946)
(1923.858224 1.592047497 1.742295092)
(1912.303688 4.717550447 2.06609546)
(1897.124997 9.1831605 4.814022912)
(1868.668118 16.68618645 8.604758666)
(1930.755812 -0.6538891148 1.214470147)
(1927.713137 0.002997159173 0.9430511243)
(1914.443254 2.429181491 3.59759717)
(1905.364188 4.868400912 5.220230838)
(1883.707254 12.16028946 8.654137713)
(1930.798512 0.2649386107 2.860262538)
(1926.704912 0.3850578143 4.02520826)
(1922.159501 2.12802155 3.408744712)
(1912.547887 5.006810139 5.643142806)
(1895.726135 11.42828331 7.721127565)
(1931.106955 2.765628879 -0.8324352009)
(1927.825888 3.044077078 -0.2042814998)
(1922.59913 4.540420385 2.366234717)
(1915.36431 6.663106015 4.523024339)
(1904.119146 9.509653099 6.563116653)
(1933.328758 -1.620406542 1.679187537)
(1931.418702 0.1247749876 1.791980355)
(1928.242321 1.786995147 2.632837296)
(1920.3793 4.26984173 3.941010853)
(1909.590535 5.732076742 6.867395969)
(1932.953738 0.3447967635 0.3592055062)
(1930.13026 -0.1210795158 0.5477403203)
(1927.699133 0.6117884087 3.045311254)
(1921.751872 3.619781321 4.933387168)
(1914.101976 5.229594253 7.336724586)
(1932.456348 0.4998012669 0.4271959413)
(1931.895844 1.602162933 0.009116656026)
(1929.861437 1.483231837 1.805627946)
(1924.321566 3.063382617 3.668653297)
(1917.448368 4.154027842 5.729567906)
(1935.820867 2.107485947 1.611086787)
(1932.028412 2.209869269 2.100666807)
(1929.043263 1.891525783 3.045668136)
(1924.421217 1.68318298 3.356167123)
(1920.333653 4.04681163 4.954097154)
(1934.665594 0.1469869293 -0.2908804175)
(1932.20769 -0.1188196037 0.5461636349)
(1930.214877 1.199478744 1.305132245)
(1926.309803 3.136807149 3.996299354)
(1921.628349 5.463757106 5.095817944)
(1935.329387 0.4407623258 -0.317476361)
(1933.89191 1.304086182 0.09861474463)
(1930.518585 1.908740517 0.9923089942)
(1925.490736 3.165095201 3.055764615)
(1922.287982 4.22489105 4.365447014)
(1932.519082 2.296247264 0.8797684466)
(1932.372986 2.255131991 0.2350646388)
(1931.824859 2.437186278 0.7841901556)
(1929.637807 3.053686197 2.810825304)
(1927.220038 3.461721845 5.13303249)
(1936.119172 1.561649779 0.8259855926)
(1934.87643 0.9353241736 1.66938103)
(1932.825033 1.560117877 2.995928897)
(1930.596912 1.920667481 4.458331549)
(1927.5541 1.942343267 4.615537877)
(1934.020624 -0.8010625554 1.334866819)
(1932.81996 -0.04819862315 0.683082951)
(1933.805693 0.4847215678 -0.2256694373)
(1930.381576 3.63413702 0.7791246725)
(1928.583004 4.024261636 3.427828114)
(1933.347441 1.209012176 0.8273625759)
(1933.106588 1.838621548 0.02295522045)
(1932.06826 2.60542994 0.2419148627)
(1930.99924 2.168948353 1.923257525)
(1929.043568 3.869391432 1.896322931)
(1935.38408 0.3023200688 2.181771455)
(1933.774373 -0.7964841657 4.083610664)
(1932.589777 -0.2937447868 4.149818647)
(1932.344541 0.5284542549 4.91734321)
(1931.493497 0.7918994569 5.160758662)
(1932.105871 1.620192572 0.6918413801)
(1926.813677 1.740081059 1.087522599)
(1913.863772 0.5139946195 2.124837841)
(1885.273289 1.812230013 3.047468645)
(1781.11356 15.08753304 4.054548323)
(1931.262451 1.553231374 -0.1727178789)
(1924.673472 3.02910579 0.1843239145)
(1911.855757 3.804266973 1.133696983)
(1883.920702 9.202017394 3.981479855)
(1814.062345 23.80741896 8.97248389)
(1931.505504 -0.2201016783 0.956228858)
(1924.047485 0.4578334671 3.463995155)
(1913.895733 2.573024417 2.860657223)
(1888.897695 8.389828041 5.055080466)
(1856.631409 18.13464518 6.155248685)
(1931.597392 0.09960309852 -0.1891717654)
(1926.107523 1.026692225 1.100609866)
(1915.967341 3.435994812 1.666909115)
(1900.522338 8.558934616 1.664960383)
(1874.418119 15.70625314 5.971179717)
(1931.760601 -0.6414388279 0.8887551267)
(1928.307133 1.325288163 2.507675798)
(1921.785446 3.325596988 2.761997851)
(1909.144222 5.540165362 4.771848519)
(1893.276919 11.95027686 6.095270518)
(1933.331809 0.08894277732 2.070216371)
(1930.214865 -0.6633280732 2.517507428)
(1926.3318 1.173409669 2.830972099)
(1917.145601 5.527389189 5.502100221)
(1904.286393 8.681852605 7.076142031)
(1935.36652 0.1837025996 -0.670514952)
(1930.841557 0.04806356778 -0.1383297008)
(1926.088699 1.105845642 1.203656357)
(1918.98091 3.211826582 2.519624756)
(1911.248071 5.879471075 5.891600998)
(1932.053542 -2.309216315 0.6684657288)