# Cp ()          
# Time           	patch            	min              	max              	average          
0.003            	object	8.8472784646e-02	1.8753570124e+00	1.3272240382e+00
