# Probe 0 (5e-06 5e-06 5e-06)
#           Probe                 0
#            Time
            1e-08   1.397225049e-08
            2e-08   1.398036888e-08
            3e-08   1.398648492e-08
            4e-08   1.398890205e-08
            5e-08   1.399017806e-08
            6e-08   1.399747218e-08
            7e-08   1.400756646e-08
            8e-08    1.40101259e-08
            9e-08   1.401185779e-08
            1e-07    1.40164576e-08
          1.1e-07   1.402145856e-08
          1.2e-07   1.402383113e-08
          1.3e-07   1.402222847e-08
          1.4e-07   1.402424778e-08
          1.5e-07   1.402767511e-08
          1.6e-07   1.403038777e-08
          1.7e-07   1.403158742e-08
          1.8e-07   1.403470856e-08
          1.9e-07    1.40385886e-08
            2e-07   1.404693868e-08
          2.1e-07   1.404849575e-08
          2.2e-07   1.405067273e-08
          2.3e-07   1.405098068e-08
          2.4e-07   1.405216505e-08
          2.5e-07   1.405402205e-08
          2.6e-07   1.405873601e-08
          2.7e-07   1.406164299e-08
          2.8e-07   1.406681873e-08
          2.9e-07    1.40709559e-08
            3e-07   1.407507389e-08
          3.1e-07   1.407624457e-08
          3.2e-07   1.407790095e-08
          3.3e-07   1.408380985e-08
          3.4e-07   1.408461858e-08
          3.5e-07   1.408829184e-08
          3.6e-07     1.4088303e-08
          3.7e-07   1.409077497e-08
          3.8e-07   1.409474959e-08
          3.9e-07   1.410132658e-08
            4e-07    1.41020275e-08
          4.1e-07   1.410782819e-08
          4.2e-07   1.410841327e-08
          4.3e-07   1.411327123e-08
          4.4e-07   1.411538533e-08
          4.5e-07   1.411648635e-08
          4.6e-07   1.411564437e-08
          4.7e-07   1.411851396e-08
          4.8e-07   1.412175167e-08
          4.9e-07   1.412370493e-08
            5e-07   1.412712002e-08
          5.1e-07   1.412787728e-08
          5.2e-07    1.41331333e-08
          5.3e-07    1.41375886e-08
          5.4e-07    1.41378139e-08
          5.5e-07   1.414024401e-08
          5.6e-07   1.414569771e-08
          5.7e-07   1.415197282e-08
          5.8e-07   1.415041766e-08
          5.9e-07   1.414992064e-08
            6e-07   1.415258158e-08
          6.1e-07   1.416099024e-08
          6.2e-07    1.41629061e-08
          6.3e-07   1.416524227e-08
          6.4e-07   1.416469609e-08
          6.5e-07   1.417063662e-08
          6.6e-07   1.417217484e-08
          6.7e-07   1.417813711e-08
          6.8e-07   1.417950842e-08
          6.9e-07   1.418410234e-08
            7e-07   1.418662995e-08
          7.1e-07   1.418944645e-08
          7.2e-07   1.419302241e-08
          7.3e-07   1.419612061e-08
          7.4e-07   1.419564218e-08
          7.5e-07   1.419082064e-08
          7.6e-07   1.419263844e-08
          7.7e-07   1.419420825e-08
          7.8e-07   1.419642298e-08
          7.9e-07   1.419894007e-08
            8e-07   1.420140167e-08
          8.1e-07    1.42053666e-08
          8.2e-07   1.420667007e-08
          8.3e-07   1.421194209e-08
          8.4e-07    1.42139962e-08
          8.5e-07   1.421468248e-08
          8.6e-07    1.42188918e-08
          8.7e-07   1.421903334e-08
          8.8e-07   1.421918238e-08
          8.9e-07   1.422267144e-08
            9e-07   1.422361649e-08
          9.1e-07   1.423209393e-08
          9.2e-07   1.423426857e-08
          9.3e-07   1.424022883e-08
          9.4e-07   1.424532605e-08
          9.5e-07   1.424708604e-08
          9.6e-07   1.424990505e-08
          9.7e-07   1.425079919e-08
          9.8e-07   1.425395388e-08
          9.9e-07   1.424954974e-08
            1e-06   1.425279339e-08
         1.01e-06   1.425197466e-08
         1.02e-06   1.425183209e-08
         1.03e-06   1.425454836e-08
         1.04e-06   1.425805486e-08
         1.05e-06   1.425771102e-08
         1.06e-06   1.426157064e-08
         1.07e-06   1.426675528e-08
         1.08e-06   1.426924529e-08
         1.09e-06   1.427060115e-08
          1.1e-06    1.42683818e-08
         1.11e-06    1.42696526e-08
         1.12e-06   1.426838043e-08
         1.13e-06   1.427045081e-08
         1.14e-06   1.427543297e-08
         1.15e-06    1.42770125e-08
         1.16e-06   1.428139278e-08
         1.17e-06   1.427853256e-08
         1.18e-06   1.427863883e-08
         1.19e-06   1.427749275e-08
          1.2e-06   1.428402384e-08
         1.21e-06   1.428820539e-08
         1.22e-06   1.429502987e-08
         1.23e-06   1.429516744e-08
         1.24e-06   1.429497695e-08
         1.25e-06   1.430161647e-08
         1.26e-06    1.43045319e-08
         1.27e-06   1.431141917e-08
         1.28e-06   1.431022113e-08
         1.29e-06   1.431556627e-08
          1.3e-06   1.431484972e-08
         1.31e-06    1.43144746e-08
         1.32e-06    1.43143419e-08
         1.33e-06   1.432076832e-08
         1.34e-06   1.431845223e-08
         1.35e-06   1.432059516e-08
         1.36e-06   1.432446692e-08
         1.37e-06   1.432953648e-08
         1.38e-06   1.432844663e-08
         1.39e-06   1.432677026e-08
          1.4e-06   1.432807978e-08
         1.41e-06   1.432977413e-08
         1.42e-06   1.432950921e-08
         1.43e-06   1.433392575e-08
         1.44e-06   1.433630501e-08
         1.45e-06   1.433539201e-08
         1.46e-06   1.433298789e-08
         1.47e-06   1.433813132e-08
         1.48e-06   1.433903612e-08
         1.49e-06    1.43398807e-08
          1.5e-06   1.434616421e-08
         1.51e-06    1.43529403e-08
         1.52e-06   1.435013943e-08
         1.53e-06   1.435488735e-08
         1.54e-06   1.435953791e-08
         1.55e-06   1.436184037e-08
         1.56e-06   1.435898609e-08
         1.57e-06   1.436690198e-08
         1.58e-06   1.436841314e-08
         1.59e-06   1.437215512e-08
          1.6e-06   1.437160048e-08
         1.61e-06    1.43766574e-08
         1.62e-06   1.437781986e-08
         1.63e-06   1.437967185e-08
         1.64e-06    1.43804147e-08
         1.65e-06    1.43783427e-08
         1.66e-06   1.437541689e-08
         1.67e-06   1.438279436e-08
         1.68e-06   1.438150718e-08
         1.69e-06   1.438180256e-08
          1.7e-06   1.438100586e-08
         1.71e-06   1.438295629e-08
         1.72e-06   1.438764676e-08
         1.73e-06   1.438912889e-08
         1.74e-06   1.438962376e-08
         1.75e-06   1.438727725e-08
         1.76e-06   1.438651952e-08
         1.77e-06   1.438786795e-08
         1.78e-06   1.439187923e-08
         1.79e-06    1.43927607e-08
          1.8e-06   1.439581687e-08
         1.81e-06    1.44031547e-08
         1.82e-06   1.439929657e-08
         1.83e-06     1.4404517e-08
         1.84e-06    1.44081282e-08
         1.85e-06   1.440919299e-08
         1.86e-06   1.441453873e-08
         1.87e-06   1.441315862e-08
         1.88e-06   1.441605892e-08
         1.89e-06   1.441204581e-08
          1.9e-06    1.44144896e-08
         1.91e-06   1.441411892e-08
         1.92e-06   1.441596684e-08
         1.93e-06   1.441572165e-08
         1.94e-06   1.441355578e-08
         1.95e-06   1.441269535e-08
         1.96e-06   1.441250936e-08
         1.97e-06   1.441247965e-08
         1.98e-06   1.441453842e-08
         1.99e-06    1.44136363e-08
            2e-06   1.441348847e-08
         2.01e-06   1.442024769e-08
         2.02e-06   1.441997751e-08
         2.03e-06    1.44193621e-08
         2.04e-06   1.442441795e-08
         2.05e-06   1.442888156e-08
         2.06e-06   1.442857926e-08
         2.07e-06   1.443201579e-08
         2.08e-06   1.443048265e-08
         2.09e-06   1.443485084e-08
          2.1e-06   1.444169035e-08
         2.11e-06   1.444177429e-08
         2.12e-06   1.444260698e-08
         2.13e-06   1.444214585e-08
         2.14e-06   1.444123621e-08
         2.15e-06   1.444430263e-08
         2.16e-06   1.444631973e-08
         2.17e-06   1.444879023e-08
         2.18e-06   1.445125446e-08
         2.19e-06   1.445362142e-08
          2.2e-06   1.445678068e-08
         2.21e-06   1.445347362e-08
         2.22e-06   1.446114282e-08
         2.23e-06   1.446125989e-08
         2.24e-06   1.445871009e-08
         2.25e-06   1.446023339e-08
         2.26e-06   1.446072856e-08
         2.27e-06   1.446162336e-08
         2.28e-06   1.446505868e-08
         2.29e-06   1.447385642e-08
          2.3e-06   1.447332368e-08
         2.31e-06   1.447390411e-08
         2.32e-06    1.44709208e-08
         2.33e-06   1.446905769e-08
         2.34e-06   1.447327372e-08
         2.35e-06   1.447128317e-08
         2.36e-06    1.44764286e-08
         2.37e-06   1.447606634e-08
         2.38e-06    1.44755495e-08
         2.39e-06   1.447816604e-08
          2.4e-06   1.448145428e-08
         2.41e-06   1.448067729e-08
         2.42e-06   1.447983829e-08
         2.43e-06   1.447587785e-08
         2.44e-06   1.447767525e-08
         2.45e-06   1.447753298e-08
         2.46e-06   1.447783362e-08
         2.47e-06   1.448296435e-08
         2.48e-06    1.44853262e-08
         2.49e-06   1.448654791e-08
          2.5e-06   1.448718732e-08
         2.51e-06   1.448768012e-08
         2.52e-06   1.448741019e-08
         2.53e-06   1.449135964e-08
         2.54e-06   1.449127687e-08
         2.55e-06   1.449085735e-08
         2.56e-06   1.449171824e-08
         2.57e-06   1.449014004e-08
         2.58e-06   1.449142688e-08
         2.59e-06   1.449220457e-08
          2.6e-06   1.449439945e-08
         2.61e-06   1.449142873e-08
         2.62e-06   1.449390804e-08
         2.63e-06   1.449809257e-08
         2.64e-06   1.449705484e-08
         2.65e-06   1.449856839e-08
         2.66e-06   1.450511471e-08
         2.67e-06   1.450554236e-08
         2.68e-06   1.450115291e-08
         2.69e-06   1.450796267e-08
          2.7e-06   1.451102828e-08
         2.71e-06   1.450804693e-08
         2.72e-06   1.451182477e-08
         2.73e-06   1.451522989e-08
         2.74e-06   1.452399807e-08
         2.75e-06   1.452737197e-08
         2.76e-06   1.452136255e-08
         2.77e-06   1.452215727e-08
         2.78e-06   1.452224939e-08
         2.79e-06   1.452269397e-08
          2.8e-06   1.452235892e-08
         2.81e-06   1.452613673e-08
         2.82e-06    1.45223919e-08
         2.83e-06    1.45219292e-08
         2.84e-06    1.45288248e-08
         2.85e-06   1.453226749e-08
         2.86e-06   1.453184638e-08
         2.87e-06   1.452963626e-08
         2.88e-06   1.453050888e-08
         2.89e-06   1.452914773e-08
          2.9e-06    1.45356969e-08
         2.91e-06   1.453423116e-08
         2.92e-06   1.454083203e-08
         2.93e-06   1.454134475e-08
         2.94e-06   1.454484601e-08
         2.95e-06   1.454845324e-08
         2.96e-06   1.455336022e-08
         2.97e-06      1.455802e-08
         2.98e-06   1.455511409e-08
         2.99e-06   1.456067749e-08
            3e-06   1.456208164e-08
         3.01e-06   1.455971617e-08
         3.02e-06   1.455551779e-08
         3.03e-06   1.455620761e-08
         3.04e-06   1.455667647e-08
         3.05e-06   1.455820443e-08
         3.06e-06   1.456166246e-08
         3.07e-06   1.456620062e-08
         3.08e-06   1.456804619e-08
         3.09e-06   1.456591957e-08
          3.1e-06   1.456699359e-08
         3.11e-06   1.456484688e-08
         3.12e-06   1.456805131e-08
         3.13e-06   1.457003129e-08
         3.14e-06   1.456580284e-08
         3.15e-06   1.456977305e-08
         3.16e-06    1.45681344e-08
         3.17e-06   1.457170022e-08
         3.18e-06   1.457310921e-08
         3.19e-06    1.45707509e-08
          3.2e-06   1.457380119e-08
         3.21e-06   1.457303321e-08
         3.22e-06   1.457104896e-08
         3.23e-06   1.457006714e-08
         3.24e-06   1.457384186e-08
         3.25e-06   1.457518591e-08
         3.26e-06   1.457454313e-08
         3.27e-06   1.458159352e-08
         3.28e-06   1.458158931e-08
         3.29e-06    1.45827384e-08
          3.3e-06   1.458421105e-08
         3.31e-06   1.458635339e-08
         3.32e-06   1.458884229e-08
         3.33e-06   1.459430925e-08
         3.34e-06   1.459483996e-08
         3.35e-06    1.45971111e-08
         3.36e-06   1.460063709e-08
         3.37e-06   1.460068089e-08
         3.38e-06   1.460343671e-08
         3.39e-06   1.460206153e-08
          3.4e-06   1.460373642e-08
         3.41e-06   1.461032356e-08
         3.42e-06   1.461245671e-08
         3.43e-06   1.460916738e-08
         3.44e-06   1.460613955e-08
         3.45e-06   1.460601115e-08
         3.46e-06   1.460623007e-08
         3.47e-06   1.460549062e-08
         3.48e-06     1.4603561e-08
         3.49e-06   1.460336308e-08
          3.5e-06   1.460494796e-08
         3.51e-06   1.460688603e-08
         3.52e-06   1.461034554e-08
         3.53e-06   1.460461355e-08
         3.54e-06   1.460652836e-08
         3.55e-06   1.460230394e-08
         3.56e-06    1.46029067e-08
         3.57e-06   1.460524629e-08
         3.58e-06   1.460590727e-08
         3.59e-06    1.46064495e-08
          3.6e-06   1.460594595e-08
         3.61e-06    1.46119451e-08
         3.62e-06   1.462002269e-08
         3.63e-06   1.461870549e-08
         3.64e-06   1.462055855e-08
         3.65e-06   1.462588314e-08
         3.66e-06     1.4623255e-08
         3.67e-06   1.462849803e-08
         3.68e-06   1.462838754e-08
         3.69e-06   1.462691528e-08
          3.7e-06   1.462935643e-08
         3.71e-06   1.462714092e-08
         3.72e-06   1.462679348e-08
         3.73e-06   1.462849655e-08
         3.74e-06   1.462875982e-08
         3.75e-06   1.462439335e-08
         3.76e-06   1.462737981e-08
         3.77e-06   1.462885414e-08
         3.78e-06    1.46281284e-08
         3.79e-06   1.462921041e-08
          3.8e-06   1.463553692e-08
         3.81e-06   1.463507194e-08
         3.82e-06   1.463564875e-08
         3.83e-06   1.463577062e-08
         3.84e-06    1.46337918e-08
         3.85e-06   1.463462526e-08
         3.86e-06   1.463250892e-08
         3.87e-06   1.463370902e-08
         3.88e-06   1.463294517e-08
         3.89e-06   1.463721138e-08
          3.9e-06   1.463962097e-08
         3.91e-06   1.464357513e-08
         3.92e-06   1.464144019e-08
         3.93e-06    1.46441905e-08
         3.94e-06   1.464423847e-08
         3.95e-06   1.464289547e-08
         3.96e-06   1.463625877e-08
         3.97e-06   1.464039165e-08
         3.98e-06   1.464252405e-08
         3.99e-06   1.464247871e-08
            4e-06    1.46468655e-08
         4.01e-06   1.465037712e-08
         4.02e-06   1.465477913e-08
         4.03e-06   1.465450337e-08
         4.04e-06   1.465396789e-08
         4.05e-06   1.466065504e-08
         4.06e-06   1.465519855e-08
         4.07e-06   1.465396532e-08
         4.08e-06   1.464939707e-08
         4.09e-06    1.46524236e-08
          4.1e-06   1.465115612e-08
         4.11e-06   1.465660403e-08
         4.12e-06   1.465622177e-08
         4.13e-06   1.465731254e-08
         4.14e-06   1.465961945e-08
         4.15e-06   1.466283213e-08
         4.16e-06   1.466413492e-08
         4.17e-06   1.466286197e-08
         4.18e-06   1.466715507e-08
         4.19e-06   1.466715972e-08
          4.2e-06   1.466596927e-08
         4.21e-06   1.467078787e-08
         4.22e-06   1.467028545e-08
         4.23e-06   1.467480819e-08
         4.24e-06   1.467764731e-08
         4.25e-06   1.467798285e-08
         4.26e-06   1.467869004e-08
         4.27e-06   1.467946647e-08
         4.28e-06   1.467392907e-08
         4.29e-06   1.467909488e-08
          4.3e-06   1.468135588e-08
         4.31e-06    1.46834842e-08
         4.32e-06   1.468409378e-08
         4.33e-06   1.468275815e-08
         4.34e-06   1.468148656e-08
         4.35e-06   1.467460204e-08
         4.36e-06   1.467483695e-08
         4.37e-06   1.467755016e-08
         4.38e-06    1.46783314e-08
         4.39e-06   1.467851208e-08
          4.4e-06   1.468541708e-08
         4.41e-06   1.468183008e-08
         4.42e-06   1.468484869e-08
         4.43e-06   1.468765779e-08
         4.44e-06   1.468477913e-08
         4.45e-06   1.468632252e-08
         4.46e-06   1.469001942e-08
         4.47e-06   1.468779013e-08
         4.48e-06   1.468883091e-08
         4.49e-06   1.469154179e-08
          4.5e-06   1.469143077e-08
         4.51e-06   1.469175716e-08
         4.52e-06   1.469546707e-08
         4.53e-06   1.469891811e-08
         4.54e-06   1.469637547e-08
         4.55e-06   1.469656036e-08
         4.56e-06   1.469479186e-08
         4.57e-06   1.469232366e-08
         4.58e-06   1.469426119e-08
         4.59e-06   1.469425923e-08
          4.6e-06   1.469321407e-08
         4.61e-06   1.469146882e-08
         4.62e-06   1.469228703e-08
         4.63e-06   1.469610443e-08
         4.64e-06   1.469755951e-08
         4.65e-06   1.469807796e-08
         4.66e-06   1.469876232e-08
         4.67e-06   1.469973121e-08
         4.68e-06   1.470588138e-08
         4.69e-06   1.470922313e-08
          4.7e-06   1.470932248e-08
         4.71e-06   1.470904637e-08
         4.72e-06    1.47086019e-08
         4.73e-06   1.470890572e-08
         4.74e-06   1.470665795e-08
         4.75e-06     1.4711248e-08
         4.76e-06   1.471288602e-08
         4.77e-06   1.471472593e-08
         4.78e-06   1.471541214e-08
         4.79e-06   1.471850675e-08
          4.8e-06   1.472161375e-08
         4.81e-06   1.472266765e-08
         4.82e-06   1.472576022e-08
         4.83e-06   1.472020487e-08
         4.84e-06   1.472052104e-08
         4.85e-06   1.472376156e-08
         4.86e-06   1.472765844e-08
         4.87e-06    1.47279401e-08
         4.88e-06   1.472909993e-08
         4.89e-06   1.473203149e-08
          4.9e-06   1.473073191e-08
         4.91e-06   1.473330286e-08
         4.92e-06   1.473441977e-08
         4.93e-06   1.473353538e-08
         4.94e-06   1.473786592e-08
         4.95e-06   1.473407867e-08
         4.96e-06   1.473433279e-08
         4.97e-06   1.473017911e-08
         4.98e-06   1.473218893e-08
         4.99e-06   1.473637536e-08
            5e-06   1.473757735e-08
         5.01e-06   1.474219308e-08
         5.02e-06   1.474533476e-08
         5.03e-06   1.474268738e-08
         5.04e-06   1.474321218e-08
         5.05e-06    1.47433298e-08
         5.06e-06   1.474349165e-08
         5.07e-06   1.474310024e-08
         5.08e-06   1.474020668e-08
         5.09e-06    1.47406564e-08
          5.1e-06   1.473923358e-08
         5.11e-06   1.474009984e-08
         5.12e-06   1.474018737e-08
         5.13e-06   1.473956894e-08
         5.14e-06   1.474259324e-08
         5.15e-06   1.474069021e-08
         5.16e-06   1.474769768e-08
         5.17e-06   1.474813689e-08
         5.18e-06   1.474295799e-08
         5.19e-06   1.474363278e-08
          5.2e-06   1.474601313e-08
         5.21e-06    1.47473665e-08
         5.22e-06   1.475226467e-08
         5.23e-06   1.475295825e-08
         5.24e-06   1.475175532e-08
         5.25e-06   1.474937761e-08
         5.26e-06   1.475045236e-08
         5.27e-06   1.475468652e-08
         5.28e-06    1.47588807e-08
         5.29e-06   1.476144002e-08
          5.3e-06   1.475612348e-08
         5.31e-06   1.475295928e-08
         5.32e-06   1.474915678e-08
         5.33e-06   1.474902451e-08
         5.34e-06   1.474745348e-08
         5.35e-06   1.475392128e-08
         5.36e-06   1.475574015e-08
         5.37e-06   1.475860822e-08
         5.38e-06   1.476215205e-08
         5.39e-06   1.476205993e-08
          5.4e-06   1.475430314e-08
         5.41e-06   1.475174256e-08
         5.42e-06    1.47516886e-08
         5.43e-06    1.47505203e-08
         5.44e-06   1.474934311e-08
         5.45e-06   1.474991941e-08
         5.46e-06   1.475337641e-08
         5.47e-06   1.475473287e-08
         5.48e-06   1.475511142e-08
         5.49e-06   1.475460425e-08
          5.5e-06   1.475846793e-08
         5.51e-06   1.475839245e-08
         5.52e-06   1.475927384e-08
         5.53e-06   1.476063838e-08
         5.54e-06   1.476153329e-08
         5.55e-06   1.476427578e-08
         5.56e-06   1.476170293e-08
         5.57e-06   1.476585088e-08
         5.58e-06   1.476799058e-08
         5.59e-06    1.47648798e-08
          5.6e-06   1.477184755e-08
         5.61e-06   1.476770955e-08
         5.62e-06   1.477220612e-08
         5.63e-06   1.477299412e-08
         5.64e-06   1.477627665e-08
         5.65e-06   1.477012044e-08
         5.66e-06    1.47729326e-08
         5.67e-06   1.477342573e-08
         5.68e-06   1.477276418e-08
         5.69e-06   1.477196225e-08
          5.7e-06   1.477349333e-08
         5.71e-06   1.477390746e-08
         5.72e-06   1.477367904e-08
         5.73e-06   1.477804076e-08
         5.74e-06   1.478189138e-08
         5.75e-06   1.477928309e-08
         5.76e-06    1.47741745e-08
         5.77e-06   1.477334873e-08
         5.78e-06   1.477894446e-08
         5.79e-06   1.478092758e-08
          5.8e-06   1.477608832e-08
         5.81e-06   1.477548337e-08
         5.82e-06   1.477797385e-08
         5.83e-06   1.478141391e-08
         5.84e-06    1.47819758e-08
         5.85e-06   1.478292765e-08
         5.86e-06   1.478451163e-08
         5.87e-06   1.477856305e-08
         5.88e-06    1.47813711e-08
         5.89e-06   1.477975178e-08
          5.9e-06   1.478533084e-08
         5.91e-06   1.478690498e-08
         5.92e-06   1.477865816e-08
         5.93e-06   1.477826568e-08
         5.94e-06   1.478123344e-08
         5.95e-06   1.477556036e-08
         5.96e-06   1.477814863e-08
         5.97e-06   1.477967636e-08
         5.98e-06   1.478137801e-08
         5.99e-06   1.478248902e-08
            6e-06   1.478829146e-08
         6.01e-06   1.479524824e-08
         6.02e-06   1.479548986e-08
         6.03e-06    1.47964079e-08
         6.04e-06   1.479692223e-08
         6.05e-06   1.480129613e-08
         6.06e-06   1.479375816e-08
         6.07e-06   1.479958042e-08
         6.08e-06   1.479597766e-08
         6.09e-06   1.479403023e-08
          6.1e-06   1.479402314e-08
         6.11e-06   1.479648204e-08
         6.12e-06   1.479879445e-08
         6.13e-06   1.479809764e-08
         6.14e-06    1.47972809e-08
         6.15e-06   1.479808208e-08
         6.16e-06   1.479588427e-08
         6.17e-06   1.479950584e-08
         6.18e-06   1.479945267e-08
         6.19e-06   1.480298124e-08
          6.2e-06   1.480430955e-08
         6.21e-06   1.480126789e-08
         6.22e-06   1.480480482e-08
         6.23e-06   1.479867729e-08
         6.24e-06   1.479786994e-08
         6.25e-06   1.479861488e-08
         6.26e-06   1.479429086e-08
         6.27e-06   1.479567082e-08
         6.28e-06   1.480237937e-08
         6.29e-06   1.480190803e-08
          6.3e-06   1.480084642e-08
         6.31e-06   1.480403655e-08
         6.32e-06    1.48111093e-08
         6.33e-06   1.480669983e-08
         6.34e-06   1.480753066e-08
         6.35e-06   1.480995164e-08
         6.36e-06   1.481238829e-08
         6.37e-06   1.480933155e-08
         6.38e-06   1.480648898e-08
         6.39e-06   1.480976316e-08
          6.4e-06   1.481183165e-08
         6.41e-06   1.481267432e-08
         6.42e-06   1.481033041e-08
         6.43e-06   1.481410115e-08
         6.44e-06   1.481444027e-08
         6.45e-06   1.481524562e-08
         6.46e-06   1.481624687e-08
         6.47e-06   1.481553425e-08
         6.48e-06   1.482430614e-08
         6.49e-06   1.482429238e-08
          6.5e-06   1.482956717e-08
         6.51e-06   1.482925699e-08
         6.52e-06   1.482719627e-08
         6.53e-06   1.482614919e-08
         6.54e-06   1.482398299e-08
         6.55e-06   1.482326393e-08
         6.56e-06   1.482597675e-08
         6.57e-06   1.482505283e-08
         6.58e-06     1.4824313e-08
         6.59e-06   1.482737527e-08
          6.6e-06   1.482320063e-08
         6.61e-06   1.482330181e-08
         6.62e-06   1.482345943e-08
         6.63e-06   1.482682949e-08
         6.64e-06   1.483190021e-08
         6.65e-06    1.48296727e-08
         6.66e-06    1.48277747e-08
         6.67e-06   1.482674952e-08
         6.68e-06   1.483011814e-08
         6.69e-06   1.483051172e-08
          6.7e-06   1.483148951e-08
         6.71e-06   1.483108855e-08
         6.72e-06   1.483423498e-08
         6.73e-06    1.48355188e-08
         6.74e-06    1.48393974e-08
         6.75e-06   1.483709135e-08
         6.76e-06   1.483773292e-08
         6.77e-06   1.483629204e-08
         6.78e-06   1.484271912e-08
         6.79e-06   1.483967701e-08
          6.8e-06   1.484037378e-08
         6.81e-06   1.484155862e-08
         6.82e-06   1.484300327e-08
         6.83e-06   1.484141024e-08
         6.84e-06   1.484499646e-08
         6.85e-06    1.48434047e-08
         6.86e-06    1.48400651e-08
         6.87e-06   1.483778225e-08
         6.88e-06   1.484078767e-08
         6.89e-06   1.483925889e-08
          6.9e-06   1.484123423e-08
         6.91e-06   1.483976816e-08
         6.92e-06   1.483921045e-08
         6.93e-06   1.483725495e-08
         6.94e-06   1.483656253e-08
         6.95e-06   1.483495906e-08
         6.96e-06   1.483851489e-08
         6.97e-06   1.484353148e-08
         6.98e-06   1.484357175e-08
         6.99e-06   1.484552114e-08
            7e-06   1.484443064e-08
         7.01e-06   1.484304759e-08
         7.02e-06   1.484369804e-08
         7.03e-06   1.484118403e-08
         7.04e-06   1.483987243e-08
         7.05e-06    1.48343533e-08
         7.06e-06   1.483491261e-08
         7.07e-06   1.483902143e-08
         7.08e-06   1.484225139e-08
         7.09e-06   1.484422539e-08
          7.1e-06   1.484584943e-08
         7.11e-06   1.484980948e-08
         7.12e-06   1.484684754e-08
         7.13e-06   1.485028906e-08
         7.14e-06   1.485284975e-08
         7.15e-06   1.485232784e-08
         7.16e-06   1.485839305e-08
         7.17e-06   1.485526852e-08
         7.18e-06   1.484973525e-08
         7.19e-06    1.48504042e-08
          7.2e-06   1.485309776e-08
         7.21e-06   1.485087235e-08
         7.22e-06   1.484809446e-08
         7.23e-06   1.485021035e-08
         7.24e-06   1.485380329e-08
         7.25e-06    1.48567232e-08
         7.26e-06   1.485828209e-08
         7.27e-06   1.486093287e-08
         7.28e-06   1.486113862e-08
         7.29e-06   1.486222331e-08
          7.3e-06   1.485966088e-08
         7.31e-06   1.486316797e-08
         7.32e-06   1.485966339e-08
         7.33e-06   1.486170006e-08
         7.34e-06    1.48615564e-08
         7.35e-06   1.485901379e-08
         7.36e-06   1.486552487e-08
         7.37e-06   1.486705423e-08
         7.38e-06   1.486715931e-08
         7.39e-06   1.486452966e-08
          7.4e-06   1.486337317e-08
         7.41e-06   1.486071321e-08
         7.42e-06   1.486128373e-08
         7.43e-06   1.486281411e-08
         7.44e-06   1.486609938e-08
         7.45e-06    1.48633063e-08
         7.46e-06   1.486478443e-08
         7.47e-06   1.486515697e-08
         7.48e-06    1.48624811e-08
         7.49e-06   1.486567311e-08
          7.5e-06   1.486374045e-08
         7.51e-06   1.486533651e-08
         7.52e-06   1.486713303e-08
         7.53e-06   1.486937089e-08
         7.54e-06   1.487398478e-08
         7.55e-06   1.487580239e-08
         7.56e-06   1.487537125e-08
         7.57e-06   1.487755093e-08
         7.58e-06    1.48726412e-08
         7.59e-06   1.487463866e-08
          7.6e-06    1.48727691e-08
         7.61e-06    1.48734305e-08
         7.62e-06   1.487446448e-08
         7.63e-06   1.487279534e-08
         7.64e-06     1.4876242e-08
         7.65e-06   1.487842478e-08
         7.66e-06   1.488278121e-08
         7.67e-06    1.48795175e-08
         7.68e-06   1.487911504e-08
         7.69e-06    1.48736952e-08
          7.7e-06   1.487209308e-08
         7.71e-06   1.487649444e-08
         7.72e-06   1.487792806e-08
         7.73e-06   1.487709234e-08
         7.74e-06   1.487565079e-08
         7.75e-06   1.487573325e-08
         7.76e-06   1.487677854e-08
         7.77e-06   1.488256985e-08
         7.78e-06   1.488084877e-08
         7.79e-06   1.488375039e-08
          7.8e-06   1.488091551e-08
         7.81e-06   1.488157889e-08
         7.82e-06   1.488573088e-08
         7.83e-06   1.488305113e-08
         7.84e-06   1.488082452e-08
         7.85e-06   1.488455768e-08
         7.86e-06    1.48867551e-08
         7.87e-06   1.488777191e-08
         7.88e-06   1.488994006e-08
         7.89e-06   1.488954485e-08
          7.9e-06   1.488526828e-08
         7.91e-06    1.48863962e-08
         7.92e-06   1.489020322e-08
         7.93e-06   1.489357988e-08
         7.94e-06    1.48913325e-08
         7.95e-06   1.488742147e-08
         7.96e-06   1.488253549e-08
         7.97e-06   1.488680504e-08
         7.98e-06   1.489304129e-08
         7.99e-06   1.489453312e-08
            8e-06   1.489553053e-08
         8.01e-06   1.489385513e-08
         8.02e-06   1.489739848e-08
         8.03e-06   1.489737994e-08
         8.04e-06   1.489581549e-08
         8.05e-06   1.489475567e-08
         8.06e-06   1.489051671e-08
         8.07e-06   1.489774601e-08
         8.08e-06   1.490135394e-08
         8.09e-06   1.490407699e-08
          8.1e-06   1.490211021e-08
         8.11e-06     1.4902772e-08
         8.12e-06   1.490438821e-08
         8.13e-06   1.490361541e-08
         8.14e-06    1.49061167e-08
         8.15e-06   1.490351877e-08
         8.16e-06   1.490799995e-08
         8.17e-06   1.490480069e-08
         8.18e-06   1.490033897e-08
         8.19e-06   1.490209018e-08
          8.2e-06   1.489801744e-08
         8.21e-06   1.489840254e-08
         8.22e-06   1.489723057e-08
         8.23e-06   1.490153035e-08
         8.24e-06    1.49028804e-08
         8.25e-06   1.490201627e-08
         8.26e-06   1.490310779e-08
         8.27e-06   1.490360455e-08
         8.28e-06   1.489806587e-08
         8.29e-06    1.48991581e-08
          8.3e-06   1.489861017e-08
         8.31e-06   1.490003391e-08