# Probe 0 (5e-06 5e-06 5e-06)
#           Probe                 0
#            Time
            1e-08       9814.752083
            2e-08       9683.059229
            3e-08       9572.593189
            4e-08       9473.683712
            5e-08       9389.169836
            6e-08       9313.090863
            7e-08       9244.407229
            8e-08       9183.743136
            9e-08       9134.650983
            1e-07       9077.782016
          1.1e-07       9028.606912
          1.2e-07       8982.633203
          1.3e-07       8941.900951
          1.4e-07        8899.33457
          1.5e-07       8858.242553
          1.6e-07       8827.496149
          1.7e-07       8796.340203
          1.8e-07       8766.025307
          1.9e-07       8735.620581
            2e-07       8710.370824
          2.1e-07       8681.335157
          2.2e-07       8653.158421
          2.3e-07       8624.584141
          2.4e-07        8600.58635
          2.5e-07       8579.130038
          2.6e-07       8558.660245
          2.7e-07       8533.168137
          2.8e-07       8510.514589
          2.9e-07       8491.968558
            3e-07       8471.758116
          3.1e-07       8451.800996
          3.2e-07       8434.138231
          3.3e-07       8411.503743
          3.4e-07       8393.574944
          3.5e-07       8376.765295
          3.6e-07       8357.892428
          3.7e-07       8343.863781
          3.8e-07       8326.061957
          3.9e-07       8310.160092
            4e-07       8298.095289
          4.1e-07       8284.995604
          4.2e-07       8270.347667
          4.3e-07       8254.454982
          4.4e-07        8240.78813
          4.5e-07       8230.103195
          4.6e-07       8216.900216
          4.7e-07       8208.080409
          4.8e-07       8193.643541
          4.9e-07       8182.831377
            5e-07       8171.252441
          5.1e-07       8161.666873
          5.2e-07        8149.54706
          5.3e-07       8138.106301
          5.4e-07       8128.124599
          5.5e-07       8117.239032
          5.6e-07        8106.54357
          5.7e-07       8097.319441
          5.8e-07       8088.317316
          5.9e-07       8079.858725
            6e-07       8069.906097
          6.1e-07       8058.775637
          6.2e-07       8049.116278
          6.3e-07       8039.727268
          6.4e-07       8029.975408
          6.5e-07       8022.262138
          6.6e-07        8013.63312
          6.7e-07       8005.546799
          6.8e-07       7996.270827
          6.9e-07       7987.097654
            7e-07       7979.797291
          7.1e-07       7971.417353
          7.2e-07       7964.263295
          7.3e-07       7957.438068
          7.4e-07       7949.604451
          7.5e-07       7943.264399
          7.6e-07       7935.186042
          7.7e-07       7928.805096
          7.8e-07       7920.207429
          7.9e-07       7910.284302
            8e-07        7904.54135
          8.1e-07       7897.582009
          8.2e-07       7892.683541
          8.3e-07       7885.385554
          8.4e-07       7879.046805
          8.5e-07       7872.863094
          8.6e-07       7867.010674
          8.7e-07       7860.776624
          8.8e-07       7855.314086
          8.9e-07       7848.423731
            9e-07       7842.976222
          9.1e-07       7836.400579
          9.2e-07       7829.400949
          9.3e-07       7822.311818
          9.4e-07       7817.073105
          9.5e-07       7812.090351
          9.6e-07       7806.236564
          9.7e-07       7801.395928
          9.8e-07       7796.213967
          9.9e-07       7791.465013
            1e-06        7786.40027
         1.01e-06       7782.061699
         1.02e-06       7776.179048
         1.03e-06       7771.461226
         1.04e-06       7765.434483
         1.05e-06       7759.816748
         1.06e-06         7754.1611
         1.07e-06       7748.972628
         1.08e-06       7744.681478
         1.09e-06       7740.886802
          1.1e-06       7736.032256
         1.11e-06       7730.344544
         1.12e-06        7725.68257
         1.13e-06       7722.028625
         1.14e-06       7718.084939
         1.15e-06       7714.543695
         1.16e-06       7709.852435
         1.17e-06       7705.444761
         1.18e-06       7701.070557
         1.19e-06       7696.954386
          1.2e-06        7693.03121
         1.21e-06       7689.014554
         1.22e-06       7684.201342
         1.23e-06       7680.989821
         1.24e-06       7677.451384
         1.25e-06       7673.090786
         1.26e-06       7670.243547
         1.27e-06       7667.317571
         1.28e-06       7664.489133
         1.29e-06       7659.599922
          1.3e-06       7655.750957
         1.31e-06       7651.804882
         1.32e-06       7648.027242
         1.33e-06       7645.016943
         1.34e-06       7641.172128
         1.35e-06       7636.246397
         1.36e-06       7631.680245
         1.37e-06       7628.014814
         1.38e-06       7625.438745
         1.39e-06       7621.550106
          1.4e-06       7617.695757
         1.41e-06       7613.921528
         1.42e-06       7611.010572
         1.43e-06       7607.751731
         1.44e-06       7603.761616
         1.45e-06       7599.913225
         1.46e-06       7596.550786
         1.47e-06       7592.895429
         1.48e-06       7589.602772
         1.49e-06       7586.401752
          1.5e-06         7583.3024
         1.51e-06       7578.439818
         1.52e-06       7576.090062
         1.53e-06       7573.226089
         1.54e-06       7569.600417
         1.55e-06        7567.79023
         1.56e-06       7566.225027
         1.57e-06       7563.743091
         1.58e-06       7560.938881
         1.59e-06       7559.016663
          1.6e-06       7555.137049
         1.61e-06       7552.393355
         1.62e-06       7549.689706
         1.63e-06       7547.137557
         1.64e-06       7544.829729
         1.65e-06        7541.90397
         1.66e-06       7540.551379
         1.67e-06       7537.554117
         1.68e-06       7535.092566
         1.69e-06       7532.086608
          1.7e-06       7529.864321
         1.71e-06       7526.300613
         1.72e-06       7523.424026
         1.73e-06       7519.528079
         1.74e-06        7516.86388
         1.75e-06       7515.117713
         1.76e-06       7512.818164
         1.77e-06       7510.368849
         1.78e-06       7507.143677
         1.79e-06       7504.774417
          1.8e-06       7501.919381
         1.81e-06       7499.057448
         1.82e-06       7496.592455
         1.83e-06       7493.838499
         1.84e-06       7491.553868
         1.85e-06        7489.26921
         1.86e-06        7486.00214
         1.87e-06       7484.523275
         1.88e-06       7481.804109
         1.89e-06       7480.255885
          1.9e-06       7478.054899
         1.91e-06       7476.205797
         1.92e-06       7473.975147
         1.93e-06       7471.351452
         1.94e-06        7469.48942
         1.95e-06       7467.036735
         1.96e-06       7465.439893
         1.97e-06       7464.341718
         1.98e-06       7461.795226
         1.99e-06       7459.953088
            2e-06       7458.129003
         2.01e-06        7456.25551
         2.02e-06       7453.633722
         2.03e-06       7452.383223
         2.04e-06       7449.611194
         2.05e-06       7446.762562
         2.06e-06       7444.265534
         2.07e-06       7442.074776
         2.08e-06        7439.93027
         2.09e-06       7437.930772
          2.1e-06       7435.578351
         2.11e-06       7434.200142
         2.12e-06       7432.607431
         2.13e-06       7430.573035
         2.14e-06       7428.279651
         2.15e-06       7425.923286
         2.16e-06       7423.939669
         2.17e-06       7421.775256
         2.18e-06       7419.624885
         2.19e-06       7417.592117
          2.2e-06       7415.449341
         2.21e-06       7413.763015
         2.22e-06       7412.048934
         2.23e-06         7410.0649
         2.24e-06       7408.111188
         2.25e-06       7406.234078
         2.26e-06       7404.393501
         2.27e-06       7403.497279
         2.28e-06       7401.783572
         2.29e-06        7400.43668
          2.3e-06       7399.246246
         2.31e-06       7398.065517
         2.32e-06        7396.40392
         2.33e-06       7394.396832
         2.34e-06         7392.6391
         2.35e-06       7390.758719
         2.36e-06       7389.519957
         2.37e-06       7386.815806
         2.38e-06       7385.856682
         2.39e-06       7383.538535
          2.4e-06       7381.741437
         2.41e-06       7380.102337
         2.42e-06       7378.955937
         2.43e-06       7376.462843
         2.44e-06       7375.379418
         2.45e-06       7374.357014
         2.46e-06       7372.015198
         2.47e-06       7370.088825
         2.48e-06       7368.044147
         2.49e-06       7366.294207
          2.5e-06       7364.355801
         2.51e-06       7362.691418
         2.52e-06        7361.15911
         2.53e-06       7359.108015
         2.54e-06       7357.078879
         2.55e-06       7355.553453
         2.56e-06       7353.762272
         2.57e-06       7352.699981
         2.58e-06       7351.179217
         2.59e-06       7349.927777
          2.6e-06       7348.096687
         2.61e-06       7346.728182
         2.62e-06        7345.72343
         2.63e-06       7344.107395
         2.64e-06        7342.79953
         2.65e-06       7341.038815
         2.66e-06       7339.401438
         2.67e-06       7338.025364
         2.68e-06       7336.957396
         2.69e-06       7334.999102
          2.7e-06       7333.090522
         2.71e-06       7331.502759
         2.72e-06       7329.986472
         2.73e-06       7329.070646
         2.74e-06       7327.637754
         2.75e-06       7325.865624
         2.76e-06       7324.915927
         2.77e-06       7323.522198
         2.78e-06       7322.168489
         2.79e-06       7319.988409
          2.8e-06        7318.88521
         2.81e-06        7317.78682
         2.82e-06       7316.558909
         2.83e-06       7315.135404
         2.84e-06       7314.331515
         2.85e-06       7312.130929
         2.86e-06       7310.983983
         2.87e-06       7309.753056
         2.88e-06       7308.427454
         2.89e-06       7307.121312
          2.9e-06       7305.914104
         2.91e-06       7304.790712
         2.92e-06       7303.290067
         2.93e-06       7302.066997
         2.94e-06        7300.51477
         2.95e-06       7299.541654
         2.96e-06       7298.170181
         2.97e-06       7296.313598
         2.98e-06       7295.146389
         2.99e-06       7293.481643
            3e-06       7291.728669
         3.01e-06       7290.371344
         3.02e-06       7289.525115
         3.03e-06       7288.047753
         3.04e-06       7286.185911
         3.05e-06        7284.84542
         3.06e-06       7283.841914
         3.07e-06       7282.480312
         3.08e-06       7281.871869
         3.09e-06       7280.954949
          3.1e-06        7279.56361
         3.11e-06       7278.678334
         3.12e-06        7277.78431
         3.13e-06        7276.56719
         3.14e-06       7275.975489
         3.15e-06       7275.032589
         3.16e-06       7273.994381
         3.17e-06       7272.477692
         3.18e-06       7271.013473
         3.19e-06       7270.713228
          3.2e-06       7269.635775
         3.21e-06       7268.606958
         3.22e-06       7268.395539
         3.23e-06       7267.031914
         3.24e-06       7266.342021
         3.25e-06       7264.986066
         3.26e-06       7263.363675
         3.27e-06       7261.940213
         3.28e-06        7260.55579
         3.29e-06       7259.539672
          3.3e-06        7258.74701
         3.31e-06       7257.304369
         3.32e-06       7256.202506
         3.33e-06       7254.790175
         3.34e-06       7253.721831
         3.35e-06       7253.121129
         3.36e-06       7252.532057
         3.37e-06       7251.454238
         3.38e-06       7250.514494
         3.39e-06       7249.721693
          3.4e-06       7248.393365
         3.41e-06       7247.106253
         3.42e-06       7245.611359
         3.43e-06       7245.351211
         3.44e-06       7243.971356
         3.45e-06       7243.368561
         3.46e-06       7242.110457
         3.47e-06       7241.089751
         3.48e-06       7239.782645
         3.49e-06       7239.503586
          3.5e-06       7238.437519
         3.51e-06       7237.662557
         3.52e-06       7237.073546
         3.53e-06       7235.933711
         3.54e-06       7235.121741
         3.55e-06       7234.128353
         3.56e-06       7232.615713
         3.57e-06       7231.719136
         3.58e-06       7230.727075
         3.59e-06        7229.31191
          3.6e-06       7228.366495
         3.61e-06       7226.995742
         3.62e-06       7226.094304
         3.63e-06       7224.985994
         3.64e-06       7223.551226
         3.65e-06       7222.306237
         3.66e-06       7220.931438
         3.67e-06       7219.961785
         3.68e-06       7219.223034
         3.69e-06       7218.253569
          3.7e-06       7216.659271
         3.71e-06       7215.719697
         3.72e-06       7214.345581
         3.73e-06       7212.943743
         3.74e-06       7212.260959
         3.75e-06       7211.571195
         3.76e-06       7210.667394
         3.77e-06         7209.7772
         3.78e-06       7208.524466
         3.79e-06       7207.732198
          3.8e-06       7206.437187
         3.81e-06       7205.896544
         3.82e-06       7204.736713
         3.83e-06       7204.285621
         3.84e-06       7203.389937
         3.85e-06       7203.315356
         3.86e-06        7202.47706
         3.87e-06       7201.582758
         3.88e-06       7200.935384
         3.89e-06       7200.175697
          3.9e-06       7199.507913
         3.91e-06       7198.824782
         3.92e-06       7198.002877
         3.93e-06       7196.982793
         3.94e-06       7195.780386
         3.95e-06       7194.956137
         3.96e-06       7194.600493
         3.97e-06        7193.65169
         3.98e-06       7193.006865
         3.99e-06       7192.312851
            4e-06       7191.135803
         4.01e-06       7190.067999
         4.02e-06        7189.18162
         4.03e-06       7188.145471
         4.04e-06       7187.278869
         4.05e-06       7186.743046
         4.06e-06       7186.217548
         4.07e-06       7185.747621
         4.08e-06       7185.224391
         4.09e-06       7184.322084
          4.1e-06       7183.869795
         4.11e-06       7182.702078
         4.12e-06       7182.129329
         4.13e-06       7181.209844
         4.14e-06       7180.450631
         4.15e-06         7179.5548
         4.16e-06       7178.954201
         4.17e-06       7178.065681
         4.18e-06       7177.381556
         4.19e-06       7177.159666
          4.2e-06       7176.556452
         4.21e-06       7175.769178
         4.22e-06       7174.529911
         4.23e-06       7173.359199
         4.24e-06       7172.361675
         4.25e-06       7171.159901
         4.26e-06       7170.285576
         4.27e-06       7169.887811
         4.28e-06       7169.036322
         4.29e-06       7168.016956
          4.3e-06       7167.374352
         4.31e-06       7166.405188
         4.32e-06       7165.095086
         4.33e-06       7164.350495
         4.34e-06       7163.771958
         4.35e-06       7163.096264
         4.36e-06       7162.239127
         4.37e-06       7161.487999
         4.38e-06       7160.802529
         4.39e-06       7159.764546
          4.4e-06       7158.814394
         4.41e-06       7158.292224
         4.42e-06       7157.443801
         4.43e-06       7156.807379
         4.44e-06       7156.515905
         4.45e-06       7156.088371
         4.46e-06       7155.600436
         4.47e-06       7154.764914
         4.48e-06       7154.243896
         4.49e-06       7153.551602
          4.5e-06       7152.783384
         4.51e-06       7152.107463
         4.52e-06       7151.264245
         4.53e-06       7150.380757
         4.54e-06        7149.85027
         4.55e-06       7149.483971
         4.56e-06       7148.847388
         4.57e-06       7148.518389
         4.58e-06       7147.902758
         4.59e-06       7146.638349
          4.6e-06       7145.641032
         4.61e-06       7144.823767
         4.62e-06       7144.087917
         4.63e-06        7143.57246
         4.64e-06       7142.978776
         4.65e-06       7142.342444
         4.66e-06        7141.37433
         4.67e-06       7140.665774
         4.68e-06       7139.689148
         4.69e-06       7139.030192
          4.7e-06       7138.596489
         4.71e-06       7138.330277
         4.72e-06       7137.771736
         4.73e-06       7137.338412
         4.74e-06        7136.77558
         4.75e-06        7136.07119
         4.76e-06       7135.647575
         4.77e-06       7135.062282
         4.78e-06        7134.20211
         4.79e-06       7133.474672
          4.8e-06       7132.280551
         4.81e-06       7131.764434
         4.82e-06       7130.836209
         4.83e-06        7130.34325
         4.84e-06       7129.431539
         4.85e-06       7128.996583
         4.86e-06       7128.552611
         4.87e-06       7127.663785
         4.88e-06       7126.770487
         4.89e-06        7126.56582
          4.9e-06       7125.687537
         4.91e-06       7125.477945
         4.92e-06       7124.708205
         4.93e-06        7124.26652
         4.94e-06       7123.762272
         4.95e-06       7123.419041
         4.96e-06       7122.764052
         4.97e-06       7122.412498
         4.98e-06       7121.672724
         4.99e-06        7120.67065
            5e-06        7120.10989
         5.01e-06       7119.756265
         5.02e-06       7119.399863
         5.03e-06       7118.795573
         5.04e-06       7118.125083
         5.05e-06       7117.808945
         5.06e-06       7116.812672
         5.07e-06       7116.209084
         5.08e-06       7116.233208
         5.09e-06       7115.746335
          5.1e-06        7115.15812
         5.11e-06       7114.399598
         5.12e-06       7113.745703
         5.13e-06       7113.433913
         5.14e-06        7112.70875
         5.15e-06       7112.085494
         5.16e-06       7111.255126
         5.17e-06       7111.079989
         5.18e-06       7109.999063
         5.19e-06       7109.497094
          5.2e-06       7109.029805
         5.21e-06       7108.307052
         5.22e-06       7107.828826
         5.23e-06       7107.261095
         5.24e-06       7107.043812
         5.25e-06       7106.483313
         5.26e-06       7105.987378
         5.27e-06       7104.834532
         5.28e-06        7104.33944
         5.29e-06       7103.755323
          5.3e-06       7103.348118
         5.31e-06       7103.396158
         5.32e-06       7103.006237
         5.33e-06       7102.533735
         5.34e-06       7101.586859
         5.35e-06       7101.313131
         5.36e-06       7100.216521
         5.37e-06        7099.74357
         5.38e-06       7098.921996
         5.39e-06       7098.265165
          5.4e-06       7097.939504
         5.41e-06       7097.357443
         5.42e-06       7097.127076
         5.43e-06       7096.698832
         5.44e-06       7096.329959
         5.45e-06        7096.08969
         5.46e-06       7095.338893
         5.47e-06        7094.88956
         5.48e-06       7094.292968
         5.49e-06       7093.795548
          5.5e-06       7093.357265
         5.51e-06       7092.550483
         5.52e-06       7092.059951
         5.53e-06       7091.721736
         5.54e-06       7091.010661
         5.55e-06       7090.719091
         5.56e-06       7090.149378
         5.57e-06       7089.796225
         5.58e-06       7088.964238
         5.59e-06       7088.294147
          5.6e-06       7087.755761
         5.61e-06       7087.444431
         5.62e-06       7087.203833
         5.63e-06       7086.887414
         5.64e-06        7086.33932
         5.65e-06       7085.793058
         5.66e-06       7085.773811
         5.67e-06        7085.40287
         5.68e-06       7084.831684
         5.69e-06       7084.465504
          5.7e-06       7084.105572
         5.71e-06       7083.837243
         5.72e-06        7083.64132
         5.73e-06        7082.97346
         5.74e-06       7082.766933
         5.75e-06       7082.603038
         5.76e-06       7082.174623
         5.77e-06       7081.393203
         5.78e-06       7080.965514
         5.79e-06       7080.462786
          5.8e-06       7079.889908
         5.81e-06       7079.626853
         5.82e-06       7079.003314
         5.83e-06       7078.279645
         5.84e-06       7077.586626
         5.85e-06       7076.935489
         5.86e-06        7076.38179
         5.87e-06       7076.324942
         5.88e-06         7075.9659
         5.89e-06       7075.306892
          5.9e-06       7074.778584
         5.91e-06       7074.188334
         5.92e-06       7073.559586
         5.93e-06       7073.433248
         5.94e-06       7073.355128
         5.95e-06       7072.879856
         5.96e-06       7072.146659
         5.97e-06       7071.659899
         5.98e-06       7071.495184
         5.99e-06        7071.08192
            6e-06       7070.781736
         6.01e-06        7070.19388
         6.02e-06       7069.821463
         6.03e-06       7069.145903
         6.04e-06       7068.506812
         6.05e-06       7067.865417
         6.06e-06       7067.810089
         6.07e-06       7067.427969
         6.08e-06        7066.92365
         6.09e-06       7066.256102
          6.1e-06       7066.076344
         6.11e-06       7065.759859
         6.12e-06       7065.490505
         6.13e-06       7064.786375
         6.14e-06       7064.580302
         6.15e-06       7064.118804
         6.16e-06       7063.721765
         6.17e-06       7063.468753
         6.18e-06       7063.431222
         6.19e-06       7062.910275
          6.2e-06       7062.608509
         6.21e-06       7062.386672
         6.22e-06         7062.0814
         6.23e-06       7062.082247
         6.24e-06       7061.662302
         6.25e-06       7061.947891
         6.26e-06       7061.688483
         6.27e-06       7061.378755
         6.28e-06       7061.458917
         6.29e-06       7060.707908
          6.3e-06       7060.413466
         6.31e-06       7059.970521
         6.32e-06       7059.791019
         6.33e-06       7059.373555
         6.34e-06       7058.949501
         6.35e-06       7058.498453
         6.36e-06       7058.154704
         6.37e-06       7057.672405
         6.38e-06       7057.441855
         6.39e-06       7057.302122
          6.4e-06       7057.066261
         6.41e-06       7056.350107
         6.42e-06       7056.229682
         6.43e-06       7055.971299
         6.44e-06        7055.88765
         6.45e-06       7055.526164
         6.46e-06       7054.934158
         6.47e-06       7054.770246
         6.48e-06       7054.473432
         6.49e-06       7054.109384
          6.5e-06       7053.187461
         6.51e-06        7052.80023
         6.52e-06       7052.344437
         6.53e-06       7051.751655
         6.54e-06       7051.487931
         6.55e-06       7051.023712
         6.56e-06       7050.553324
         6.57e-06       7050.104632
         6.58e-06       7049.470458
         6.59e-06       7049.238443
          6.6e-06       7048.450624
         6.61e-06       7048.313565
         6.62e-06       7047.807881
         6.63e-06       7047.518729
         6.64e-06       7047.030348
         6.65e-06       7046.485385
         6.66e-06       7045.785792
         6.67e-06       7045.494498
         6.68e-06       7045.307014
         6.69e-06        7045.18991
          6.7e-06       7044.748927
         6.71e-06       7044.691704
         6.72e-06       7044.112898
         6.73e-06       7043.828844
         6.74e-06       7043.403526
         6.75e-06        7042.89692
         6.76e-06       7042.804738
         6.77e-06       7042.531475
         6.78e-06       7042.281149
         6.79e-06       7042.029077
          6.8e-06       7041.699712
         6.81e-06       7041.320221
         6.82e-06       7041.122055
         6.83e-06       7040.386912
         6.84e-06       7040.277707
         6.85e-06       7040.182613
         6.86e-06       7039.632148
         6.87e-06       7039.109411
         6.88e-06       7039.115221
         6.89e-06       7038.809346
          6.9e-06       7038.466407
         6.91e-06       7037.989942
         6.92e-06       7037.880845
         6.93e-06       7037.613546
         6.94e-06       7037.530317
         6.95e-06       7036.841661
         6.96e-06       7036.715053
         6.97e-06       7036.546825
         6.98e-06       7036.221476
         6.99e-06       7036.131162
            7e-06       7035.830055
         7.01e-06       7035.577651
         7.02e-06       7035.145296
         7.03e-06       7034.551805
         7.04e-06       7034.369616
         7.05e-06       7033.802009
         7.06e-06        7033.74195
         7.07e-06       7033.342509
         7.08e-06       7032.822645
         7.09e-06       7032.743419
          7.1e-06       7032.200337
         7.11e-06       7031.652384
         7.12e-06       7031.163627
         7.13e-06       7031.228903
         7.14e-06       7031.260519
         7.15e-06       7031.023464
         7.16e-06       7030.887669
         7.17e-06       7030.604465
         7.18e-06        7030.40539
         7.19e-06       7030.213249
          7.2e-06       7029.965072
         7.21e-06        7029.54852
         7.22e-06       7029.122269
         7.23e-06       7029.086496
         7.24e-06       7029.006211
         7.25e-06       7028.662496
         7.26e-06       7028.507208
         7.27e-06       7028.183166
         7.28e-06       7027.991725
         7.29e-06       7027.431026
          7.3e-06        7027.12241
         7.31e-06       7026.630587
         7.32e-06       7026.280419
         7.33e-06       7025.896925
         7.34e-06       7025.369705
         7.35e-06       7025.067181
         7.36e-06       7025.037155
         7.37e-06       7024.541878
         7.38e-06       7024.244466
         7.39e-06       7023.845558
          7.4e-06       7023.558979
         7.41e-06       7022.955577
         7.42e-06       7022.764517
         7.43e-06       7022.776153
         7.44e-06       7022.138914
         7.45e-06       7021.693932
         7.46e-06       7021.752124
         7.47e-06       7021.062318
         7.48e-06       7020.387183
         7.49e-06       7020.421058
          7.5e-06       7020.231161
         7.51e-06       7019.990442
         7.52e-06       7019.907634
         7.53e-06       7019.901357
         7.54e-06       7019.401815
         7.55e-06       7018.922987
         7.56e-06       7018.548712
         7.57e-06        7018.31907
         7.58e-06       7018.063641
         7.59e-06       7018.140646
          7.6e-06       7017.806809
         7.61e-06       7017.647644
         7.62e-06       7017.250474
         7.63e-06       7017.048267
         7.64e-06       7016.880961
         7.65e-06       7016.862861
         7.66e-06       7016.839157
         7.67e-06       7016.677714
         7.68e-06       7016.465714
         7.69e-06       7016.144852
          7.7e-06       7015.724138
         7.71e-06       7015.621613
         7.72e-06       7015.271425
         7.73e-06       7015.163474
         7.74e-06       7014.646369
         7.75e-06       7014.023876
         7.76e-06        7014.00753
         7.77e-06       7013.889537
         7.78e-06       7013.346886
         7.79e-06       7013.391639
          7.8e-06        7013.03524
         7.81e-06       7012.841498
         7.82e-06       7012.656656
         7.83e-06       7012.451427
         7.84e-06       7012.211715
         7.85e-06       7012.347986
         7.86e-06       7012.249035
         7.87e-06       7011.761985
         7.88e-06       7011.870283
         7.89e-06       7011.605586
          7.9e-06       7011.197769
         7.91e-06        7011.05257
         7.92e-06        7010.69582
         7.93e-06       7010.621805
         7.94e-06       7010.280658
         7.95e-06       7010.218548
         7.96e-06       7009.927684
         7.97e-06       7009.649364
         7.98e-06       7009.494237
         7.99e-06       7009.085403
            8e-06       7008.980219
         8.01e-06       7008.519619
         8.02e-06        7008.30708
         8.03e-06       7007.934309
         8.04e-06       7007.497061
         8.05e-06       7006.919013
         8.06e-06       7006.677131
         8.07e-06       7006.709247
         8.08e-06       7006.515421
         8.09e-06       7006.442998
          8.1e-06       7006.138746
         8.11e-06       7005.830618
         8.12e-06       7005.685972
         8.13e-06       7005.511661
         8.14e-06       7005.175997
         8.15e-06       7004.918494
         8.16e-06       7004.632091
         8.17e-06       7004.651861
         8.18e-06       7004.300642
         8.19e-06       7004.154467
          8.2e-06       7003.672679
         8.21e-06       7003.316857
         8.22e-06       7002.947996
         8.23e-06       7003.019235
         8.24e-06        7003.01226
         8.25e-06       7002.987754
         8.26e-06       7002.683654
         8.27e-06       7002.870477
         8.28e-06       7002.662599
         8.29e-06       7002.515319
          8.3e-06       7002.406409
         8.31e-06       7002.104132