# Probe 0 (5e-06 5e-06 5e-06)
#           Probe                 0
#            Time
            1e-08         9963.0333
            2e-08       9972.519805
            3e-08       9974.133477
            4e-08       9957.529914
            5e-08       9936.445302
            6e-08       9943.362674
            7e-08       9963.128613
            8e-08       9948.254463
            9e-08       9933.954208
            1e-07       9926.144283
          1.1e-07       9923.940323
          1.2e-07       9908.596328
          1.3e-07       9878.336967
          1.4e-07       9861.756031
          1.5e-07       9850.801022
          1.6e-07       9842.081728
          1.7e-07       9824.972063
          1.8e-07       9816.295088
          1.9e-07       9810.948145
            2e-07       9828.668186
          2.1e-07       9811.657968
          2.2e-07       9798.240976
          2.3e-07        9775.15569
          2.4e-07       9758.386593
          2.5e-07       9746.160556
          2.6e-07       9747.672676
          2.7e-07       9735.836247
          2.8e-07       9736.105485
          2.9e-07       9734.809519
            3e-07       9731.480712
          3.1e-07       9714.744936
          3.2e-07       9701.979124
          3.3e-07       9701.601662
          3.4e-07       9683.662612
          3.5e-07       9679.118309
          3.6e-07       9655.144321
          3.7e-07       9647.846773
          3.8e-07       9641.712036
          3.9e-07       9649.197197
            4e-07       9635.330508
          4.1e-07       9642.701151
          4.2e-07        9624.19535
          4.3e-07          9622.387
          4.4e-07       9610.891431
          4.5e-07       9599.463808
          4.6e-07       9575.155611
          4.7e-07       9573.948184
          4.8e-07       9564.968755
          4.9e-07       9555.880953
            5e-07       9551.563252
          5.1e-07        9538.67367
          5.2e-07       9540.882153
          5.3e-07       9540.631805
          5.4e-07       9523.829159
          5.5e-07        9514.85435
          5.6e-07       9519.174095
          5.7e-07       9529.433086
          5.8e-07       9505.605664
          5.9e-07       9487.352939
            6e-07       9479.774022
          6.1e-07       9494.555368
          6.2e-07       9483.585997
          6.3e-07       9474.635296
          6.4e-07       9452.176333
          6.5e-07       9462.161766
          6.6e-07       9450.507512
          6.7e-07       9459.055562
          6.8e-07       9445.021451
          6.9e-07       9444.737569
            7e-07       9439.562658
          7.1e-07       9432.640576
          7.2e-07       9432.046979
          7.3e-07       9429.920012
          7.4e-07        9410.05298
          7.5e-07       9374.381071
          7.6e-07       9363.071815
          7.7e-07       9354.811278
          7.8e-07       9343.349399
          7.9e-07       9330.213599
            8e-07       9326.367295
          8.1e-07       9325.696959
          8.2e-07       9319.383295
          8.3e-07        9323.65345
          8.4e-07       9316.309414
          8.5e-07       9303.070482
          8.6e-07       9306.058121
          8.7e-07       9290.499053
          8.8e-07       9276.202026
          8.9e-07       9272.833465
            9e-07       9263.188407
          9.1e-07        9282.92723
          9.2e-07       9272.330574
          9.3e-07       9277.656564
          9.4e-07       9284.552364
          9.5e-07       9278.513503
          9.6e-07       9273.351901
          9.7e-07       9263.344387
          9.8e-07       9262.352461
          9.9e-07       9230.575506
            1e-06       9229.192654
         1.01e-06       9212.936403
         1.02e-06       9195.209317
         1.03e-06       9192.353218
         1.04e-06       9188.964475
         1.05e-06       9169.679551
         1.06e-06       9169.235042
         1.07e-06       9174.831473
         1.08e-06       9172.327964
         1.09e-06        9165.85254
          1.1e-06       9140.574035
         1.11e-06       9127.413251
         1.12e-06       9108.416419
         1.13e-06       9105.889047
         1.14e-06       9114.744942
         1.15e-06       9110.122336
         1.16e-06       9113.249032
         1.17e-06       9086.365283
         1.18e-06       9072.783236
         1.19e-06       9054.459026
          1.2e-06       9068.662791
         1.21e-06       9071.509426
         1.22e-06        9084.31021
         1.23e-06       9073.547319
         1.24e-06       9060.816855
         1.25e-06       9073.902061
         1.26e-06       9076.167388
         1.27e-06       9094.272705
         1.28e-06       9079.317643
         1.29e-06       9085.136263
          1.3e-06       9068.564786
         1.31e-06       9053.811076
         1.32e-06       9040.788098
         1.33e-06       9056.214643
         1.34e-06        9034.13529
         1.35e-06        9025.40587
         1.36e-06       9024.595156
         1.37e-06       9032.954984
         1.38e-06       9018.514397
         1.39e-06       8998.376742
          1.4e-06       8988.916782
         1.41e-06       8981.946427
         1.42e-06       8971.218869
         1.43e-06        8977.06893
         1.44e-06        8971.87458
         1.45e-06       8952.749909
         1.46e-06       8929.371506
         1.47e-06       8936.558493
         1.48e-06       8927.567988
         1.49e-06        8917.86609
          1.5e-06       8932.064348
         1.51e-06        8940.45851
         1.52e-06       8919.616997
         1.53e-06       8927.207784
         1.54e-06       8931.710316
         1.55e-06       8934.551877
         1.56e-06       8917.674316
         1.57e-06       8939.632773
         1.58e-06        8934.00598
         1.59e-06       8941.390415
          1.6e-06       8925.384716
         1.61e-06       8934.147201
         1.62e-06       8929.186812
         1.63e-06       8926.508836
         1.64e-06       8921.707198
         1.65e-06       8900.954639
         1.66e-06        8882.69816
         1.67e-06       8900.675467
         1.68e-06       8887.285399
         1.69e-06       8876.115148
          1.7e-06       8864.627809
         1.71e-06       8858.513009
         1.72e-06        8865.14674
         1.73e-06       8853.696607
         1.74e-06       8844.707934
         1.75e-06       8829.314482
         1.76e-06       8816.234969
         1.77e-06       8812.019483
         1.78e-06       8816.244585
         1.79e-06       8808.578228
          1.8e-06       8810.007536
         1.81e-06       8826.983773
         1.82e-06       8800.130587
         1.83e-06       8810.625891
         1.84e-06       8815.182847
         1.85e-06       8809.347537
         1.86e-06        8816.88716
         1.87e-06        8803.97214
         1.88e-06       8802.934801
         1.89e-06       8781.206145
          1.9e-06       8782.578783
         1.91e-06       8773.336981
         1.92e-06       8770.780016
         1.93e-06        8759.17825
         1.94e-06       8741.443148
         1.95e-06       8726.240246
         1.96e-06       8718.340562
         1.97e-06       8713.867536
         1.98e-06       8710.382534
         1.99e-06        8698.27197
            2e-06       8689.655227
         2.01e-06       8708.104328
         2.02e-06       8695.614083
         2.03e-06       8687.795282
         2.04e-06        8694.62058
         2.05e-06       8698.835505
         2.06e-06       8684.524914
         2.07e-06       8688.628383
         2.08e-06       8672.875197
         2.09e-06       8681.630518
          2.1e-06       8697.490357
         2.11e-06       8692.155169
         2.12e-06        8688.50414
         2.13e-06       8676.285949
         2.14e-06        8660.90624
         2.15e-06       8664.102867
         2.16e-06       8663.079498
         2.17e-06       8663.272233
         2.18e-06       8663.515912
         2.19e-06       8663.016085
          2.2e-06       8662.859207
         2.21e-06       8640.486396
         2.22e-06        8663.08275
         2.23e-06       8654.262908
         2.24e-06       8635.252036
         2.25e-06        8633.47733
         2.26e-06       8626.609978
         2.27e-06       8625.833623
         2.28e-06       8631.669456
         2.29e-06       8661.376018
          2.3e-06       8652.963927
         2.31e-06       8649.551066
         2.32e-06       8629.112903
         2.33e-06       8611.995801
         2.34e-06       8619.515557
         2.35e-06       8602.756652
         2.36e-06       8617.183054
         2.37e-06       8603.175945
         2.38e-06       8598.271007
         2.39e-06       8596.314173
          2.4e-06       8598.632397
         2.41e-06        8587.79325
         2.42e-06       8579.282356
         2.43e-06       8551.784105
         2.44e-06       8551.559621
         2.45e-06       8544.769859
         2.46e-06       8534.113283
         2.47e-06       8543.060996
         2.48e-06       8543.752093
         2.49e-06       8540.282191
          2.5e-06       8533.626691
         2.51e-06        8529.75726
         2.52e-06       8522.390601
         2.53e-06       8527.157158
         2.54e-06       8514.151761
         2.55e-06       8505.219271
         2.56e-06       8498.714282
         2.57e-06       8488.186967
         2.58e-06       8486.154394
         2.59e-06       8481.646585
          2.6e-06       8478.250156
         2.61e-06       8458.648666
         2.62e-06       8463.464346
         2.63e-06        8471.73753
         2.64e-06       8460.826135
         2.65e-06       8458.071999
         2.66e-06       8474.858562
         2.67e-06        8467.99617
         2.68e-06       8444.231012
         2.69e-06        8460.43378
          2.7e-06        8460.62392
         2.71e-06       8439.886303
         2.72e-06       8444.774137
         2.73e-06       8452.252572
         2.74e-06       8479.893416
         2.75e-06       8482.786768
         2.76e-06       8453.068988
         2.77e-06       8449.087419
         2.78e-06       8441.941211
         2.79e-06       8430.698149
          2.8e-06       8423.377586
         2.81e-06       8432.711537
         2.82e-06       8412.563552
         2.83e-06       8402.755534
         2.84e-06       8423.255057
         2.85e-06       8426.219252
         2.86e-06       8417.537695
         2.87e-06        8403.03476
         2.88e-06       8397.190066
         2.89e-06       8382.751556
          2.9e-06       8401.115453
         2.91e-06       8388.580633
         2.92e-06       8405.052534
         2.93e-06       8398.726852
         2.94e-06       8404.359255
         2.95e-06       8411.746042
         2.96e-06       8423.126779
         2.97e-06       8429.789576
         2.98e-06       8414.130485
         2.99e-06       8426.032523
            3e-06       8421.695799
         3.01e-06       8405.414433
         3.02e-06       8385.450847
         3.03e-06       8379.219204
         3.04e-06       8369.058124
         3.05e-06       8368.944095
         3.06e-06       8374.420765
         3.07e-06       8384.759992
         3.08e-06       8387.969877
         3.09e-06       8373.592284
          3.1e-06        8368.97644
         3.11e-06       8355.468975
         3.12e-06       8363.202861
         3.13e-06       8363.558792
         3.14e-06       8343.960956
         3.15e-06       8355.905426
         3.16e-06       8343.174987
         3.17e-06       8349.254367
         3.18e-06        8347.45634
         3.19e-06       8338.212313
          3.2e-06       8340.798293
         3.21e-06       8332.435338
         3.22e-06       8323.221523
         3.23e-06       8310.834372
         3.24e-06       8320.545764
         3.25e-06       8319.141408
         3.26e-06       8306.269468
         3.27e-06        8324.92372
         3.28e-06       8316.584174
         3.29e-06       8313.003659
          3.3e-06        8314.54251
         3.31e-06       8315.243508
         3.32e-06       8318.317031
         3.33e-06       8330.179631
         3.34e-06       8324.788999
         3.35e-06       8328.395744
         3.36e-06       8338.829195
         3.37e-06       8332.346935
         3.38e-06       8337.264117
         3.39e-06       8328.955276
          3.4e-06       8327.827727
         3.41e-06       8343.884899
         3.42e-06       8340.718229
         3.43e-06       8325.696109
         3.44e-06       8307.720892
         3.45e-06       8303.404885
         3.46e-06       8296.787857
         3.47e-06       8288.516052
         3.48e-06       8272.627562
         3.49e-06       8268.293527
          3.5e-06        8268.43028
         3.51e-06       8270.987521
         3.52e-06       8280.173385
         3.53e-06       8251.649361
         3.54e-06       8255.728932
         3.55e-06       8234.349896
         3.56e-06       8228.028457
         3.57e-06       8232.499019
         3.58e-06       8229.553918
         3.59e-06       8222.447247
          3.6e-06       8214.257093
         3.61e-06       8229.868643
         3.62e-06       8254.060689
         3.63e-06       8240.700658
         3.64e-06       8237.932593
         3.65e-06       8250.805348
         3.66e-06       8232.990978
         3.67e-06        8245.07146
         3.68e-06        8240.85052
         3.69e-06       8230.116456
          3.7e-06       8226.848052
         3.71e-06       8211.904848
         3.72e-06        8201.99389
         3.73e-06       8200.714076
         3.74e-06       8198.539147
         3.75e-06       8179.643868
         3.76e-06       8184.694268
         3.77e-06       8183.038595
         3.78e-06       8173.490536
         3.79e-06       8171.708032
          3.8e-06        8187.13011
         3.81e-06       8181.991778
         3.82e-06       8177.377522
         3.83e-06       8174.263773
         3.84e-06       8160.015336
         3.85e-06       8162.099793
         3.86e-06       8149.511709
         3.87e-06       8149.936353
         3.88e-06       8142.445988
         3.89e-06       8152.332786
          3.9e-06       8157.266666
         3.91e-06       8166.097675
         3.92e-06       8153.281924
         3.93e-06       8153.778472
         3.94e-06       8147.643665
         3.95e-06       8139.958952
         3.96e-06       8113.522931
         3.97e-06       8122.155298
         3.98e-06       8126.353908
         3.99e-06       8123.256039
            4e-06       8131.630069
         4.01e-06       8137.688682
         4.02e-06        8146.87636
         4.03e-06       8136.200935
         4.04e-06       8127.713828
         4.05e-06       8147.612935
         4.06e-06       8124.704176
         4.07e-06       8116.345762
         4.08e-06       8095.064548
         4.09e-06       8098.699333
          4.1e-06       8091.309584
         4.11e-06       8103.926464
         4.12e-06       8098.207535
         4.13e-06       8097.225332
         4.14e-06       8102.388548
         4.15e-06       8108.295375
         4.16e-06       8106.749408
         4.17e-06       8096.216288
         4.18e-06       8107.290722
         4.19e-06       8105.391018
          4.2e-06        8097.55206
         4.21e-06       8109.259061
         4.22e-06       8099.140415
         4.23e-06       8109.394372
         4.24e-06       8112.119247
         4.25e-06        8105.83993
         4.26e-06       8101.664125
         4.27e-06       8101.713877
         4.28e-06       8076.495693
         4.29e-06       8089.622802
          4.3e-06       8092.381318
         4.31e-06       8092.114283
         4.32e-06        8086.06294
         4.33e-06       8076.153689
         4.34e-06       8066.669327
         4.35e-06       8037.135562
         4.36e-06       8033.799281
         4.37e-06       8039.467486
         4.38e-06       8035.829995
         4.39e-06       8029.568708
          4.4e-06       8048.091075
         4.41e-06       8032.862704
         4.42e-06       8037.872052
         4.43e-06       8043.589546
         4.44e-06       8031.337256
         4.45e-06       8034.006693
         4.46e-06       8044.007344
         4.47e-06       8029.210389
         4.48e-06       8029.414393
         4.49e-06       8034.391185
          4.5e-06        8029.60207
         4.51e-06       8025.541888
         4.52e-06       8033.061746
         4.53e-06       8040.898469
         4.54e-06       8027.706633
         4.55e-06       8026.056539
         4.56e-06       8015.881957
         4.57e-06        8004.80472
         4.58e-06        8007.10058
         4.59e-06       7998.331458
          4.6e-06       7988.315845
         4.61e-06       7977.814682
         4.62e-06       7973.866401
         4.63e-06       7983.634944
         4.64e-06       7984.596537
         4.65e-06       7984.648742
         4.66e-06       7981.883377
         4.67e-06       7982.761601
         4.68e-06       7994.790298
         4.69e-06       8003.251358
          4.7e-06       7998.618086
         4.71e-06       7997.257633
         4.72e-06       7990.736876
         4.73e-06       7988.268164
         4.74e-06       7977.446725
         4.75e-06       7989.508626
         4.76e-06        7994.22375
         4.77e-06       7995.622684
         4.78e-06        7991.90211
         4.79e-06       7998.805765
          4.8e-06       8001.862719
         4.81e-06       8002.000057
         4.82e-06       8005.947926
         4.83e-06       7980.824049
         4.84e-06       7974.544005
         4.85e-06       7983.410687
         4.86e-06       7991.995832
         4.87e-06       7986.611491
         4.88e-06       7983.621317
         4.89e-06       7991.638044
          4.9e-06       7980.461833
         4.91e-06       7988.625076
         4.92e-06       7988.960333
         4.93e-06       7983.579468
         4.94e-06       7992.739463
         4.95e-06       7976.691236
         4.96e-06       7972.620827
         4.97e-06       7955.468627
         4.98e-06        7956.71481
         4.99e-06       7963.662414
            5e-06       7963.077167
         5.01e-06       7976.820285
         5.02e-06       7984.989283
         5.03e-06       7971.647655
         5.04e-06       7966.965883
         5.05e-06       7963.893403
         5.06e-06       7958.760727
         5.07e-06       7954.295702
         5.08e-06       7946.088746
         5.09e-06       7943.961254
          5.1e-06        7935.23998
         5.11e-06       7934.373663
         5.12e-06       7930.766503
         5.13e-06       7923.838563
         5.14e-06       7928.922761
         5.15e-06        7916.81263
         5.16e-06       7935.407235
         5.17e-06        7935.10039
         5.18e-06       7910.669842
         5.19e-06       7908.233945
          5.2e-06       7912.896821
         5.21e-06       7914.256792
         5.22e-06       7928.756321
         5.23e-06       7926.217382
         5.24e-06       7918.726916
         5.25e-06       7906.879137
         5.26e-06        7907.70395
         5.27e-06       7915.825158
         5.28e-06       7925.840948
         5.29e-06       7931.175318
          5.3e-06       7910.291602
         5.31e-06        7899.09215
         5.32e-06       7881.936049
         5.33e-06       7879.790049
         5.34e-06       7868.345589
         5.35e-06       7888.739575
         5.36e-06       7886.234867
         5.37e-06       7890.951574
         5.38e-06       7897.010508
         5.39e-06       7892.467617
          5.4e-06       7863.299001
         5.41e-06       7851.056652
         5.42e-06       7849.075656
         5.43e-06        7840.85091
         5.44e-06       7833.672218
         5.45e-06       7834.780699
         5.46e-06       7842.565934
         5.47e-06       7843.860733
         5.48e-06       7839.475509
         5.49e-06       7834.530103
          5.5e-06       7843.569714
         5.51e-06       7838.841248
         5.52e-06       7838.895563
         5.53e-06       7840.014569
         5.54e-06        7838.97246
         5.55e-06       7844.973209
         5.56e-06       7831.596756
         5.57e-06       7843.163104
         5.58e-06       7844.149921
         5.59e-06       7827.003113
          5.6e-06       7846.676523
         5.61e-06        7830.51742
         5.62e-06       7843.992792
         5.63e-06       7842.551515
         5.64e-06       7850.968821
         5.65e-06       7826.978347
         5.66e-06       7835.177291
         5.67e-06       7833.952807
         5.68e-06       7826.635987
         5.69e-06       7820.984086
          5.7e-06       7823.981403
         5.71e-06       7823.449458
         5.72e-06       7819.634088
         5.73e-06       7830.377856
         5.74e-06       7841.078166
         5.75e-06       7830.762683
         5.76e-06       7810.441514
         5.77e-06       7803.146443
         5.78e-06       7818.529228
         5.79e-06       7821.141618
          5.8e-06       7801.038078
         5.81e-06       7796.207261
         5.82e-06        7799.40239
         5.83e-06       7803.998119
         5.84e-06       7801.294717
         5.85e-06       7800.815112
         5.86e-06       7803.672844
         5.87e-06       7786.252905
         5.88e-06       7795.850514
         5.89e-06       7786.001596
          5.9e-06       7799.640031
         5.91e-06        7801.86564
         5.92e-06       7769.260943
         5.93e-06       7765.776238
         5.94e-06       7777.368478
         5.95e-06       7753.878477
         5.96e-06       7756.906345
         5.97e-06       7759.288116
         5.98e-06       7765.671407
         5.99e-06       7765.616919
            6e-06       7782.886978
         6.01e-06       7800.809057
         6.02e-06       7799.912906
         6.03e-06       7797.928917
         6.04e-06       7792.741842
         6.05e-06        7803.21648
         6.06e-06       7778.503379
         6.07e-06       7793.417284
         6.08e-06       7776.937959
         6.09e-06       7764.577552
          6.1e-06       7763.722663
         6.11e-06       7769.695487
         6.12e-06        7772.66343
         6.13e-06       7764.805803
         6.14e-06       7761.361435
         6.15e-06       7761.388067
         6.16e-06       7752.613466
         6.17e-06       7763.777292
         6.18e-06       7764.040956
         6.19e-06       7770.676264
          6.2e-06        7770.34638
         6.21e-06       7759.064641
         6.22e-06        7768.76414
         6.23e-06       7749.173352
         6.24e-06        7742.54177
         6.25e-06       7745.439628
         6.26e-06       7729.635455
         6.27e-06       7733.180095
         6.28e-06       7758.009092
         6.29e-06       7749.542535
          6.3e-06       7744.533522
         6.31e-06       7751.375707
         6.32e-06       7773.783427
         6.33e-06       7757.738528
         6.34e-06       7758.410178
         6.35e-06       7762.566737
         6.36e-06       7770.115668
         6.37e-06       7754.844618
         6.38e-06        7744.81769
         6.39e-06       7753.562194
          6.4e-06       7758.077026
         6.41e-06        7754.72163
         6.42e-06       7746.646006
         6.43e-06       7756.916997
         6.44e-06       7759.233608
         6.45e-06       7758.267287
         6.46e-06       7756.443856
         6.47e-06       7754.176888
         6.48e-06       7779.555548
         6.49e-06       7776.232903
          6.5e-06       7787.141608
         6.51e-06       7781.386689
         6.52e-06       7771.772593
         6.53e-06          7761.854
         6.54e-06       7751.999554
         6.55e-06       7745.163507
         6.56e-06       7748.844118
         6.57e-06       7740.542592
         6.58e-06       7732.032667
         6.59e-06       7740.482916
          6.6e-06       7720.772098
         6.61e-06       7720.578987
         6.62e-06       7717.825862
         6.63e-06       7725.253818
         6.64e-06       7736.161284
         6.65e-06       7725.454022
         6.66e-06       7711.968088
         6.67e-06       7705.560746
         6.68e-06       7715.051986
         6.69e-06       7714.813906
          6.7e-06       7713.876014
         6.71e-06       7711.382024
         6.72e-06       7716.412367
         6.73e-06       7716.770998
         6.74e-06       7725.519558
         6.75e-06       7714.366036
         6.76e-06       7715.899195
         6.77e-06        7710.83999
         6.78e-06       7727.085975
         6.79e-06       7714.967442
          6.8e-06       7714.180975
         6.81e-06       7713.473515
         6.82e-06       7715.602191
         6.83e-06       7705.395946
         6.84e-06       7715.757137
         6.85e-06       7710.143088
         6.86e-06       7696.358818
         6.87e-06       7684.061556
         6.88e-06       7693.706516
         6.89e-06       7688.190696
          6.9e-06       7689.639618
         6.91e-06       7681.380795
         6.92e-06       7678.922933
         6.93e-06       7669.074533
         6.94e-06       7666.953785
         6.95e-06       7656.532425
         6.96e-06       7665.959043
         6.97e-06       7682.197916
         6.98e-06       7676.999914
         6.99e-06       7683.010279
            7e-06       7676.986288
         7.01e-06       7670.647881
         7.02e-06       7667.590641
         7.03e-06       7653.742461
         7.04e-06       7647.923128
         7.05e-06       7626.794869
         7.06e-06       7629.248258
         7.07e-06       7639.082536
         7.08e-06       7645.229008
         7.09e-06       7650.827595
          7.1e-06       7650.744727
         7.11e-06       7658.551531
         7.12e-06       7644.039298
         7.13e-06           7654.79
         7.14e-06       7663.463425
         7.15e-06       7661.192391
         7.16e-06       7679.865976
         7.17e-06       7667.502294
         7.18e-06       7647.510622
         7.19e-06       7646.983608
          7.2e-06       7652.297218
         7.21e-06       7640.912418
         7.22e-06         7628.3294
         7.23e-06       7635.756948
         7.24e-06        7645.63691
         7.25e-06       7653.192684
         7.26e-06       7656.025563
         7.27e-06       7661.495383
         7.28e-06       7658.819042
         7.29e-06        7659.18642
          7.3e-06       7650.947676
         7.31e-06       7657.967224
         7.32e-06       7643.877003
         7.33e-06       7646.045158
         7.34e-06       7641.668264
         7.35e-06       7629.921035
         7.36e-06       7650.984655
         7.37e-06       7651.492437
         7.38e-06        7649.53881
         7.39e-06       7638.211871
          7.4e-06       7631.326522
         7.41e-06       7617.160608
         7.42e-06       7616.911744
         7.43e-06       7622.526204
         7.44e-06       7625.660796
         7.45e-06        7612.37582
         7.46e-06       7617.781952
         7.47e-06       7611.174483
         7.48e-06       7596.864872
         7.49e-06       7605.227356
          7.5e-06        7596.77964
         7.51e-06       7597.589604
         7.52e-06       7602.610699
         7.53e-06       7610.337457
         7.54e-06       7619.802125
         7.55e-06       7621.900306
         7.56e-06       7617.742742
         7.57e-06       7621.374423
         7.58e-06       7605.008595
         7.59e-06       7611.626939
          7.6e-06       7602.891276
         7.61e-06       7604.179556
         7.62e-06       7603.861266
         7.63e-06       7596.442791
         7.64e-06       7606.185311
         7.65e-06       7613.093286
         7.66e-06       7627.049472
         7.67e-06       7617.220129
         7.68e-06        7614.30738
         7.69e-06       7595.311167
          7.7e-06       7588.033654
         7.71e-06       7599.210005
         7.72e-06       7601.565045
         7.73e-06       7599.105578
         7.74e-06       7589.524104
         7.75e-06       7582.236533
         7.76e-06       7584.453614
         7.77e-06       7600.430453
         7.78e-06       7590.791213
         7.79e-06       7600.279052
          7.8e-06       7588.456896
         7.81e-06       7587.185529
         7.82e-06       7598.004667
         7.83e-06       7588.741578
         7.84e-06       7578.458286
         7.85e-06       7590.888565
         7.86e-06       7596.608486
         7.87e-06        7596.12302
         7.88e-06       7602.549361
         7.89e-06       7599.746164
          7.9e-06       7582.747414
         7.91e-06       7584.254688
         7.92e-06       7592.586868
         7.93e-06       7600.602165
         7.94e-06       7590.517076
         7.95e-06       7579.113178
         7.96e-06       7560.622627
         7.97e-06       7570.598634
         7.98e-06       7586.852505
         7.99e-06       7586.976086
            8e-06       7589.435128
         8.01e-06       7578.413578
         8.02e-06       7588.028332
         8.03e-06       7583.797954
         8.04e-06       7574.909451
         8.05e-06        7565.97813
         8.06e-06       7553.111944
         8.07e-06       7573.580575
         8.08e-06        7582.05969
         8.09e-06       7588.709296
          8.1e-06       7579.217102
         8.11e-06       7577.965595
         8.12e-06       7580.911581
         8.13e-06       7577.608773
         8.14e-06       7582.206126
         8.15e-06       7573.032582
         8.16e-06       7582.745253
         8.17e-06       7574.066906
         8.18e-06       7555.194454
         8.19e-06       7558.025826
          8.2e-06          7541.298
         8.21e-06       7540.451812
         8.22e-06       7532.861381
         8.23e-06       7544.102132
         8.24e-06       7549.051789
         8.25e-06       7545.903202
         8.26e-06       7545.782934
         8.27e-06       7548.920043
         8.28e-06       7531.957992
         8.29e-06       7533.395263
          8.3e-06       7530.842979
         8.31e-06       7533.367739