# Probe 0 (5e-06 5e-06 5e-06)
#           Probe                 0
#            Time
            1e-08       9974.627716
            2e-08       9949.468449
            3e-08       9930.566074
            4e-08       9923.107842
            5e-08       9919.173376
            6e-08       9896.719469
            7e-08       9865.748691
            8e-08       9857.914886
            9e-08       9852.618349
            1e-07       9838.568012
          1.1e-07       9823.320283
          1.2e-07       9816.096594
          1.3e-07       9820.975455
          1.4e-07        9814.82869
          1.5e-07       9804.406784
          1.6e-07       9796.167692
          1.7e-07       9792.526767
          1.8e-07        9783.06187
          1.9e-07       9771.311307
            2e-07       9746.082199
          2.1e-07       9741.386517
          2.2e-07       9734.825992
          2.3e-07       9733.898401
          2.4e-07       9730.331914
          2.5e-07       9724.743155
          2.6e-07       9710.573934
          2.7e-07       9701.848797
          2.8e-07       9686.337931
          2.9e-07       9673.961427
            3e-07       9661.661624
          3.1e-07       9658.168484
          3.2e-07       9653.228743
          3.3e-07       9635.632255
          3.4e-07        9633.22697
          3.5e-07       9622.311355
          3.6e-07       9622.278219
          3.7e-07       9614.940996
          3.8e-07       9603.158118
          3.9e-07       9583.699386
            4e-07       9581.628506
          4.1e-07       9564.511324
          4.2e-07       9562.786901
          4.3e-07       9548.483723
          4.4e-07       9542.267443
          4.5e-07       9539.032003
          4.6e-07       9541.506119
          4.7e-07       9533.077201
          4.8e-07       9523.577978
          4.9e-07       9517.852871
            5e-07       9507.853222
          5.1e-07       9505.637672
          5.2e-07       9490.277305
          5.3e-07       9477.280889
          5.4e-07       9476.624255
          5.5e-07       9469.545287
          5.6e-07       9453.682208
          5.7e-07       9435.470307
          5.8e-07       9439.979715
          5.9e-07       9441.421483
            6e-07       9433.705832
          6.1e-07       9409.375047
          6.2e-07       9403.842242
          6.3e-07       9397.101039
          6.4e-07       9398.676532
          6.5e-07       9381.557883
          6.6e-07       9377.131477
          6.7e-07        9359.99866
          6.8e-07       9356.063586
          6.9e-07       9342.895841
            7e-07       9335.660575
          7.1e-07       9327.606458
          7.2e-07       9317.392899
          7.3e-07       9308.555043
          7.4e-07       9309.919124
          7.5e-07       9323.679902
          7.6e-07       9318.488923
          7.7e-07       9314.008989
          7.8e-07       9307.693065
          7.9e-07       9300.521261
            8e-07       9293.514143
          8.1e-07       9282.241312
          8.2e-07       9278.539047
          8.3e-07       9263.583381
          8.4e-07       9257.764336
          8.5e-07       9255.821178
          8.6e-07       9243.913734
          8.7e-07       9243.513663
          8.8e-07       9243.092447
          8.9e-07       9233.237852
            9e-07       9230.570848
          9.1e-07       9206.689232
          9.2e-07       9200.575365
          9.3e-07       9183.844003
          9.4e-07       9169.565022
          9.5e-07       9164.641051
          9.6e-07       9156.761013
          9.7e-07       9154.263344
          9.8e-07       9145.457806
          9.9e-07       9157.753746
            1e-06       9148.695809
         1.01e-06       9150.981096
         1.02e-06       9151.379105
         1.03e-06       9143.799631
         1.04e-06       9134.026491
         1.05e-06       9134.984264
         1.06e-06       9124.240391
         1.07e-06       9109.832569
         1.08e-06       9102.922935
         1.09e-06       9099.163194
          1.1e-06       9105.318356
         1.11e-06       9101.793281
         1.12e-06       9105.322143
         1.13e-06       9099.580007
         1.14e-06        9085.78033
         1.15e-06       9081.410726
         1.16e-06       9069.306575
         1.17e-06       9077.208056
         1.18e-06       9076.914308
         1.19e-06       9080.082649
          1.2e-06       9062.045633
         1.21e-06       9050.520532
         1.22e-06       9031.749699
         1.23e-06       9031.371826
         1.24e-06       9031.895075
         1.25e-06       9013.678581
         1.26e-06       9005.693942
         1.27e-06       8986.865969
         1.28e-06       8990.137603
         1.29e-06       8975.552227
          1.3e-06       8977.505799
         1.31e-06       8978.528716
         1.32e-06        8978.89062
         1.33e-06       8961.385234
         1.34e-06       8967.689365
         1.35e-06       8961.856365
         1.36e-06       8951.329395
         1.37e-06       8937.568685
         1.38e-06       8940.524762
         1.39e-06       8945.074025
          1.4e-06       8941.520068
         1.41e-06       8936.924247
         1.42e-06       8937.642652
         1.43e-06       8925.675564
         1.44e-06       8919.236881
         1.45e-06       8921.706927
         1.46e-06        8928.21514
         1.47e-06       8914.298447
         1.48e-06       8911.853064
         1.49e-06       8909.571183
          1.5e-06       8892.616999
         1.51e-06       8874.378168
         1.52e-06       8881.911536
         1.53e-06       8869.145916
         1.54e-06       8856.663942
         1.55e-06       8850.492213
         1.56e-06       8858.143893
         1.57e-06       8836.943149
         1.58e-06       8832.902981
         1.59e-06       8822.908374
          1.6e-06       8824.388905
         1.61e-06       8810.901467
         1.62e-06       8807.804617
         1.63e-06       8802.873616
         1.64e-06       8800.896702
         1.65e-06       8806.412209
         1.66e-06       8814.207706
         1.67e-06       8794.567483
         1.68e-06       8797.990323
         1.69e-06       8797.204699
          1.7e-06       8799.323856
         1.71e-06       8794.137006
         1.72e-06       8781.678791
         1.73e-06        8777.74669
         1.74e-06       8776.434279
         1.75e-06       8782.659465
         1.76e-06       8784.670834
         1.77e-06       8781.091836
         1.78e-06       8770.455713
         1.79e-06       8768.120563
          1.8e-06       8760.030263
         1.81e-06       8740.642949
         1.82e-06       8750.829954
         1.83e-06       8737.049423
         1.84e-06       8727.532447
         1.85e-06       8724.728742
         1.86e-06       8710.669504
         1.87e-06       8714.296505
         1.88e-06       8706.676518
         1.89e-06       8717.222379
          1.9e-06       8710.798603
         1.91e-06       8711.772582
         1.92e-06       8706.918312
         1.93e-06       8707.562217
         1.94e-06       8713.252558
         1.95e-06       8715.514425
         1.96e-06       8716.003447
         1.97e-06       8716.081573
         1.98e-06       8710.670315
         1.99e-06       8713.040937
            2e-06       8713.429485
         2.01e-06       8695.685778
         2.02e-06       8696.394181
         2.03e-06       8698.008005
         2.04e-06       8684.760528
         2.05e-06       8673.085479
         2.06e-06       8673.875577
         2.07e-06       8664.899124
         2.08e-06        8668.90237
         2.09e-06       8657.502367
          2.1e-06       8639.689738
         2.11e-06        8639.47142
         2.12e-06       8637.305939
         2.13e-06        8638.50507
         2.14e-06       8640.871113
         2.15e-06       8632.898315
         2.16e-06       8627.658718
         2.17e-06       8621.246715
         2.18e-06       8614.856796
         2.19e-06        8608.72463
          2.2e-06       8600.548152
         2.21e-06        8609.10737
         2.22e-06        8589.27419
         2.23e-06       8588.971878
         2.24e-06       8595.559347
         2.25e-06       8591.623121
         2.26e-06       8590.344077
         2.27e-06       8588.033358
         2.28e-06       8579.169133
         2.29e-06        8556.51946
          2.3e-06       8557.888884
         2.31e-06       8556.396874
         2.32e-06       8564.068977
         2.33e-06       8568.864604
         2.34e-06       8558.017328
         2.35e-06       8563.136645
         2.36e-06       8549.911302
         2.37e-06       8550.841592
         2.38e-06       8552.169076
         2.39e-06       8545.451216
          2.4e-06       8537.018003
         2.41e-06       8539.009784
         2.42e-06       8541.161195
         2.43e-06       8551.325684
         2.44e-06       8546.710802
         2.45e-06       8547.075972
         2.46e-06       8546.304318
         2.47e-06        8533.14862
         2.48e-06       8527.100946
         2.49e-06       8523.974765
          2.5e-06       8522.339166
         2.51e-06       8521.078859
         2.52e-06       8521.769143
         2.53e-06       8511.675902
         2.54e-06       8511.887274
         2.55e-06       8512.958737
         2.56e-06       8510.760176
         2.57e-06       8514.791162
         2.58e-06       8511.504188
         2.59e-06       8509.518494
          2.6e-06        8503.91733
         2.61e-06       8511.499467
         2.62e-06       8505.170995
         2.63e-06       8494.503018
         2.64e-06       8497.147073
         2.65e-06       8493.291016
         2.66e-06       8476.637875
         2.67e-06       8475.551379
         2.68e-06       8486.711489
         2.69e-06       8469.405508
          2.7e-06       8461.628904
         2.71e-06       8469.191644
         2.72e-06       8459.609868
         2.73e-06       8450.984848
         2.74e-06       8428.825146
         2.75e-06       8420.317367
         2.76e-06       8435.478325
         2.77e-06       8433.471433
         2.78e-06       8433.238843
         2.79e-06       8432.116444
          2.8e-06       8432.962302
         2.81e-06       8423.430979
         2.82e-06       8432.879043
         2.83e-06       8434.047313
         2.84e-06       8416.657122
         2.85e-06       8407.991402
         2.86e-06       8409.050803
         2.87e-06       8414.613565
         2.88e-06       8412.416699
         2.89e-06       8415.843781
          2.9e-06       8399.370032
         2.91e-06       8403.053507
         2.92e-06       8386.480883
         2.93e-06       8385.195294
         2.94e-06       8376.422755
         2.95e-06       8367.396491
         2.96e-06        8355.13711
         2.97e-06       8343.515774
         2.98e-06       8350.760688
         2.99e-06          8336.897
            3e-06       8333.402392
         3.01e-06       8339.290519
         3.02e-06       8349.753736
         3.03e-06       8348.033459
         3.04e-06        8346.86446
         3.05e-06        8343.05622
         3.06e-06       8334.445458
         3.07e-06       8323.161626
         3.08e-06        8318.57812
         3.09e-06       8323.859905
          3.1e-06       8321.191896
         3.11e-06       8326.525638
         3.12e-06       8318.565413
         3.13e-06       8313.651563
         3.14e-06       8324.149937
         3.15e-06       8314.292255
         3.16e-06       8318.359134
         3.17e-06       8309.512432
         3.18e-06       8306.019965
         3.19e-06        8311.86654
          3.2e-06        8304.30542
         3.21e-06       8306.208314
         3.22e-06       8311.127334
         3.23e-06       8313.562632
         3.24e-06       8304.204645
         3.25e-06       8300.875719
         3.26e-06       8302.467543
         3.27e-06       8285.027962
         3.28e-06        8285.03838
         3.29e-06       8282.200288
          3.3e-06        8278.56483
         3.31e-06       8273.279613
         3.32e-06       8267.144643
         3.33e-06       8253.688593
         3.34e-06       8252.383764
         3.35e-06       8246.802717
         3.36e-06       8238.147243
         3.37e-06       8238.039788
         3.38e-06        8231.28278
         3.39e-06        8234.65374
          3.4e-06       8230.548327
         3.41e-06       8214.426647
         3.42e-06       8209.214211
         3.43e-06       8217.253532
         3.44e-06       8224.662282
         3.45e-06       8224.976652
         3.46e-06        8224.44067
         3.47e-06       8226.251217
         3.48e-06       8230.978194
         3.49e-06       8231.463223
          3.5e-06       8227.580227
         3.51e-06       8222.834959
         3.52e-06       8214.372906
         3.53e-06       8228.399345
         3.54e-06       8223.710459
         3.55e-06       8234.059384
         3.56e-06       8232.581782
         3.57e-06       8226.849565
         3.58e-06       8225.230982
         3.59e-06       8223.903503
          3.6e-06       8225.136278
         3.61e-06       8210.463968
         3.62e-06        8190.75917
         3.63e-06       8193.968444
         3.64e-06       8189.454027
         3.65e-06       8176.499356
         3.66e-06       8182.890449
         3.67e-06       8170.146597
         3.68e-06       8170.414893
         3.69e-06       8173.991091
          3.7e-06       8168.062476
         3.71e-06       8173.442875
         3.72e-06       8174.287045
         3.73e-06       8170.150194
         3.74e-06       8169.510922
         3.75e-06       8180.121461
         3.76e-06       8172.862507
         3.77e-06       8169.281915
         3.78e-06       8171.044213
         3.79e-06       8168.416948
          3.8e-06       8153.076027
         3.81e-06       8154.202327
         3.82e-06       8152.805165
         3.83e-06       8152.510001
         3.84e-06       8157.304148
         3.85e-06       8155.284499
         3.86e-06       8160.414075
         3.87e-06       8157.504786
         3.88e-06       8159.356364
         3.89e-06       8149.021618
          3.9e-06       8143.191587
         3.91e-06       8133.635549
         3.92e-06       8138.793352
         3.93e-06       8132.149632
         3.94e-06       8132.033802
         3.95e-06       8135.277112
         3.96e-06       8151.327893
         3.97e-06       8141.327992
         3.98e-06       8136.174353
         3.99e-06       8136.283902
            4e-06       8125.694203
         4.01e-06       8117.229415
         4.02e-06       8106.633616
         4.03e-06       8107.296877
         4.04e-06       8108.585021
         4.05e-06       8092.516593
         4.06e-06       8105.624958
         4.07e-06       8108.591197
         4.08e-06       8119.590737
         4.09e-06       8112.301338
          4.1e-06       8115.353082
         4.11e-06       8102.246013
         4.12e-06       8103.164827
         4.13e-06       8100.543322
         4.14e-06       8095.002428
         4.15e-06       8087.293758
         4.16e-06       8084.170363
         4.17e-06       8087.222191
         4.18e-06        8076.93531
         4.19e-06       8076.924188
          4.2e-06       8079.775047
         4.21e-06       8068.243174
         4.22e-06        8069.44462
         4.23e-06       8058.637226
         4.24e-06       8051.862053
         4.25e-06       8051.061804
         4.26e-06       8049.375475
         4.27e-06       8047.524551
         4.28e-06       8060.736553
         4.29e-06       8048.410335
          4.3e-06       8043.022616
         4.31e-06       8037.955106
         4.32e-06       8036.504418
         4.33e-06       8039.683388
         4.34e-06       8042.711345
         4.35e-06       8059.129457
         4.36e-06        8058.56857
         4.37e-06       8052.093763
         4.38e-06       8050.230603
         4.39e-06       8049.799785
          4.4e-06       8033.356347
         4.41e-06       8041.893194
         4.42e-06       8034.708339
         4.43e-06       8028.029245
         4.44e-06       8034.873818
         4.45e-06       8031.203206
         4.46e-06       8022.419366
         4.47e-06       8027.714739
         4.48e-06       8025.241966
         4.49e-06       8018.805624
          4.5e-06       8019.069105
         4.51e-06       8018.294567
         4.52e-06       8009.497238
         4.53e-06       8001.324417
         4.54e-06       8007.344943
         4.55e-06       8006.906974
         4.56e-06       8011.097473
         4.57e-06       8016.950439
         4.58e-06       8012.355438
         4.59e-06       8012.360087
          4.6e-06       8014.838357
         4.61e-06       8018.978795
         4.62e-06        8017.03735
         4.63e-06       8007.987045
         4.64e-06       8004.540655
         4.65e-06        8003.31313
         4.66e-06       8001.693144
         4.67e-06       7999.400333
         4.68e-06        7984.86511
         4.69e-06       7976.980874
          4.7e-06       7976.746634
         4.71e-06       7977.397676
         4.72e-06       7978.445826
         4.73e-06       7977.729343
         4.74e-06       7983.032074
         4.75e-06       7972.208245
         4.76e-06       7968.349993
         4.77e-06       7964.018929
         4.78e-06       7962.404363
         4.79e-06       7955.128153
          4.8e-06       7947.831017
         4.81e-06       7945.357687
         4.82e-06       7938.105403
         4.83e-06        7951.13891
         4.84e-06       7950.396432
         4.85e-06       7942.791464
         4.86e-06       7933.658003
         4.87e-06       7932.998333
         4.88e-06       7930.282711
         4.89e-06       7923.423843
          4.9e-06       7926.463514
         4.91e-06       7920.451523
         4.92e-06       7917.841456
         4.93e-06       7919.908085
         4.94e-06       7909.794942
         4.95e-06       7918.638447
         4.96e-06       7918.044693
         4.97e-06       7927.756946
         4.98e-06       7923.055687
         4.99e-06       7913.274069
            5e-06       7910.468339
         5.01e-06       7899.705539
         5.02e-06       7892.390186
         5.03e-06       7898.554022
         5.04e-06       7897.331684
         5.05e-06       7897.057749
         5.06e-06        7896.68083
         5.07e-06       7897.592394
         5.08e-06        7904.33515
         5.09e-06       7903.286714
          5.1e-06       7906.604329
         5.11e-06       7904.584253
         5.12e-06       7904.380174
         5.13e-06       7905.822219
         5.14e-06       7898.773329
         5.15e-06       7903.207897
         5.16e-06        7886.89365
         5.17e-06         7885.8725
         5.18e-06       7897.923708
         5.19e-06       7896.352187
          5.2e-06       7890.811711
         5.21e-06       7887.663748
         5.22e-06       7876.283423
         5.23e-06       7874.673614
         5.24e-06       7877.465908
         5.25e-06       7882.988728
         5.26e-06        7880.49177
         5.27e-06       7870.664008
         5.28e-06       7860.943927
         5.29e-06       7855.019904
          5.3e-06       7867.332157
         5.31e-06       7874.671231
         5.32e-06       7883.501894
         5.33e-06       7883.809287
         5.34e-06       7887.461486
         5.35e-06       7872.439078
         5.36e-06       7868.220828
         5.37e-06       7861.574942
         5.38e-06       7853.372748
         5.39e-06        7853.58583
          5.4e-06       7871.553245
         5.41e-06       7877.495523
         5.42e-06       7877.620812
         5.43e-06       7880.333959
         5.44e-06       7883.068897
         5.45e-06       7881.729842
         5.46e-06       7873.703255
         5.47e-06       7870.556527
         5.48e-06       7869.678617
         5.49e-06       7870.854832
          5.5e-06       7861.899856
         5.51e-06       7862.074688
         5.52e-06        7860.03356
         5.53e-06       7856.874842
         5.54e-06       7854.804115
         5.55e-06       7848.462425
         5.56e-06       7854.411654
         5.57e-06       7844.823011
         5.58e-06       7839.882392
         5.59e-06       7847.066523
          5.6e-06       7830.986225
         5.61e-06       7840.531094
         5.62e-06       7830.159802
         5.63e-06       7828.344025
         5.64e-06       7820.785738
         5.65e-06       7834.968299
         5.66e-06        7828.48577
         5.67e-06       7827.349706
         5.68e-06       7828.873827
         5.69e-06       7830.721852
          5.7e-06       7827.193976
         5.71e-06       7826.240084
         5.72e-06       7826.766214
         5.73e-06       7816.727437
         5.74e-06       7807.878134
         5.75e-06       7813.871013
         5.76e-06       7825.625069
         5.77e-06       7827.527074
         5.78e-06       7814.649479
         5.79e-06        7810.09193
          5.8e-06       7821.219124
         5.81e-06       7822.611504
         5.82e-06       7816.881306
         5.83e-06       7808.974769
         5.84e-06       7807.684256
         5.85e-06       7805.498747
         5.86e-06       7801.863461
         5.87e-06       7815.526413
         5.88e-06       7809.073098
         5.89e-06       7812.793735
          5.9e-06       7799.984162
         5.91e-06       7796.374604
         5.92e-06       7815.307734
         5.93e-06       7816.210187
         5.94e-06       7809.389311
         5.95e-06       7822.434287
         5.96e-06       7816.479353
         5.97e-06       7812.967071
         5.98e-06       7809.057232
         5.99e-06       7806.505769
            6e-06       7793.197062
         6.01e-06       7777.277472
         6.02e-06       7776.725283
         6.03e-06       7774.627647
         6.04e-06       7773.452749
         6.05e-06       7763.470225
         6.06e-06       7780.683934
         6.07e-06         7767.3841
         6.08e-06       7775.610619
         6.09e-06       7780.061827
          6.1e-06       7780.078026
         6.11e-06        7774.45827
         6.12e-06       7769.177858
         6.13e-06       7770.768579
         6.14e-06       7772.633572
         6.15e-06       7770.804096
         6.16e-06       7775.824005
         6.17e-06       7767.554279
         6.18e-06       7767.675618
         6.19e-06       7759.628508
          6.2e-06       7756.601892
         6.21e-06       7763.534633
         6.22e-06       7755.473772
         6.23e-06       7769.445295
         6.24e-06       7771.288466
         6.25e-06       7769.587764
         6.26e-06       7779.465909
         6.27e-06       7776.311739
         6.28e-06       7761.000393
         6.29e-06       7762.074948
          6.3e-06       7764.495875
         6.31e-06       7757.223806
         6.32e-06       7741.130993
         6.33e-06        7751.15917
         6.34e-06       7749.268438
         6.35e-06       7743.762234
         6.36e-06       7738.225271
         6.37e-06        7745.17209
         6.38e-06       7751.639087
         6.39e-06       7744.190732
          6.4e-06        7739.48973
         6.41e-06        7737.57562
         6.42e-06       7742.901215
         6.43e-06       7734.335923
         6.44e-06       7733.566189
         6.45e-06       7731.738555
         6.46e-06       7729.467103
         6.47e-06        7731.08367
         6.48e-06        7711.21353
         6.49e-06       7711.244634
          6.5e-06       7699.326342
         6.51e-06       7700.026543
         6.52e-06        7704.68054
         6.53e-06       7707.046612
         6.54e-06       7711.944402
         6.55e-06       7713.571058
         6.56e-06       7707.436366
         6.57e-06        7709.52501
         6.58e-06       7711.198017
         6.59e-06       7704.276145
          6.6e-06       7713.714273
         6.61e-06       7713.485364
         6.62e-06       7713.128756
         6.63e-06       7705.509249
         6.64e-06       7694.062079
         6.65e-06       7699.088125
         6.66e-06       7703.373845
         6.67e-06        7705.68995
         6.68e-06       7698.082722
         6.69e-06       7697.194537
          6.7e-06       7694.988462
         6.71e-06        7695.89301
         6.72e-06       7688.798378
         6.73e-06       7685.905906
         6.74e-06       7677.175459
         6.75e-06       7682.364733
         6.76e-06       7680.920598
         6.77e-06       7684.164418
         6.78e-06       7669.708219
         6.79e-06       7676.546566
          6.8e-06       7674.979632
         6.81e-06       7672.316019
         6.82e-06        7669.06986
         6.83e-06       7672.649518
         6.84e-06       7664.593917
         6.85e-06       7668.168141
         6.86e-06       7675.673758
         6.87e-06        7680.80957
         6.88e-06       7674.049032
         6.89e-06       7677.487039
          6.9e-06       7673.045166
         6.91e-06       7676.341554
         6.92e-06       7677.595995
         6.93e-06       7681.996458
         6.94e-06       7683.555348
         6.95e-06       7687.166848
         6.96e-06       7679.160853
         6.97e-06       7667.883395
         6.98e-06       7667.792932
         6.99e-06       7663.416198
            7e-06       7665.864188
         7.01e-06       7668.970293
         7.02e-06       7667.509297
         7.03e-06       7673.157992
         7.04e-06       7676.107037
         7.05e-06       7688.531729
         7.06e-06       7687.271492
         7.07e-06       7678.021207
         7.08e-06       7670.759147
         7.09e-06       7666.325061
          7.1e-06       7662.679432
         7.11e-06       7653.798912
         7.12e-06       7660.439949
         7.13e-06       7652.724292
         7.14e-06       7646.989612
         7.15e-06       7648.158009
         7.16e-06       7634.593418
         7.17e-06       7641.577607
         7.18e-06       7653.965256
         7.19e-06       7652.466324
          7.2e-06       7646.434455
         7.21e-06       7651.417549
         7.22e-06       7657.643333
         7.23e-06       7652.900646
         7.24e-06       7644.855484
         7.25e-06       7638.325023
         7.26e-06       7634.841309
         7.27e-06       7628.922008
         7.28e-06       7628.462807
         7.29e-06       7626.042462
          7.3e-06       7631.761727
         7.31e-06       7623.935325
         7.32e-06       7631.756113
         7.33e-06       7627.209902
         7.34e-06        7627.53048
         7.35e-06       7633.206845
         7.36e-06        7618.68125
         7.37e-06       7615.274339
         7.38e-06       7615.040314
         7.39e-06       7620.899256
          7.4e-06        7623.47771
         7.41e-06       7629.412307
         7.42e-06       7628.138966
         7.43e-06       7624.724547
         7.44e-06        7617.40121
         7.45e-06       7623.626843
         7.46e-06       7620.331382
         7.47e-06       7619.501083
         7.48e-06       7625.467362
         7.49e-06       7618.350938
          7.5e-06        7622.65874
         7.51e-06       7619.100985
         7.52e-06       7615.098839
         7.53e-06       7610.117121
         7.54e-06       7599.858766
         7.55e-06       7595.822224
         7.56e-06       7596.779468
         7.57e-06       7591.941579
         7.58e-06       7602.844272
         7.59e-06       7598.406343
          7.6e-06        7602.56001
         7.61e-06       7601.090238
         7.62e-06       7598.793203
         7.63e-06       7602.501699
         7.64e-06       7594.846352
         7.65e-06       7590.003079
         7.66e-06        7580.34818
         7.67e-06       7587.579935
         7.68e-06       7588.472295
         7.69e-06       7600.502119
          7.7e-06        7604.06265
         7.71e-06       7594.286028
         7.72e-06       7591.104903
         7.73e-06       7592.959107
         7.74e-06       7596.158797
         7.75e-06       7595.975723
         7.76e-06       7593.655499
         7.77e-06       7580.816263
         7.78e-06       7584.629072
         7.79e-06       7578.202307
          7.8e-06       7584.481177
         7.81e-06       7583.011309
         7.82e-06       7573.819566
         7.83e-06       7579.750476
         7.84e-06       7584.682822
         7.85e-06       7576.415426
         7.86e-06       7571.554257
         7.87e-06       7569.306146
         7.88e-06       7564.515233
         7.89e-06       7565.388225
          7.9e-06       7574.843016
         7.91e-06       7572.347954
         7.92e-06       7563.933968
         7.93e-06       7556.480759
         7.94e-06       7561.440345
         7.95e-06       7570.080853
         7.96e-06       7580.892351
         7.97e-06       7571.443824
         7.98e-06       7557.668971
         7.99e-06       7554.378342
            8e-06       7552.179258
         8.01e-06       7555.873622
         8.02e-06       7548.062962
         8.03e-06       7548.103801
         8.04e-06       7551.551147
         8.05e-06       7553.887608
         8.06e-06       7563.241629
         8.07e-06       7547.297424
         8.08e-06       7539.355614
         8.09e-06       7533.368408
          8.1e-06       7537.692201
         8.11e-06       7536.236975
         8.12e-06       7532.684497
         8.13e-06       7534.382866
         8.14e-06       7528.887488
         8.15e-06       7534.595299
         8.16e-06       7524.753224
         8.17e-06       7531.778181
         8.18e-06        7541.58874
         8.19e-06       7537.736246
          8.2e-06       7546.699589
         8.21e-06       7545.851501
         8.22e-06       7548.432853
         8.23e-06       7538.967552
         8.24e-06       7535.998649
         8.25e-06       7537.898797
         8.26e-06       7535.498727
         8.27e-06       7534.406735
         8.28e-06       7546.592923
         8.29e-06       7544.187891
          8.3e-06       7545.394301
         8.31e-06       7542.260084