# Probe 0 (5e-06 5e-06 5e-06)
#           Probe                 0
#            Time
            1e-08       474.0711833
            2e-08        563.875324
            3e-08       632.4033222
            4e-08       692.0260755
            5e-08        743.092154
            6e-08       790.1116164
            7e-08        833.166452
            8e-08       871.7246799
            9e-08       904.2774109
            1e-07       942.0834764
          1.1e-07       976.9463861
          1.2e-07       1009.707774
          1.3e-07       1040.583861
          1.4e-07        1073.60878
          1.5e-07       1106.328044
          1.6e-07       1130.979574
          1.7e-07       1156.344351
          1.8e-07       1181.502016
          1.9e-07       1208.361766
            2e-07       1230.723008
          2.1e-07        1257.15257
          2.2e-07       1284.519492
          2.3e-07       1313.124562
          2.4e-07       1336.635526
          2.5e-07       1357.955097
          2.6e-07       1379.072188
          2.7e-07       1406.793406
          2.8e-07       1431.888521
          2.9e-07        1452.05886
            3e-07         1475.1545
          3.1e-07       1499.038474
          3.2e-07       1520.056726
          3.3e-07        1546.83055
          3.4e-07       1569.386297
          3.5e-07       1590.291568
          3.6e-07       1614.763199
          3.7e-07       1632.763164
          3.8e-07        1655.61771
          3.9e-07       1676.519603
            4e-07       1692.204638
          4.1e-07       1711.257972
          4.2e-07        1731.86004
          4.3e-07       1755.315727
          4.4e-07       1775.210274
          4.5e-07       1790.446301
          4.6e-07       1810.623825
          4.7e-07       1823.839242
          4.8e-07       1846.348138
          4.9e-07       1863.065135
            5e-07       1881.575157
          5.1e-07        1897.40699
          5.2e-07       1916.876025
          5.3e-07       1936.981741
          5.4e-07       1954.246846
          5.5e-07       1972.559499
          5.6e-07       1990.785779
          5.7e-07       2006.022757
          5.8e-07       2022.360913
          5.9e-07       2037.099749
            6e-07       2054.882835
          6.1e-07       2074.799821
          6.2e-07       2093.537793
          6.3e-07       2112.120025
          6.4e-07       2130.473802
          6.5e-07       2143.929614
          6.6e-07       2161.789373
          6.7e-07       2177.823418
          6.8e-07       2196.027752
          6.9e-07       2214.279777
            7e-07       2229.044661
          7.1e-07       2247.201893
          7.2e-07        2261.12234
          7.3e-07       2274.514909
          7.4e-07       2289.581648
          7.5e-07       2303.338254
          7.6e-07       2320.814705
          7.7e-07       2333.640533
          7.8e-07       2353.175535
          7.9e-07       2373.731496
            8e-07       2387.145481
          8.1e-07       2403.193724
          8.2e-07       2413.285709
          8.3e-07       2428.945424
          8.4e-07       2442.871988
          8.5e-07       2457.803435
          8.6e-07       2470.546925
          8.7e-07       2484.247613
          8.8e-07       2498.179425
          8.9e-07       2513.789031
            9e-07       2523.866915
          9.1e-07       2534.879033
          9.2e-07       2553.924722
          9.3e-07         2571.8702
          9.4e-07       2584.730171
          9.5e-07       2595.564772
          9.6e-07       2611.338178
          9.7e-07       2623.190525
          9.8e-07       2634.580865
          9.9e-07       2645.126612
            1e-06       2658.660936
         1.01e-06       2669.841544
         1.02e-06       2684.198282
         1.03e-06       2696.992171
         1.04e-06       2712.574532
         1.05e-06       2729.173341
         1.06e-06       2742.825987
         1.07e-06       2757.162656
         1.08e-06       2767.653499
         1.09e-06       2778.664198
          1.1e-06       2793.433024
         1.11e-06       2810.002231
         1.12e-06       2819.829326
         1.13e-06        2828.72532
         1.14e-06       2838.307828
         1.15e-06       2847.506716
         1.16e-06       2860.503523
         1.17e-06       2873.802939
         1.18e-06       2885.292392
         1.19e-06       2896.611161
          1.2e-06       2907.759497
         1.21e-06       2921.700808
         1.22e-06       2934.261346
         1.23e-06       2944.424429
         1.24e-06       2954.299973
         1.25e-06       2966.160637
         1.26e-06        2974.51483
         1.27e-06       2983.694773
         1.28e-06       2992.115262
         1.29e-06       3005.167361
          1.3e-06       3016.772675
         1.31e-06       3027.074548
         1.32e-06       3036.286801
         1.33e-06       3046.299284
         1.34e-06       3055.506247
         1.35e-06       3070.114233
         1.36e-06       3084.409423
         1.37e-06       3093.912714
         1.38e-06       3102.871286
         1.39e-06       3112.888066
          1.4e-06       3125.870368
         1.41e-06       3137.576377
         1.42e-06       3144.358028
         1.43e-06       3154.598792
         1.44e-06       3167.142843
         1.45e-06       3180.811822
         1.46e-06       3192.759353
         1.47e-06       3204.303559
         1.48e-06       3215.021806
         1.49e-06       3226.723939
          1.5e-06       3235.862375
         1.51e-06       3252.207731
         1.52e-06       3260.213624
         1.53e-06       3270.564981
         1.54e-06       3282.532727
         1.55e-06       3287.295409
         1.56e-06       3290.861203
         1.57e-06       3299.633656
         1.58e-06       3309.951883
         1.59e-06       3316.469852
          1.6e-06       3326.010578
         1.61e-06       3336.345969
         1.62e-06       3343.141164
         1.63e-06       3351.364301
         1.64e-06       3356.306827
         1.65e-06       3366.916196
         1.66e-06       3372.957507
         1.67e-06       3382.228661
         1.68e-06       3387.284865
         1.69e-06       3397.278604
          1.7e-06       3403.269136
         1.71e-06       3414.031451
         1.72e-06        3424.25338
         1.73e-06         3439.5471
         1.74e-06       3448.314247
         1.75e-06       3451.844038
         1.76e-06       3460.258407
         1.77e-06       3467.456225
         1.78e-06       3475.704384
         1.79e-06       3485.749875
          1.8e-06       3493.341065
         1.81e-06       3503.569853
         1.82e-06       3513.586474
         1.83e-06       3520.730005
         1.84e-06       3528.712786
         1.85e-06       3537.161066
         1.86e-06       3547.964483
         1.87e-06       3554.753408
         1.88e-06       3565.529928
         1.89e-06       3569.168264
          1.9e-06       3574.905142
         1.91e-06       3580.827949
         1.92e-06       3588.894989
         1.93e-06        3596.42471
         1.94e-06       3604.559384
         1.95e-06       3614.673623
         1.96e-06       3620.405767
         1.97e-06       3623.458012
         1.98e-06       3633.079661
         1.99e-06       3640.044438
            2e-06       3646.286395
         2.01e-06       3653.133136
         2.02e-06       3661.981464
         2.03e-06       3666.009336
         2.04e-06       3677.183485
         2.05e-06       3688.425336
         2.06e-06       3700.107164
         2.07e-06       3707.436234
         2.08e-06        3714.81094
         2.09e-06       3721.277612
          2.1e-06       3730.394923
         2.11e-06       3734.371694
         2.12e-06        3739.55739
         2.13e-06       3748.509256
         2.14e-06       3758.715143
         2.15e-06       3764.038285
         2.16e-06       3771.011157
         2.17e-06       3778.029742
         2.18e-06       3785.094031
         2.19e-06       3792.901026
          2.2e-06       3804.865278
         2.21e-06       3813.227337
         2.22e-06       3818.801451
         2.23e-06       3825.861321
         2.24e-06       3832.711464
         2.25e-06       3837.889241
         2.26e-06       3844.784583
         2.27e-06       3848.243597
         2.28e-06       3853.791577
         2.29e-06       3856.135985
          2.3e-06       3861.520853
         2.31e-06         3866.0466
         2.32e-06       3873.472818
         2.33e-06       3881.223079
         2.34e-06       3888.462061
         2.35e-06       3895.375516
         2.36e-06       3899.667082
         2.37e-06       3908.898861
         2.38e-06        3909.94258
         2.39e-06       3920.007876
          2.4e-06       3929.492075
         2.41e-06       3935.311831
         2.42e-06       3939.090944
         2.43e-06       3948.294462
         2.44e-06       3955.294849
         2.45e-06        3960.97348
         2.46e-06       3970.359646
         2.47e-06        3980.02268
         2.48e-06       3985.351875
         2.49e-06       3991.329392
          2.5e-06       3998.001409
         2.51e-06       4000.503264
         2.52e-06       4004.418037
         2.53e-06       4012.802852
         2.54e-06       4024.428895
         2.55e-06       4029.754983
         2.56e-06       4037.882351
         2.57e-06       4040.452368
         2.58e-06       4045.476392
         2.59e-06       4052.097425
          2.6e-06       4063.115814
         2.61e-06       4070.059392
         2.62e-06       4073.554098
         2.63e-06       4079.432266
         2.64e-06       4084.870346
         2.65e-06       4091.164177
         2.66e-06       4097.804565
         2.67e-06       4105.323515
         2.68e-06       4111.430709
         2.69e-06       4119.179715
          2.7e-06       4129.287032
         2.71e-06       4137.011248
         2.72e-06       4145.659677
         2.73e-06       4150.654087
         2.74e-06       4154.237858
         2.75e-06       4162.445279
         2.76e-06       4168.687015
         2.77e-06       4173.888115
         2.78e-06       4179.782315
         2.79e-06       4190.737527
          2.8e-06       4195.475114
         2.81e-06       4198.872152
         2.82e-06       4202.800536
         2.83e-06       4209.224221
         2.84e-06       4214.954308
         2.85e-06       4221.654343
         2.86e-06       4227.614641
         2.87e-06       4231.842054
         2.88e-06       4240.226989
         2.89e-06       4248.865198
          2.9e-06       4254.038491
         2.91e-06       4259.950467
         2.92e-06       4266.993534
         2.93e-06       4274.382402
         2.94e-06        4279.76205
         2.95e-06       4285.302992
         2.96e-06       4290.612753
         2.97e-06       4299.592488
         2.98e-06        4301.94693
         2.99e-06       4308.940661
            3e-06       4316.233902
         3.01e-06       4321.680389
         3.02e-06       4324.334285
         3.03e-06       4331.510975
         3.04e-06       4341.640505
         3.05e-06        4345.03216
         3.06e-06       4352.207314
         3.07e-06       4356.821282
         3.08e-06       4359.912519
         3.09e-06       4365.564155
          3.1e-06       4372.737807
         3.11e-06       4377.074038
         3.12e-06       4379.934003
         3.13e-06       4385.515309
         3.14e-06       4388.513402
         3.15e-06       4389.274442
         3.16e-06       4394.670743
         3.17e-06       4399.421093
         3.18e-06       4403.986753
         3.19e-06       4403.341116
          3.2e-06       4411.964633
         3.21e-06       4415.838059
         3.22e-06       4417.474999
         3.23e-06       4424.644947
         3.24e-06       4428.425682
         3.25e-06       4432.390694
         3.26e-06       4441.150065
         3.27e-06       4446.774112
         3.28e-06       4453.365846
         3.29e-06       4460.671584
          3.3e-06        4463.29876
         3.31e-06       4468.138123
         3.32e-06        4472.72379
         3.33e-06       4479.406066
         3.34e-06        4485.81144
         3.35e-06       4490.396346
         3.36e-06       4491.916925
         3.37e-06       4497.169667
         3.38e-06       4501.109056
         3.39e-06       4502.537337
          3.4e-06       4507.812598
         3.41e-06       4514.699998
         3.42e-06        4524.58116
         3.43e-06       4527.529213
         3.44e-06       4531.582656
         3.45e-06       4534.691731
         3.46e-06       4540.287844
         3.47e-06       4544.041456
         3.48e-06       4551.248959
         3.49e-06       4555.232458
          3.5e-06       4559.192791
         3.51e-06       4562.692504
         3.52e-06       4565.547452
         3.53e-06       4571.234109
         3.54e-06       4572.316153
         3.55e-06        4576.36797
         3.56e-06       4582.422406
         3.57e-06       4584.839486
         3.58e-06       4588.545575
         3.59e-06       4595.773256
          3.6e-06       4600.859982
         3.61e-06       4604.818726
         3.62e-06       4609.260644
         3.63e-06       4616.786199
         3.64e-06       4624.587408
         3.65e-06       4629.097604
         3.66e-06       4635.011222
         3.67e-06       4641.315685
         3.68e-06       4643.685525
         3.69e-06       4647.251698
          3.7e-06       4658.018593
         3.71e-06       4663.723734
         3.72e-06        4670.27971
         3.73e-06       4675.202208
         3.74e-06        4676.83533
         3.75e-06       4677.939399
         3.76e-06       4682.585581
         3.77e-06       4688.910543
         3.78e-06       4693.441314
         3.79e-06       4698.224891
          3.8e-06       4703.997131
         3.81e-06       4706.572705
         3.82e-06       4711.194805
         3.83e-06       4714.391082
         3.84e-06       4720.461482
         3.85e-06       4721.519173
         3.86e-06       4724.807155
         3.87e-06       4726.669539
         3.88e-06       4730.578158
         3.89e-06       4735.521236
          3.9e-06       4738.234099
         3.91e-06       4743.314811
         3.92e-06       4746.878085
         3.93e-06       4756.027193
         3.94e-06       4759.865945
         3.95e-06       4760.279696
         3.96e-06       4761.773784
         3.97e-06        4766.92251
         3.98e-06       4769.289935
         3.99e-06       4770.485124
            4e-06       4776.231066
         4.01e-06       4781.195354
         4.02e-06       4787.078708
         4.03e-06       4796.201976
         4.04e-06       4801.716992
         4.05e-06       4805.646299
         4.06e-06       4807.691331
         4.07e-06        4811.06901
         4.08e-06       4815.319708
         4.09e-06       4821.821862
          4.1e-06       4823.774743
         4.11e-06       4828.875075
         4.12e-06       4832.504922
         4.13e-06        4835.49143
         4.14e-06       4836.777906
         4.15e-06       4840.981838
         4.16e-06        4847.16115
         4.17e-06       4851.594459
         4.18e-06       4854.925088
         4.19e-06       4856.647795
          4.2e-06       4858.967672
         4.21e-06       4863.607308
         4.22e-06       4869.831521
         4.23e-06       4873.276536
         4.24e-06       4879.454378
         4.25e-06       4884.690399
         4.26e-06       4890.247713
         4.27e-06       4892.360352
         4.28e-06       4895.942579
         4.29e-06       4899.180282
          4.3e-06       4903.887446
         4.31e-06       4910.683852
         4.32e-06       4916.423803
         4.33e-06       4920.235001
         4.34e-06       4924.528214
         4.35e-06       4928.109619
         4.36e-06        4930.19873
         4.37e-06       4932.632161
         4.38e-06       4938.577822
         4.39e-06       4943.582086
          4.4e-06       4948.195953
         4.41e-06       4949.137072
         4.42e-06       4953.475321
         4.43e-06       4956.757613
         4.44e-06       4958.111823
         4.45e-06       4960.200496
         4.46e-06       4962.587513
         4.47e-06       4968.302424
         4.48e-06       4970.872912
         4.49e-06        4974.38431
          4.5e-06        4977.04649
         4.51e-06       4981.292107
         4.52e-06       4985.514652
         4.53e-06       4987.809463
         4.54e-06        4991.09098
         4.55e-06       4992.674343
         4.56e-06       4995.152616
         4.57e-06       4996.781829
         4.58e-06       5000.453228
         4.59e-06       5006.900901
          4.6e-06        5011.09977
         4.61e-06       5013.302407
         4.62e-06       5019.497151
         4.63e-06       5022.548542
         4.64e-06       5025.714581
         4.65e-06       5025.324565
         4.66e-06        5028.14642
         4.67e-06       5028.490545
         4.68e-06       5037.712804
         4.69e-06       5039.433312
          4.7e-06       5044.365328
         4.71e-06       5043.677149
         4.72e-06       5047.943807
         4.73e-06       5050.879931
         4.74e-06       5052.210344
         4.75e-06       5054.848197
         4.76e-06       5054.412381
         4.77e-06        5058.81636
         4.78e-06       5063.357831
         4.79e-06        5065.60558
          4.8e-06       5071.041327
         4.81e-06       5073.610052
         4.82e-06       5078.930846
         4.83e-06       5084.251458
         4.84e-06       5090.236929
         4.85e-06       5091.773392
         4.86e-06        5096.84132
         4.87e-06       5101.496331
         4.88e-06       5107.091334
         4.89e-06       5109.315522
          4.9e-06       5114.314098
         4.91e-06       5114.543386
         4.92e-06       5115.873254
         4.93e-06       5116.927969
         4.94e-06       5122.912196
         4.95e-06       5125.090307
         4.96e-06       5128.850344
         4.97e-06       5130.707403
         4.98e-06       5135.246789
         4.99e-06       5141.207404
            5e-06       5145.173383
         5.01e-06       5146.846859
         5.02e-06       5149.047569
         5.03e-06       5151.798414
         5.04e-06       5157.597958
         5.05e-06       5160.898792
         5.06e-06       5163.993263
         5.07e-06       5165.368564
         5.08e-06       5162.824247
         5.09e-06        5165.59778
          5.1e-06       5167.935763
         5.11e-06       5169.654846
         5.12e-06       5171.901088
         5.13e-06       5176.989399
         5.14e-06       5181.069103
         5.15e-06       5185.584162
         5.16e-06       5189.686571
         5.17e-06       5191.382509
         5.18e-06        5194.88892
         5.19e-06       5199.059849
          5.2e-06       5201.809854
         5.21e-06       5202.909844
         5.22e-06       5204.101491
         5.23e-06       5208.157611
         5.24e-06       5211.663669
         5.25e-06       5213.840596
         5.26e-06       5215.421714
         5.27e-06       5218.858878
         5.28e-06       5222.685504
         5.29e-06       5224.678981
          5.3e-06       5226.053779
         5.31e-06       5226.557869
         5.32e-06       5230.063543
         5.33e-06       5230.040631
         5.34e-06       5233.569145
         5.35e-06       5235.104255
         5.36e-06       5241.817334
         5.37e-06       5246.697324
         5.38e-06       5251.164798
         5.39e-06        5253.68486
          5.4e-06       5255.219789
         5.41e-06       5256.915068
         5.42e-06       5258.243788
         5.43e-06       5261.840445
         5.44e-06        5264.24581
         5.45e-06       5264.268718
         5.46e-06       5266.307525
         5.47e-06       5268.735736
         5.48e-06       5273.592055
         5.49e-06       5275.493312
          5.5e-06       5279.249953
         5.51e-06       5281.311489
         5.52e-06       5282.960701
         5.53e-06       5286.190362
         5.54e-06       5288.274722
         5.55e-06       5291.572998
         5.56e-06       5294.871212
         5.57e-06       5296.863853
         5.58e-06       5301.398745
         5.59e-06       5306.849623
          5.6e-06       5310.033041
         5.61e-06       5311.063631
         5.62e-06       5312.598055
         5.63e-06       5316.697421
         5.64e-06       5317.773775
         5.65e-06       5318.895924
         5.66e-06       5320.796692
         5.67e-06       5322.903543
         5.68e-06       5326.911072
         5.69e-06       5328.994951
          5.7e-06       5330.254427
         5.71e-06       5331.536794
         5.72e-06        5334.71977
         5.73e-06       5337.078342
         5.74e-06       5339.391087
         5.75e-06       5340.444406
         5.76e-06       5342.093068
         5.77e-06       5344.130976
         5.78e-06       5347.130551
         5.79e-06       5350.244561
          5.8e-06         5352.1221
         5.81e-06       5354.549134
         5.82e-06       5358.601751
         5.83e-06       5364.714849
         5.84e-06       5367.393558
         5.85e-06       5369.064869
         5.86e-06       5369.591444
         5.87e-06       5365.264331
         5.88e-06       5363.272451
         5.89e-06       5365.699337
          5.9e-06       5370.346961
         5.91e-06       5371.468784
         5.92e-06       5374.307651
         5.93e-06       5376.597028
         5.94e-06       5374.147394
         5.95e-06       5377.260942
         5.96e-06       5381.335949
         5.97e-06       5382.617955
         5.98e-06       5380.878087
         5.99e-06        5383.96863
            6e-06       5385.754253
         6.01e-06       5390.447154
         6.02e-06       5390.721857
         6.03e-06       5394.086932
         6.04e-06       5400.175961
         6.05e-06       5402.602361
         6.06e-06        5401.18315
         6.07e-06       5405.761211
         6.08e-06       5408.965787
         6.09e-06       5413.268989
          6.1e-06       5413.406324
         6.11e-06       5414.894109
         6.12e-06       5420.158484
         6.13e-06       5423.866348
         6.14e-06       5423.660357
         6.15e-06       5424.781858
         6.16e-06       5424.369879
         6.17e-06       5424.415654
         6.18e-06       5423.545918
         6.19e-06       5427.963223
          6.2e-06        5432.97548
         6.21e-06       5433.158573
         6.22e-06       5434.577543
         6.23e-06       5433.021253
         6.24e-06       5436.110934
         6.25e-06       5437.209475
         6.26e-06       5437.461223
         6.27e-06       5437.186589
         6.28e-06        5434.53177
         6.29e-06       5439.864256
          6.3e-06       5440.184659
         6.31e-06       5443.091139
         6.32e-06       5443.869244
         6.33e-06       5443.228452
         6.34e-06       5443.686161
         6.35e-06       5446.592588
         6.36e-06       5445.425446
         6.37e-06       5449.682049
         6.38e-06       5449.018391
         6.39e-06       5451.352625
          6.4e-06       5453.343567
         6.41e-06         5457.8746
         6.42e-06       5457.439808
         6.43e-06       5459.178968
         6.44e-06         5457.0279
         6.45e-06       5460.140076
         6.46e-06       5463.778512
         6.47e-06       5462.611474
         6.48e-06       5466.295629
         6.49e-06         5468.6983
          6.5e-06       5472.473867
         6.51e-06       5476.821399
         6.52e-06       5478.056995
         6.53e-06       5483.594201
         6.54e-06       5485.722093
         6.55e-06        5489.15413
         6.56e-06       5493.821602
         6.57e-06       5498.534721
         6.58e-06        5503.20197
         6.59e-06       5504.231496
          6.6e-06       5507.708964
         6.61e-06       5507.594575
         6.62e-06       5509.058754
         6.63e-06       5512.764911
         6.64e-06       5517.935112
         6.65e-06       5519.261956
         6.66e-06       5525.141141
         6.67e-06       5527.634595
         6.68e-06       5528.778371
         6.69e-06        5530.21952
          6.7e-06       5533.513534
         6.71e-06       5534.703026
         6.72e-06       5538.683197
         6.73e-06       5542.388803
         6.74e-06       5545.453882
         6.75e-06       5547.283758
         6.76e-06       5547.535365
         6.77e-06       5546.231582
         6.78e-06       5551.583901
         6.79e-06       5553.002014
          6.8e-06       5555.335015
         6.81e-06        5559.42914
         6.82e-06       5561.899298
         6.83e-06       5564.255068
         6.84e-06       5565.512993
         6.85e-06       5565.490122
         6.86e-06       5566.107646
         6.87e-06       5569.446817
         6.88e-06       5569.789879
         6.89e-06        5568.50911
          6.9e-06       5573.472046
         6.91e-06        5575.30167
         6.92e-06       5575.553242
         6.93e-06        5578.75504
         6.94e-06       5577.931725
         6.95e-06       5580.859052
         6.96e-06       5583.237473
         6.97e-06        5582.29983
         6.98e-06       5587.857022
         6.99e-06       5587.742678
            7e-06        5589.32062
         7.01e-06       5590.258232
         7.02e-06       5594.809019
         7.03e-06        5598.94809
         7.04e-06       5599.977128
         7.05e-06       5600.594549
         7.06e-06       5599.268236
         7.07e-06        5601.78365
         7.08e-06       5604.664904
         7.09e-06       5605.488112
          7.1e-06       5609.375441
         7.11e-06       5612.988304
         7.12e-06       5616.715434
         7.13e-06       5617.812981
         7.14e-06       5617.584326
         7.15e-06       5616.738299
         7.16e-06       5617.172746
         7.17e-06       5618.453214
         7.18e-06       5620.053788
         7.19e-06       5622.660411
          7.2e-06       5625.975806
         7.21e-06       5629.153963
         7.22e-06       5631.371785
         7.23e-06       5630.365766
         7.24e-06       5632.286344
         7.25e-06       5632.583575
         7.26e-06       5634.687043
         7.27e-06       5636.927671
         7.28e-06       5640.448609
         7.29e-06       5641.043048
          7.3e-06       5638.825327
         7.31e-06        5641.52317
         7.32e-06       5643.169294
         7.33e-06       5646.804441
         7.34e-06       5648.793457
         7.35e-06       5651.925549
         7.36e-06       5651.399726
         7.37e-06       5654.417472
         7.38e-06       5655.514823
         7.39e-06       5656.817921
          7.4e-06       5659.446953
         7.41e-06       5663.333289
         7.42e-06       5665.024966
         7.43e-06       5663.996245
         7.44e-06       5670.168498
         7.45e-06       5673.300277
         7.46e-06       5672.774507
         7.47e-06       5679.175098
         7.48e-06        5682.58105
         7.49e-06       5685.598358
          7.5e-06         5687.5413
         7.51e-06       5691.975713
         7.52e-06       5692.501437
         7.53e-06       5691.564277
         7.54e-06       5695.587179
         7.55e-06        5697.39289
         7.56e-06       5698.672878
         7.57e-06       5701.758533
         7.58e-06       5700.981409
         7.59e-06       5701.232832
          7.6e-06       5702.764219
         7.61e-06       5702.764219
         7.62e-06       5705.164132
         7.63e-06       5706.672635
         7.64e-06       5707.244035
         7.65e-06       5707.061188
         7.66e-06       5706.718347
         7.67e-06       5704.707008
         7.68e-06       5705.484118
         7.69e-06        5705.71268
          7.7e-06       5705.804104
         7.71e-06       5709.003938
         7.72e-06       5709.575332
         7.73e-06       5708.455399
         7.74e-06       5712.043738
         7.75e-06       5718.351758
         7.76e-06       5719.768753
         7.77e-06       5722.351316
         7.78e-06       5724.316786
         7.79e-06       5724.316786
          7.8e-06       5725.596618
         7.81e-06       5729.116118
         7.82e-06       5731.012968
         7.83e-06         5730.8987
         7.84e-06        5733.66396
         7.85e-06       5733.618253
         7.86e-06       5734.600941
         7.87e-06       5736.497744
         7.88e-06       5737.640389
         7.89e-06       5737.868917
          7.9e-06       5740.177039
         7.91e-06       5742.005238
         7.92e-06        5744.45043
         7.93e-06       5747.604004
         7.94e-06       5749.363587
         7.95e-06       5747.626856
         7.96e-06       5750.049135
         7.97e-06       5752.905563
         7.98e-06       5756.470335
         7.99e-06       5759.943648
            8e-06       5760.126452
         8.01e-06       5765.062117
         8.02e-06       5765.519117
         8.03e-06       5768.672396
         8.04e-06         5771.0716
         8.05e-06       5774.910275
         8.06e-06       5772.465412
         8.07e-06         5775.4815
         8.08e-06       5778.017725
         8.09e-06       5780.096952
          8.1e-06       5782.655974
         8.11e-06       5785.032183
         8.12e-06       5786.905715
         8.13e-06       5786.837172
         8.14e-06        5788.80208
         8.15e-06        5788.50506
         8.16e-06       5791.977884
         8.17e-06       5790.424258
         8.18e-06       5795.130797
         8.19e-06       5797.872425
          8.2e-06       5799.997165
         8.21e-06       5800.134244
         8.22e-06       5802.944352
         8.23e-06       5806.599725
         8.24e-06       5805.777271
         8.25e-06       5805.845809
         8.26e-06       5808.655848
         8.27e-06       5807.696326
         8.28e-06       5805.800117
         8.29e-06       5807.445022
          8.3e-06       5807.833401
         8.31e-06       5807.993321