/*--------------------------------*- C++ -*----------------------------------*\
| =========                 |                                                 |
| \\      /  F ield         | OpenFOAM: The Open Source CFD Toolbox           |
|  \\    /   O peration     | Version:  v1706                                 |
|   \\  /    A nd           | Web:      www.OpenFOAM.com                      |
|    \\/     M anipulation  |                                                 |
\*---------------------------------------------------------------------------*/
FoamFile
{
    version     2.0;
    format      ascii;
    class       volScalarField;
    location    "5";
    object      dsmcRhoNMean_N2;
}
// * * * * * * * * * * * * * * * * * * * * * * * * * * * * * * * * * * * * * //

dimensions      [0 -3 0 0 0 0 0];


internalField   nonuniform List<scalar> 
500
(
57.01976
56.97351
56.95899
57.00077
57.02364
56.6645
56.60721
56.65627
56.5966
56.58823
56.31632
56.33555
56.30984
56.27297
56.29669
55.99743
55.97398
56.03183
55.98191
56.03998
55.80161
55.74479
55.74586
55.7301
55.77249
55.53247
55.54336
55.56645
55.56244
55.53295
55.24598
55.29687
55.28709
55.28345
55.28443
55.01337
55.0034
54.98963
55.0655
55.03802
54.77343
54.76771
54.70777
54.82943
54.76548
54.5579
54.55921
54.55808
54.56931
54.57891
54.28617
54.27258
54.28073
54.28862
54.29283
54.06631
54.05845
54.08951
54.05191
54.04092
53.844
53.8233
53.79495
53.83333
53.86766
53.63452
53.6243
53.62853
53.69599
53.68607
53.3787
53.39715
53.39027
53.38177
53.41058
53.12924
53.16376
53.17689
53.21739
53.21482
52.97735
52.97086
53.01054
53.03902
52.96864
52.77044
52.7689
52.76879
52.81959
52.80082
52.57401
52.58297
52.58521
52.52641
52.52557
52.36274
52.37025
52.3635
52.37004
52.32329
52.20158
52.19154
52.1919
52.18262
52.11343
51.92906
51.91978
51.98671
51.97454
51.94725
51.75807
51.77302
51.76351
51.77175
51.74194
51.56097
51.54433
51.57237
51.55725
51.57674
51.35742
51.36343
51.32703
51.32514
51.37202
51.16806
51.2314
51.16401
51.15061
51.13204
51.00475
50.98183
50.97452
51.00476
50.97596
50.79228
50.7952
50.7622
50.7937
50.83302
50.61357
50.65142
50.64596
50.61296
50.58607
50.47241
50.4971
50.49078
50.42113
50.42818
50.26257
50.28669
50.25923
50.24245
50.27538
50.11047
50.07869
50.05419
50.04415
50.09405
49.87881
49.87586
49.90776
49.85171
49.94396
49.71187
49.6831
49.70404
49.71329
49.70242
49.48533
49.52769
49.52839
49.48248
49.48984
49.39377
49.37114
49.37256
49.32042
49.30962
49.19066
49.17018
49.15402
49.20985
49.21307
49.00941
49.02458
49.05929
49.04241
49.02658
48.87945
48.84534
48.86081
48.88229
48.88786
48.68691
48.68555
48.68855
48.69302
48.686
48.55806
48.54133
48.59668
48.53158
48.51121
48.37235
48.32655
48.37459
48.35766
48.37756
48.14789
48.20369
48.21952
48.20613
48.15685
48.07464
48.03793
48.08506
48.00939
48.02956
47.90301
47.92672
47.92567
47.90141
47.89283
47.79097
47.71121
47.69255
47.80068
47.71377
47.55475
47.60843
47.55361
47.57893
47.54101
47.39748
47.46469
47.42439
47.45979
47.42408
47.25713
47.2568
47.29562
47.31897
47.26316
47.11072
47.08061
47.12396
47.15731
47.07735
46.93769
46.96326
46.96068
46.98523
46.95017
46.82162
46.77767
46.8312
46.81849
46.83758
46.64564
46.6602
46.63096
46.68223
46.70525
46.52169
46.49322
46.5253
46.51512
46.54564
46.39339
46.35866
46.37841
46.31871
46.36908
46.21725
46.26216
46.21726
46.19363
46.18072
46.08162
46.06861
46.06
46.06301
46.05395
45.95483
45.9466
45.9738
45.93853
45.93352
45.83075
45.84658
45.83739
45.80618
45.83173
45.67976
45.69697
45.64775
45.6646
45.65578
45.50742
45.47157
45.513
45.54185
45.50373
45.37059
45.38267
45.40019
45.36354
45.42373
45.2572
45.26063
45.24702
45.25129
45.23781
45.14892
45.09117
45.05951
45.0929
45.05696
45.00312
44.97766
44.97782
44.96028
45.00033
44.8751
44.8459
44.88735
44.85366
44.86725
44.72525
44.73137
44.71706
44.6949
44.74316
44.59201
44.58326
44.59769
44.55136
44.60919
44.39074
44.42095
44.49094
44.40385
44.43778
44.32478
44.30882
44.33842
44.32242
44.36497
44.19302
44.23313
44.22413
44.206
44.18303
44.10474
44.10508
44.10289
44.10528
44.03095
43.96457
43.97313
43.96011
43.95727
43.93002
43.88674
43.8618
43.82603
43.82301
43.85316
43.73822
43.6898
43.73351
43.71288
43.73601
43.56512
43.5774
43.59388
43.62714
43.60048
43.50484
43.4736
43.47064
43.52297
43.48611
43.40118
43.38918
43.35669
43.38648
43.37971
43.28264
43.2694
43.23157
43.23851
43.25878
43.13644
43.14335
43.15246
43.12304
43.15207
43.04119
43.04185
43.01376
43.03458
43.001
42.88612
42.88277
42.91986
42.84837
42.89073
42.79681
42.77802
42.8037
42.80854
42.73885
42.68985
42.65387
42.64056
42.68249
42.63202
42.54641
42.56863
42.55105
42.57193
42.56648
42.42215
42.44013
42.39888
42.41171
42.44486
42.35335
42.3247
42.29697
42.33244
42.3486
42.23998
42.214
42.20053
42.21985
42.23855
42.09311
42.06338
42.10888
42.06847
42.08013
41.99905
41.9533
41.94352
41.92088
41.98535
41.85853
41.84112
41.84709
41.85791
41.85216
41.76747
41.73272
41.73892
41.76504
41.74125
41.66368
41.60841
41.60595
41.59873
41.65574
41.52444
41.50677
41.48448
41.49393
41.48936
41.39155
41.39513
41.37687
41.37211
41.35619
41.27417
41.2775
41.26466
41.22786
41.24716
41.12077
41.15799
41.15641
41.16749
41.17465
41.05601
40.99886
41.05667
41.02731
41.04393
40.91925
40.85049
40.87566
40.91218
40.95562
40.71596
40.69323
40.77907
40.74514
40.75227
)
;

boundaryField
{
    upperWall
    {
        type            calculated;
        value           uniform 0;
    }
    lowerWall
    {
        type            calculated;
        value           uniform 0;
    }
    periodicX_half0
    {
        type            cyclic;
    }
    periodicX_half1
    {
        type            cyclic;
    }
    frontAndBack
    {
        type            empty;
    }
}


// ************************************************************************* //
