/*--------------------------------*- C++ -*----------------------------------*\
| =========                 |                                                 |
| \\      /  F ield         | OpenFOAM: The Open Source CFD Toolbox           |
|  \\    /   O peration     | Version:  v1706                                 |
|   \\  /    A nd           | Web:      www.OpenFOAM.com                      |
|    \\/     M anipulation  |                                                 |
\*---------------------------------------------------------------------------*/
FoamFile
{
    version     2.0;
    format      ascii;
    class       volScalarField;
    location    "5";
    object      dsmcRhoNMean_O2;
}
// * * * * * * * * * * * * * * * * * * * * * * * * * * * * * * * * * * * * * //

dimensions      [0 -3 0 0 0 0 0];


internalField   nonuniform List<scalar> 
500
(
57.06224
57.00563
57.07177
57.0555
57.04584
56.68284
56.69673
56.67471
56.61581
56.63233
56.36177
56.39363
56.3546
56.37875
56.34341
56.04992
56.05689
56.03809
56.10258
56.0582
55.7789
55.81483
55.79439
55.79585
55.74894
55.49954
55.51421
55.51745
55.5219
55.47642
55.27259
55.24789
55.32206
55.2655
55.30221
55.04601
55.00429
55.06682
55.01872
54.96455
54.6898
54.77945
54.83466
54.76671
54.76234
54.53153
54.55967
54.53253
54.55279
54.53178
54.29998
54.3103
54.30969
54.22933
54.31883
54.04915
54.10812
54.11424
54.09613
54.11814
53.88243
53.8974
53.90926
53.91568
53.86194
53.59582
53.62561
53.58627
53.62673
53.65945
53.43973
53.40476
53.52226
53.39114
53.42537
53.19831
53.2032
53.25292
53.23745
53.24839
53.01229
52.95086
53.01177
53.01698
53.02503
52.80093
52.77268
52.76197
52.71724
52.76329
52.57006
52.60472
52.56914
52.61015
52.56913
52.42099
52.39205
52.37112
52.39182
52.41928
52.18717
52.15906
52.17829
52.16571
52.20031
51.98224
52.03595
51.96265
51.94797
52.02403
51.80322
51.77103
51.81349
51.79149
51.81108
51.61071
51.62421
51.59175
51.58024
51.5922
51.37085
51.37012
51.38497
51.42648
51.40484
51.18709
51.17807
51.187
51.18338
51.24393
51.0458
50.99864
51.05345
51.03507
50.9844
50.83934
50.79567
50.86078
50.81825
50.80668
50.66463
50.61882
50.64276
50.68158
50.61055
50.49825
50.50028
50.46644
50.40396
50.47508
50.22683
50.24903
50.25626
50.28153
50.26872
50.07114
50.08453
50.119
50.11002
50.14557
49.92105
49.88547
49.94304
49.89853
49.89562
49.75229
49.72874
49.73248
49.73095
49.7207
49.5561
49.56415
49.5825
49.52773
49.52394
49.38772
49.38388
49.3712
49.34376
49.33501
49.20657
49.18992
49.18654
49.19573
49.20682
49.02915
49.02838
49.01958
49.07318
49.08861
48.85467
48.87994
48.88314
48.89599
48.85985
48.69686
48.71997
48.73389
48.71429
48.70545
48.50911
48.55484
48.54922
48.53773
48.56096
48.36585
48.42954
48.38522
48.38452
48.39689
48.2552
48.25707
48.22859
48.19164
48.25906
48.03009
48.0687
48.08827
48.07277
48.04565
47.89735
47.89497
47.90341
47.85323
47.91486
47.75788
47.7412
47.78708
47.72753
47.77546
47.61607
47.55482
47.58664
47.60249
47.61792
47.42528
47.41309
47.4717
47.3956
47.44843
47.21252
47.27812
47.26839
47.25099
47.26639
47.15125
47.09514
47.12592
47.12338
47.13176
46.98901
46.98346
47.00837
46.97859
46.98868
46.88635
46.85657
46.84977
46.83632
46.83291
46.72623
46.66509
46.6672
46.69205
46.68815
46.54465
46.52375
46.49897
46.53239
46.47388
46.4075
46.41915
46.38406
46.34921
46.41775
46.28832
46.27264
46.27758
46.31995
46.28032
46.14749
46.18105
46.16044
46.12986
46.15328
46.01195
46.00348
45.9947
45.96903
46.0299
45.90128
45.8401
45.87533
45.85976
45.9027
45.68887
45.7073
45.71828
45.71095
45.73155
45.61102
45.60784
45.57366
45.53167
45.52934
45.43004
45.4605
45.42146
45.44845
45.45486
45.31475
45.35136
45.30429
45.30716
45.30049
45.2021
45.18402
45.15746
45.21361
45.18529
45.02587
45.02552
45.00014
45.04941
45.04415
44.90945
44.90192
44.89885
44.94498
44.88227
44.76448
44.79926
44.75649
44.77762
44.74624
44.6465
44.65473
44.64247
44.68401
44.65141
44.54356
44.54839
44.50601
44.51772
44.52096
44.42054
44.37754
44.4349
44.38269
44.39597
44.28151
44.25501
44.27901
44.26253
44.26889
44.14004
44.16169
44.12547
44.16693
44.16194
44.03616
44.05653
44.0716
44.06366
44.04656
43.91524
43.92185
43.91841
43.93386
43.94129
43.81388
43.81638
43.78901
43.82735
43.82267
43.65386
43.71512
43.67294
43.6917
43.67524
43.53488
43.54234
43.52463
43.53346
43.549
43.43098
43.45504
43.40914
43.39735
43.41982
43.31639
43.32738
43.31772
43.27488
43.24681
43.20108
43.23307
43.15344
43.13624
43.12571
43.05262
43.09222
43.09172
43.04882
43.06978
42.9203
42.95305
42.96476
42.95754
42.95192
42.84635
42.80397
42.82085
42.80655
42.84013
42.6726
42.7105
42.72206
42.69051
42.72016
42.59024
42.62303
42.59861
42.60461
42.58694
42.47093
42.49156
42.47341
42.53422
42.49873
42.39221
42.35896
42.35804
42.36838
42.40894
42.27737
42.26693
42.22967
42.23122
42.27796
42.17146
42.16541
42.15001
42.15137
42.15282
42.06254
42.10026
42.00557
42.0478
42.04152
41.91046
41.95054
41.94418
41.93597
41.96
41.79591
41.81957
41.8604
41.84669
41.78772
41.73348
41.70937
41.74094
41.76321
41.75209
41.60398
41.63516
41.58256
41.61772
41.61389
41.5048
41.53949
41.48842
41.46451
41.48312
41.39702
41.38887
41.3872
41.36593
41.39293
41.23033
41.23073
41.2917
41.2423
41.22118
41.11532
41.1413
41.13004
41.15377
41.09693
40.99314
41.02166
40.99311
40.98054
40.99095
40.81666
40.83375
40.81045
40.84793
40.8588
)
;

boundaryField
{
    upperWall
    {
        type            calculated;
        value           uniform 0;
    }
    lowerWall
    {
        type            calculated;
        value           uniform 0;
    }
    periodicX_half0
    {
        type            cyclic;
    }
    periodicX_half1
    {
        type            cyclic;
    }
    frontAndBack
    {
        type            empty;
    }
}


// ************************************************************************* //
