/*--------------------------------*- C++ -*----------------------------------*\
| =========                 |                                                 |
| \\      /  F ield         | OpenFOAM: The Open Source CFD Toolbox           |
|  \\    /   O peration     | Version:  v1706                                 |
|   \\  /    A nd           | Web:      www.OpenFOAM.com                      |
|    \\/     M anipulation  |                                                 |
\*---------------------------------------------------------------------------*/
FoamFile
{
    version     2.0;
    format      ascii;
    class       volVectorField;
    location    "5";
    object      fD_Mixture;
}
// * * * * * * * * * * * * * * * * * * * * * * * * * * * * * * * * * * * * * //

dimensions      [1 -1 -2 0 0 0 0];


internalField   uniform (0 0 0);

boundaryField
{
    upperWall
    {
        type            calculated;
        value           nonuniform List<vector> 5((-0.02198100943 1.407324526 0.000378714799) (-0.02258143654 1.405902276 -0.0005066917304) (-0.02307871603 1.40707663 0.0003527450751) (-0.02280758289 1.406937461 9.71994928e-05) (-0.02173411479 1.407776919 -0.0007275666569));
    }
    lowerWall
    {
        type            calculated;
        value           nonuniform List<vector> 5((0.02272828766 -1.407343297 -0.0003483839958) (0.022451823 -1.407084564 0.0003704995946) (0.02209649167 -1.4054431 0.0005805449322) (0.02237963649 -1.407313077 -0.0003939283083) (0.02253084381 -1.407870811 0.0001977207912));
    }
    periodicX_half0
    {
        type            cyclic;
    }
    periodicX_half1
    {
        type            cyclic;
    }
    frontAndBack
    {
        type            empty;
    }
}


// ************************************************************************* //
