/*--------------------------------*- C++ -*----------------------------------*\
| =========                 |                                                 |
| \\      /  F ield         | OpenFOAM: The Open Source CFD Toolbox           |
|  \\    /   O peration     | Version:  v1706                                 |
|   \\  /    A nd           | Web:      www.OpenFOAM.com                      |
|    \\/     M anipulation  |                                                 |
\*---------------------------------------------------------------------------*/
FoamFile
{
    version     2.0;
    format      ascii;
    class       volVectorField;
    location    "5";
    object      fD_N2;
}
// * * * * * * * * * * * * * * * * * * * * * * * * * * * * * * * * * * * * * //

dimensions      [1 -1 -2 0 0 0 0];


internalField   uniform (0 0 0);

boundaryField
{
    upperWall
    {
        type            calculated;
        value           nonuniform List<vector> 5((-0.01059177105 0.7028154434 -9.742049135e-05) (-0.01133616816 0.7014640265 -0.0002500454834) (-0.01168123811 0.7028814416 0.0001101200957) (-0.01177959374 0.702681442 -0.00042106351) (-0.01085379523 0.7029473888 -0.0003432821516));
    }
    lowerWall
    {
        type            calculated;
        value           nonuniform List<vector> 5((0.0113388287 -0.7040671283 -0.0006688087441) (0.01103838984 -0.7030489381 8.444324006e-05) (0.01087503352 -0.7023596798 0.0004082147587) (0.01112520044 -0.7030911815 -0.0002886961291) (0.01141835423 -0.7038772329 -5.323601286e-05));
    }
    periodicX_half0
    {
        type            cyclic;
    }
    periodicX_half1
    {
        type            cyclic;
    }
    frontAndBack
    {
        type            empty;
    }
}


// ************************************************************************* //
