/*--------------------------------*- C++ -*----------------------------------*\
| =========                 |                                                 |
| \\      /  F ield         | OpenFOAM: The Open Source CFD Toolbox           |
|  \\    /   O peration     | Version:  v1706                                 |
|   \\  /    A nd           | Web:      www.OpenFOAM.com                      |
|    \\/     M anipulation  |                                                 |
\*---------------------------------------------------------------------------*/
FoamFile
{
    version     2.0;
    format      ascii;
    class       volVectorField;
    location    "5";
    object      fD_O2;
}
// * * * * * * * * * * * * * * * * * * * * * * * * * * * * * * * * * * * * * //

dimensions      [1 -1 -2 0 0 0 0];


internalField   uniform (0 0 0);

boundaryField
{
    upperWall
    {
        type            calculated;
        value           nonuniform List<vector> 5((-0.01138923838 0.7045090821 0.0004761352904) (-0.01124526837 0.7044382499 -0.000256646247) (-0.01139747792 0.7041951882 0.0002426249794) (-0.01102798915 0.7042560187 0.0005182630028) (-0.01088031956 0.70482953 -0.0003842845054));
    }
    lowerWall
    {
        type            calculated;
        value           nonuniform List<vector> 5((0.01138945896 -0.7032761689 0.0003204247483) (0.01141343316 -0.7040356258 0.0002860563545) (0.01122145816 -0.7030834203 0.0001723301735) (0.01125443604 -0.7042218954 -0.0001052321792) (0.01111248958 -0.7039935785 0.0002509568041));
    }
    periodicX_half0
    {
        type            cyclic;
    }
    periodicX_half1
    {
        type            cyclic;
    }
    frontAndBack
    {
        type            empty;
    }
}


// ************************************************************************* //
