/*--------------------------------*- C++ -*----------------------------------*\
| =========                 |                                                 |
| \\      /  F ield         | OpenFOAM: The Open Source CFD Toolbox           |
|  \\    /   O peration     | Version:  v1706                                 |
|   \\  /    A nd           | Web:      www.OpenFOAM.com                      |
|    \\/     M anipulation  |                                                 |
\*---------------------------------------------------------------------------*/
FoamFile
{
    version     2.0;
    format      ascii;
    class       volVectorField;
    location    "5";
    object      heatFluxTraVector_Mixture;
}
// * * * * * * * * * * * * * * * * * * * * * * * * * * * * * * * * * * * * * //

dimensions      [1 0 -3 0 0 0 0];


internalField   nonuniform List<vector> 
500
(
(26.75371121 -66.43802613 1.664761458)
(26.87997748 -66.91340351 0.3339347741)
(26.09374983 -67.33448477 -0.1677560244)
(26.33889797 -65.44483622 0.3597111064)
(26.73433954 -67.08256078 0.2119687382)
(32.80433266 -67.80264628 -0.05433189582)
(32.42429063 -67.39584116 0.1507609298)
(32.35096984 -66.28541986 0.9449072546)
(33.08902386 -67.56577452 0.5749054119)
(32.21305895 -68.40762809 -0.1116294925)
(36.48116042 -66.99037362 0.3020448604)
(36.56087375 -66.86072342 -0.4520596864)
(36.46013579 -67.1107842 0.09399187209)
(36.08150757 -66.41928863 0.1697092989)
(36.68393721 -68.58017173 0.7716363879)
(41.06999156 -68.1513754 -0.2642732283)
(40.89727233 -69.08809028 0.2264692357)
(41.5885961 -66.49944632 0.7645152825)
(41.13792397 -68.39877098 0.1432397882)
(41.93835285 -67.60882154 -0.3922070372)
(44.80486118 -68.07309935 0.6704393661)
(45.17359438 -67.5670043 -0.01749968052)
(44.96301228 -68.05371906 0.01772984971)
(45.67289951 -69.05644189 0.226862577)
(45.35301855 -66.96531309 0.321511153)
(50.83847769 -68.28359454 1.309403393)
(50.77815946 -69.39954793 0.8984913434)
(51.5361507 -66.50338252 0.08126579023)
(50.32861541 -68.14227312 0.570177832)
(50.74979548 -67.62102999 -0.09049333655)
(55.104757 -68.51155505 0.07450558585)
(55.0822547 -68.44953533 -0.5439416339)
(55.47366677 -68.53476095 -0.8091242816)
(55.01121001 -68.05449861 -0.2470400374)
(55.03391047 -68.60734088 -1.486233674)
(59.51122518 -68.76811988 -0.7499549574)
(57.27852542 -69.61185559 -1.175005558)
(59.94988144 -68.15804585 -0.07511767799)
(58.10094471 -67.7013793 0.03747681711)
(59.08345364 -68.27388731 -1.036325276)
(62.14872646 -69.08772146 -0.9850676049)
(63.40137493 -69.65515761 -0.4857710818)
(62.37037646 -68.11859972 -1.130098055)
(62.69918625 -68.61426337 -0.8426416193)
(63.17955554 -67.65122271 -1.446313211)
(65.53991256 -70.36780553 -0.2206512152)
(66.40643761 -67.92610684 0.02384282764)
(66.36090335 -68.44496396 -0.408059177)
(66.40276768 -68.46853051 -1.081225052)
(66.06191685 -68.44993176 -0.7396340579)
(70.60642897 -68.20997519 0.4199928419)
(70.46283103 -70.14831963 0.3881377311)
(69.73484719 -68.59286881 0.7471146406)
(71.28216654 -67.72305094 0.292302143)
(70.12588996 -69.68963897 0.5234099911)
(74.73061643 -68.89951085 -1.005658851)
(74.40025679 -69.4813791 0.9689744351)
(74.09618075 -68.99306108 0.3023563195)
(74.09432862 -69.39597766 0.5206645254)
(74.34506549 -68.58641742 0.4797685169)
(77.70725847 -69.70831308 0.7098623301)
(78.89485879 -68.43106872 -0.7230229618)
(78.31905908 -68.8082945 1.647699628)
(79.17125426 -68.59441415 1.412890137)
(80.24916053 -68.76565439 -0.0179346577)
(82.73726421 -69.75848418 0.5539285304)
(83.2045767 -69.36284338 -0.04517924874)
(82.40534996 -69.33240661 0.9468037885)
(83.14177284 -69.00546022 -0.0655504688)
(81.75856949 -69.72646574 -0.1841388455)
(87.26378563 -68.5277413 0.3466790433)
(86.27307985 -69.47475258 -0.2885118687)
(86.82119682 -69.40914911 1.8256838)
(87.04313384 -69.12008398 0.3251268044)
(87.15743894 -68.85969555 0.5980008651)
(89.60347807 -68.19724109 1.587015979)
(89.8819246 -70.64448788 1.569024462)
(89.31327727 -69.80016941 0.6565239057)
(90.30509178 -69.26125602 1.674198083)
(89.94444824 -69.63557194 0.7061495376)
(92.93302633 -70.01818696 -0.7344372168)
(95.1360632 -68.81236304 -0.1082772792)
(93.65062816 -70.13097726 1.777734233)
(92.99530637 -68.96733712 0.04316871157)
(94.81805676 -70.52436616 0.907267871)
(97.62527354 -68.59641267 -0.6861498649)
(98.26519141 -70.51999906 0.3988783964)
(98.46637685 -69.38089545 0.7124611908)
(97.98111492 -68.98259372 -0.2198914314)
(98.50527837 -68.51616498 1.376399732)
(102.2865604 -69.31809776 0.5701394211)
(102.5940449 -70.19163994 0.2942054985)
(101.4676946 -69.6494219 0.3182538477)
(102.2884986 -69.98581229 0.07267019658)
(103.2444355 -70.50784155 0.04548624631)
(106.2766279 -69.09191886 -0.962634954)
(105.9441394 -69.82954113 -0.2187184376)
(105.4875659 -70.16389253 0.01645040344)
(107.065647 -69.22138504 -0.6938663619)
(105.0968751 -69.9431618 -1.196676089)
(110.7848424 -69.70231374 0.1542314624)
(111.2470387 -68.86204412 -0.9456126068)
(111.3404251 -70.53444181 -0.3236676509)
(111.5144709 -68.53104365 -0.09182943193)
(110.3365001 -69.51789835 0.5221165897)
(116.6251563 -69.15738135 -0.4364322272)
(115.1544523 -69.7300784 -0.3892388435)
(114.5474577 -70.34249753 -0.348486441)
(114.4989795 -70.41781945 0.3624970303)
(114.0199 -69.90509806 0.5574252327)
(118.0800796 -69.5260738 0.5886888945)
(117.3652889 -69.32949998 -0.08254833687)
(119.5092795 -68.80795926 -0.9905673235)
(118.2559063 -70.5493041 0.3807726164)
(118.0981611 -70.6347071 0.6870246291)
(121.5916089 -69.89828992 -2.571616502)
(121.8519201 -69.58286765 0.7208020527)
(121.1169813 -70.99140909 -0.6726390829)
(121.7199491 -69.90723995 -0.2579534964)
(122.4519055 -69.10101414 -0.1223668248)
(124.8918326 -69.68931166 0.1555237673)
(126.0906878 -70.31739665 0.6810814104)
(126.4433069 -70.51059115 0.08440163684)
(126.295642 -70.01933799 0.7579504329)
(124.8922587 -69.98882566 0.07407235891)
(129.334094 -68.70792892 0.213712935)
(129.2818347 -69.87446259 -1.784123187)
(129.0041681 -70.33641927 -0.06930434687)
(129.5901688 -69.84311786 -0.4028895799)
(129.3401547 -70.37346288 0.8724935939)
(134.3726715 -69.9790137 -0.9212337898)
(135.002509 -70.65700106 -1.424738592)
(133.688015 -69.58430989 -0.5243372039)
(133.1133894 -71.56742084 0.8128777356)
(134.6543041 -70.05569048 -0.6251454475)
(137.5637591 -70.12038656 0.2571584565)
(139.2453829 -70.15937726 0.03474461272)
(137.5395642 -69.51869579 -0.8573952431)
(138.4769499 -69.18612576 0.2239142356)
(137.631485 -69.01088134 0.7154480322)
(141.9400212 -71.08914592 0.23815542)
(140.5546132 -69.95650062 0.004898506062)
(140.1649746 -69.84503199 -1.004214844)
(142.0636292 -71.45736968 0.5260233145)
(141.0738341 -69.26378007 1.132205575)
(144.9108939 -71.84743567 0.4759058811)
(145.6948636 -69.88453797 1.100760501)
(144.384311 -68.94289612 -1.761328592)
(144.9389605 -70.19562906 -0.5984790128)
(145.7811454 -69.922059 -0.8510361797)
(149.6288814 -70.1213281 0.9658222059)
(150.2305425 -70.08157696 0.6354124106)
(148.6686886 -70.46997239 1.555081672)
(149.7146144 -70.54503588 -0.8028394739)
(148.7743766 -68.75212967 -0.9467159071)
(153.3315171 -70.52684943 1.798155307)
(153.173302 -68.59726592 -0.575461952)
(154.4376785 -69.92766214 -0.5255209469)
(152.8424564 -72.0911613 -0.08515907811)
(154.2558243 -71.40456819 -0.05126139976)
(157.1738047 -69.92854304 0.01135198448)
(157.283853 -69.20993812 1.546707799)
(156.3394114 -71.73742631 -0.9966071773)
(157.9559533 -70.50214383 -0.1463351396)
(158.6672511 -69.68959933 0.4661829302)
(160.4395953 -69.26320107 -0.3772604468)
(161.7997736 -71.07321503 0.02703264998)
(161.0898327 -70.84740733 0.6027841184)
(160.4540672 -70.48347579 0.2989180427)
(161.5108541 -70.81561863 0.4438922216)
(165.7685052 -68.79749966 0.3192678857)
(164.7701318 -69.83782472 1.076262549)
(165.5607594 -70.67190124 -0.3890253282)
(165.1817134 -71.42584893 -0.1679669248)
(163.3647091 -70.326794 -0.5773650073)
(170.0135582 -71.38257603 1.635699515)
(168.6494899 -70.92051608 1.305513538)
(168.2662014 -71.09006429 0.923546194)
(168.3554549 -69.86506035 2.002279247)
(168.5537676 -70.53332952 2.154782614)
(172.869743 -70.48463229 0.7758972377)
(171.2563486 -69.18631988 1.390537265)
(173.2843388 -69.66872394 0.1661092453)
(172.0481932 -71.78431162 1.328279282)
(171.6989391 -70.38660949 1.483818421)
(175.202009 -70.47282402 0.2048818188)
(175.2871133 -70.4864887 1.080820038)
(175.9406977 -71.4423402 1.088418006)
(176.0752418 -71.0251855 -0.007780269165)
(175.3035523 -69.76067594 1.108172207)
(179.9789372 -71.48818958 -0.2314249459)
(180.4781728 -71.68846158 1.029378195)
(179.2434216 -70.41261463 0.4211018412)
(179.6551529 -69.05249343 -0.2530714336)
(180.2080471 -71.20871046 1.103761382)
(181.7646177 -70.54624126 1.531633253)
(183.0873748 -70.73753703 0.3689138872)
(184.0523586 -69.7693194 2.445300929)
(182.8134214 -70.76508083 0.9267556982)
(183.3955296 -70.29290548 -0.6049511193)
(187.6174432 -71.99473768 1.827694714)
(185.9749565 -70.3487075 0.5011725049)
(185.5758762 -70.77044173 1.357293996)
(187.109858 -69.32688376 1.013386775)
(186.6717965 -70.06983247 2.093456181)
(191.1305848 -71.63424555 0.9001570298)
(190.5059985 -70.40364687 1.047113963)
(189.691482 -72.1999313 2.214825627)
(190.6466345 -70.70135451 1.323729741)
(191.2865319 -70.37852013 1.888303531)
(193.8242179 -69.52758678 1.867834869)
(192.8864664 -70.08736473 1.295133883)
(194.886021 -71.12855621 3.148586853)
(193.8722623 -69.41355188 1.723568755)
(193.600706 -69.9298419 0.2605388765)
(197.0174814 -70.57219458 1.909415887)
(197.8251522 -70.96177983 2.537002652)
(198.4196444 -70.96794261 1.694128416)
(196.6493507 -70.24330587 2.60749782)
(197.694547 -71.47644012 2.094448468)
(202.46445 -71.77722763 1.632886448)
(201.5115492 -69.79397985 1.657588453)
(202.2401886 -70.30184416 1.274741409)
(201.5134624 -70.22736504 1.93676241)
(201.2294888 -71.15849191 3.376963103)
(205.5742353 -70.57935391 1.399650942)
(205.8198432 -71.58141255 1.596660747)
(205.1531838 -69.83770071 0.8456009828)
(205.0256037 -69.66964693 1.588277171)
(205.2714451 -70.28625144 1.724457038)
(208.9012773 -71.71794283 1.761929293)
(209.0318868 -70.881819 0.9469683809)
(210.2325489 -69.56874819 -0.809677743)
(208.1513987 -71.67334758 1.760161209)
(209.1390772 -70.10355425 1.469755006)
(214.4702859 -71.21482471 1.320601307)
(211.4993562 -69.50916696 1.60786766)
(212.9721456 -72.52839936 0.73184952)
(213.4010692 -70.72758208 1.395113932)
(213.6860643 -70.47423836 1.281343372)
(215.9156282 -70.30730419 0.3729574975)
(216.542563 -69.29250563 1.20492481)
(216.3170512 -70.59448144 0.2862601052)
(214.5950362 -71.22096518 0.4625565661)
(214.6746922 -70.77905856 1.49305655)
(218.6885684 -72.12802274 2.414513406)
(219.8393443 -70.70554161 0.9530422632)
(219.4545893 -71.38017273 -0.08906553056)
(219.4574506 -69.76502574 1.621564658)
(220.4327447 -71.77068813 1.201234177)
(222.5036592 -69.5102778 1.289780347)
(222.826338 -70.99760714 0.7191845638)
(222.4557916 -69.54256031 0.7040217099)
(224.0485041 -71.55645943 0.5467497649)
(222.8460917 -70.83878548 1.434398375)
(227.4302339 -70.64208341 1.079851268)
(226.7200847 -70.7256749 -0.3507862463)
(226.0833985 -69.1640946 0.2071457457)
(226.1233738 -71.68481938 -0.2735585418)
(226.9600087 -72.01454201 1.394401147)
(229.0109491 -71.03547282 -0.3886869713)
(230.5193055 -70.3411851 1.038473003)
(230.641703 -70.85777825 -0.1047016641)
(231.1477581 -71.15427101 1.541195471)
(230.9087201 -71.58852755 0.742019295)
(234.156834 -70.23773048 0.4152850515)
(234.8630573 -69.41977979 1.973829335)
(234.4448275 -71.67743053 1.380664525)
(233.7469139 -70.71219425 0.557131324)
(233.8933834 -70.10304115 -1.278216253)
(237.6362188 -70.80065931 0.1059127309)
(237.8933657 -70.45688348 1.964511508)
(238.2912499 -70.62933537 0.7330186926)
(238.3243913 -70.30790757 0.2175750022)
(238.3518586 -71.79274506 0.4569302748)
(241.6165856 -71.40481094 0.469951934)
(241.6612542 -71.4502425 -0.5207872007)
(240.651095 -68.69379963 1.178517371)
(240.6092597 -70.22003734 1.339857263)
(241.0330507 -71.62743765 0.2917877304)
(244.1973755 -71.19387307 1.929104999)
(245.0326262 -70.29265391 2.28635343)
(245.555533 -70.23879595 0.320866296)
(245.7321312 -71.20524108 1.560333335)
(245.7214506 -71.25354712 1.670820641)
(248.2162799 -71.43610661 1.61638705)
(248.2257884 -70.73855853 1.270520079)
(248.6091677 -70.11992285 1.038308125)
(248.1513196 -70.21887279 1.977872339)
(249.3213091 -70.04097031 1.090023396)
(252.1040036 -70.45198448 0.6751307365)
(252.281411 -70.10915813 1.94400599)
(251.5610783 -71.33225583 1.310633097)
(251.2091794 -71.50227448 2.573116036)
(252.663965 -71.50043969 2.028597117)
(254.8217389 -69.76312769 0.000392141929)
(255.33617 -71.66007405 0.1080881206)
(255.8690621 -70.5414286 0.3883322244)
(255.004472 -69.80355427 1.938624917)
(255.7387266 -69.91592792 1.775006106)
(260.0562675 -70.18425903 1.604552004)
(257.4957622 -71.65923292 2.13068169)
(259.0401605 -70.40235465 0.7616296127)
(257.9653859 -71.14069351 1.189762772)
(258.5946051 -70.46409621 1.681401624)
(262.6394615 -70.83831137 0.7864263018)
(262.666083 -70.21051562 0.331695323)
(262.8199094 -70.99908205 0.3480220279)
(263.6959671 -70.83821432 0.4257868676)
(262.2344353 -71.86272469 1.437162271)
(265.7509279 -70.98091845 0.168980262)
(266.9755317 -71.15176722 0.1763797371)
(266.6813801 -70.04064429 -0.9456580368)
(265.9970467 -70.63477118 0.9128732955)
(265.0081488 -70.09498158 0.2796163997)
(269.0772714 -70.41954985 1.009733088)
(268.1866649 -71.65519749 0.5101574856)
(268.898947 -69.90621414 0.7073982997)
(269.4422169 -70.55964595 0.904031993)
(268.7742781 -71.14244793 0.4198095982)
(273.5277597 -72.4635441 0.1676534286)
(274.318157 -71.16379162 0.508963213)
(271.9787758 -71.72685096 -0.203891628)
(273.2855316 -72.26941281 0.7874645314)
(272.3484182 -68.99917394 1.187191587)
(275.0629859 -70.89520982 0.09641042075)
(274.9737731 -70.76790736 0.002616750318)
(275.9053675 -69.22304424 1.529907368)
(276.1962966 -70.6633243 0.2357053628)
(275.883134 -71.00234195 0.2364683737)
(280.4004826 -71.02238455 1.278585204)
(280.1487035 -71.22787525 0.4370698919)
(279.2686265 -70.26389695 0.6383580684)
(278.7667553 -70.73577601 0.7481493978)
(279.0518671 -69.72936876 0.5237312748)
(282.5408502 -71.2448499 1.362547736)
(283.0740395 -71.39855609 0.1417778625)
(283.1371045 -70.5814794 0.4543522607)
(282.1329977 -71.78507341 0.3102988764)
(283.3916732 -70.71477673 0.4489434481)
(286.2872828 -71.13933976 0.5487721391)
(286.3079586 -68.63392968 2.85850113)
(288.094543 -70.46577446 1.689195534)
(286.1634439 -69.50669888 0.4765558055)
(286.7379102 -70.92367664 1.668650748)
(289.1146578 -70.76170229 1.320197388)
(290.2484234 -71.28676344 0.7134945005)
(289.8709092 -71.49080339 -0.8036666379)
(291.2683142 -71.66744284 1.421810224)
(290.2908181 -72.30920605 1.426815335)
(294.8515593 -70.35763141 0.9904608752)
(295.9377167 -70.82332221 2.563689342)
(293.1507066 -70.56540642 0.8626554565)
(293.850918 -70.54421922 1.101562885)
(295.0234447 -70.67763432 0.5169529045)
(296.2300364 -70.17888297 0.7873003858)
(296.2870177 -70.77651412 1.517638674)
(298.8850788 -70.26832389 1.465326764)
(297.1933246 -70.14640863 0.5038234715)
(296.8402774 -71.97689911 0.2442674679)
(301.0855364 -71.0834199 -0.4876317073)
(301.9052988 -71.77636706 1.030331956)
(301.2596849 -70.3480667 0.5625330503)
(300.4531529 -71.07373144 0.4150710997)
(301.8150742 -69.74597266 1.127083715)
(305.7692168 -71.21099249 -0.101060397)
(304.9561328 -70.60804745 0.1107204581)
(304.1850294 -70.76016421 0.1480802175)
(305.2099186 -70.84275905 0.2101439562)
(305.8322245 -71.53152365 0.5500598548)
(309.6470281 -70.59482128 -0.0912137064)
(307.9685128 -71.28433517 0.4480002652)
(309.3743459 -70.93579388 0.8311770188)
(309.2050918 -69.14053977 1.019918026)
(307.9630371 -71.1822891 -0.4110555725)
(311.422327 -68.7950158 -1.003020606)
(313.1194262 -71.47674223 0.7362660473)
(311.4642802 -69.97882552 1.205227658)
(312.3153116 -71.75677868 0.7101540195)
(312.929817 -72.05511456 -0.3639043199)
(315.4477348 -70.70252921 1.17762293)
(316.372813 -70.90164068 -0.6185667821)
(314.9229935 -70.33323107 1.030596129)
(316.7821788 -72.04032047 0.2279994103)
(316.3659007 -71.727332 -0.5106674581)
(319.1481253 -70.62811623 -0.6803147346)
(319.9211825 -70.04838092 0.6454543006)
(317.5057312 -70.24617776 -0.1700421583)
(319.9344803 -70.01448351 0.7664619564)
(317.9614747 -71.09010083 -0.002465011889)
(323.5462728 -70.46227859 -0.3345870654)
(324.5556059 -70.6549545 0.3186803953)
(324.9059293 -72.45598265 0.844353947)
(323.1734898 -70.04857682 0.3808974083)
(324.4471905 -71.04141254 -0.5630827489)
(325.0059041 -71.24919163 0.1399280108)
(326.5480579 -71.16094214 0.06124356617)
(326.7589921 -70.72712704 -0.121681465)
(325.4606935 -69.92130811 -0.7897402351)
(326.5278458 -72.06884041 0.3203570155)
(329.2355685 -69.75825396 1.380522563)
(330.267708 -70.65819181 0.4043792371)
(328.4680399 -69.55417599 -0.2600940711)
(329.2517387 -70.49781015 -1.551456295)
(330.0717979 -70.64318368 1.734353264)
(331.0739074 -71.15607234 1.185486658)
(333.0076608 -70.84151661 0.5344712497)
(334.9396615 -70.81523692 -0.7450426984)
(331.4541528 -71.20235048 1.057063823)
(333.299982 -71.6194876 1.335282127)
(337.6967437 -69.72674219 0.1560662081)
(336.0062258 -69.71133825 0.1411360511)
(335.7798726 -70.52047524 0.6030443618)
(336.747394 -70.73431594 -0.8000955397)
(337.974776 -71.14764877 -0.1521345696)
(340.5076804 -70.10710927 1.245245882)
(340.1803209 -70.67795948 0.5514881984)
(340.8334999 -70.84796392 -0.8407928435)
(339.3594046 -70.00095562 -1.206847825)
(339.8202256 -70.48171848 0.9024531662)
(342.2091484 -70.87774384 -0.7821688735)
(343.6565119 -70.21675583 0.07535385314)
(343.4288792 -70.27389533 0.2720443596)
(344.1012018 -71.62497676 1.378213646)
(343.5326775 -69.622961 0.4785112719)
(347.8808506 -70.99294638 -0.0769818203)
(346.4612674 -71.80199517 -0.08253559808)
(347.5581256 -68.96036141 0.6822879008)
(346.064752 -69.17275361 -1.49128999)
(345.2510367 -71.12655021 0.6680175912)
(351.0804224 -71.91052202 -0.4474702925)
(350.2750269 -70.09695178 -0.3063618674)
(350.1336774 -71.46433505 -0.4296009807)
(348.2998013 -69.45585413 0.2597392255)
(351.2823181 -69.38009222 -0.1824419073)
(353.978394 -71.42876399 -1.400038953)
(353.1761754 -68.88836033 0.1926201044)
(353.9577674 -70.50893461 -1.012616288)
(353.6032826 -70.45317961 -0.2612150633)
(354.9227791 -70.86214045 -0.8481006263)
(356.7855434 -71.38158108 0.4041307641)
(358.8056349 -69.62281852 -0.3525678129)
(356.99355 -69.94201543 -1.182371218)
(358.6292446 -70.0403655 0.8532363643)
(357.8248094 -71.80221586 1.058350423)
(360.4920429 -70.89545166 -0.08461961672)
(361.6630905 -70.77946116 0.2157814597)
(360.5689625 -70.48338078 1.287526888)
(361.1209381 -70.03400225 -0.4195694635)
(361.0959644 -70.98247725 0.2971364976)
(362.7797905 -69.55506843 0.1503712203)
(365.5280857 -71.84345112 0.3129566522)
(364.0676844 -70.51610065 0.7626394445)
(363.1133237 -69.65186 -0.1698608449)
(365.5412415 -70.31702629 1.523604372)
(366.8435907 -70.31790312 -1.040479353)
(368.4408446 -70.51558863 -0.3747060717)
(369.0921841 -69.61497083 -0.3236385323)
(367.7636548 -70.08769201 -0.2722181244)
(369.1016593 -68.52906408 1.177842781)
(369.9938351 -71.72762145 -1.173956632)
(370.5913785 -70.96337493 -0.1938623015)
(372.1891898 -70.26687794 -0.250976488)
(370.3197549 -68.71213799 -0.6335283027)
(370.8877334 -70.44295917 -1.161192264)
(376.0543045 -70.4758123 0.3011781427)
(375.5192755 -70.82596606 1.753195027)
(374.1758785 -70.17331689 -0.7447485521)
(373.9696812 -69.75823321 -0.3654258596)
(375.8497887 -70.27265211 -0.6297054871)
(378.9864159 -70.13810297 -0.8283654012)
(377.5553509 -68.82680238 0.01540184365)
(378.217374 -70.04809462 0.7106987794)
(377.8867074 -69.50974511 0.1177019894)
(377.9275377 -70.20606165 -0.5264030325)
(381.115169 -69.21699726 -1.545527512)
(379.5571657 -69.9929582 -0.4690298248)
(381.9177012 -69.98157556 1.529150771)
(381.3474983 -70.41018558 1.033250627)
(380.8441813 -70.03181021 -1.382539487)
(386.1274833 -70.11286757 0.3797651097)
(384.5568353 -69.83529406 0.1130720554)
(386.2503217 -70.53739963 0.2985338126)
(385.4222942 -68.35441824 0.2299738544)
(384.7836336 -69.79640395 0.7279311556)
(389.0956794 -70.26421421 1.080363692)
(391.0102328 -69.7694019 0.3834526587)
(388.8021111 -70.63360138 -0.3021126618)
(388.2910464 -69.88361448 -0.4458869755)
(388.2033554 -68.56885577 0.2355298004)
(391.7504993 -69.55352352 1.671210636)
(392.6067829 -69.19192406 -0.6222357056)
(393.0655133 -69.79135043 -0.6107384958)
(394.1709243 -68.49874413 1.166232705)
(394.2624763 -69.12053921 0.6325745392)
(397.1349099 -68.631608 -0.3483203777)
(397.5756848 -68.8002124 -0.2223773223)
(396.3018399 -69.09362989 -0.7102186064)
(395.8094153 -70.27522194 -0.2257206306)
(398.903411 -67.43934886 -0.06428485701)
)
;

boundaryField
{
    upperWall
    {
        type            calculated;
        value           uniform (0 0 0);
    }
    lowerWall
    {
        type            calculated;
        value           uniform (0 0 0);
    }
    periodicX_half0
    {
        type            cyclic;
    }
    periodicX_half1
    {
        type            cyclic;
    }
    frontAndBack
    {
        type            empty;
    }
}


// ************************************************************************* //
