/*--------------------------------*- C++ -*----------------------------------*\
| =========                 |                                                 |
| \\      /  F ield         | OpenFOAM: The Open Source CFD Toolbox           |
|  \\    /   O peration     | Version:  v1706                                 |
|   \\  /    A nd           | Web:      www.OpenFOAM.com                      |
|    \\/     M anipulation  |                                                 |
\*---------------------------------------------------------------------------*/
FoamFile
{
    version     2.0;
    format      ascii;
    class       volVectorField;
    location    "5";
    object      heatFluxRotVector_Mixture;
}
// * * * * * * * * * * * * * * * * * * * * * * * * * * * * * * * * * * * * * //

dimensions      [1 0 -3 0 0 0 0];


internalField   nonuniform List<vector> 
500
(
(0.904049418 -26.44508744 0.02626410902)
(0.4993255029 -25.80229094 -0.1317974282)
(1.267312609 -26.474835 -0.5259274696)
(0.9399364374 -26.37284511 0.1917479245)
(1.466498525 -26.17883235 0.1073889588)
(1.024982858 -25.99369729 -0.04064672961)
(0.8385504567 -25.7426345 -0.5594524175)
(1.086603711 -26.05014555 0.2514954438)
(1.174930236 -26.71522442 -0.3286249856)
(0.6161062953 -25.87644612 0.1389528871)
(1.068758913 -25.78765104 0.111461884)
(0.8795856935 -25.7582217 0.08151211461)
(1.300862804 -26.22753367 -0.3048272016)
(0.1510129608 -26.17836481 -0.6506579871)
(0.41087779 -25.75748822 -0.2233115673)
(0.136477711 -25.62694317 0.435311176)
(0.5382666976 -25.60654014 0.06651904769)
(1.055077039 -25.82697852 -0.09103230219)
(0.7132784716 -26.04608359 -0.1540117918)
(0.5475452114 -25.78835598 -0.1922687324)
(0.501252552 -25.49729988 -0.009619920214)
(0.7970014987 -25.40813246 -0.6518808455)
(0.3999553091 -26.18741892 0.2834610093)
(0.7042677193 -25.43707429 0.1406513595)
(0.6837199902 -25.95809321 0.3936750469)
(0.7334532147 -25.2289442 0.3340470516)
(0.3761703347 -25.19626831 -0.1981911065)
(0.3630813714 -25.1623471 0.01375199997)
(0.3519297779 -25.74599767 0.3369800767)
(-0.01211594072 -25.22653012 0.318853657)
(0.1187087481 -25.35338848 0.3672412351)
(1.118260114 -25.48995592 0.08693045252)
(0.7045748622 -25.34484907 0.4008579947)
(0.451043913 -25.81695521 -0.7620271196)
(1.15399376 -24.67813485 -0.06387867287)
(0.1180269587 -25.00974281 -0.08341535723)
(0.755434755 -25.54132898 0.1153073486)
(0.5809058059 -24.68962924 0.5905986367)
(0.603992305 -25.30816734 0.5490444003)
(0.4708005404 -24.95307262 0.3682028057)
(0.4480728411 -25.16878629 0.2722276442)
(0.3812064139 -25.47678536 0.713393194)
(0.4920602926 -25.10427362 0.1711972133)
(0.1031206529 -24.71652563 -0.168604336)
(0.4156883579 -24.8516676 0.1902950981)
(0.9436923254 -25.01547691 -1.212469899)
(0.02315625107 -25.57120401 -0.2203365008)
(0.5048751248 -24.32770001 -0.006690753652)
(0.5116643795 -24.8023916 0.0003988433134)
(1.346687859 -24.79910595 0.04530848379)
(0.7605434168 -25.10173872 0.01165617898)
(0.4731289001 -24.47153602 0.005041910371)
(0.232589447 -25.27785692 -0.1241396792)
(0.3068998978 -24.35796567 -0.03857678647)
(-0.2099833839 -25.31695715 0.6109855857)
(0.89733049 -25.0577789 -0.675668546)
(0.5873885995 -24.26292263 0.6017480485)
(1.002683955 -24.63027349 0.4086789606)
(-0.05216781818 -24.81436985 -0.171206129)
(0.6685756245 -24.84057281 -0.2934674459)
(0.5572933618 -25.02756134 -0.1887709058)
(0.4124706067 -24.07700613 0.6334991016)
(0.6210740348 -24.75594819 0.6275147299)
(0.7186008305 -24.03434529 -0.7593034531)
(0.6896564619 -24.95767905 0.1057740456)
(0.8918552968 -24.25857281 0.1490483773)
(0.679690269 -24.95622199 -0.2496996114)
(0.9434873868 -24.07742611 -0.6019148148)
(0.9310825734 -24.42169672 -0.7303753093)
(0.8017474855 -24.97123755 -0.07277920063)
(0.589002927 -23.91082845 0.02496702779)
(0.8846856314 -24.0997976 -0.5289546039)
(0.5306380499 -24.9309443 -0.1384339404)
(0.6712889945 -24.50852889 0.6676107743)
(1.464412524 -24.78279645 -0.303703172)
(0.8125208328 -23.89564689 0.6252600668)
(1.482150801 -23.89438965 0.3001791433)
(0.5429204126 -24.53143942 0.2740587561)
(0.7711259247 -24.98258991 -0.2195975986)
(0.6240034922 -24.50649864 -0.4889173498)
(1.076253798 -24.94695507 0.6257344085)
(1.41131549 -24.04988837 1.043624845)
(0.9505841932 -24.27189624 0.2936495898)
(0.5349608299 -24.32898075 0.2006105274)
(0.5732424416 -24.44302905 -0.5649145843)
(0.7588546502 -24.61986174 -0.1113491551)
(0.8714779486 -23.65687752 1.018775628)
(0.3655007617 -23.92836264 0.1102540554)
(0.1968329457 -24.52512386 0.3290190022)
(1.162492273 -24.55255951 -0.8523439047)
(0.8273294104 -24.36188011 -0.4143509306)
(0.3978804729 -24.06917752 0.001965141478)
(1.417904648 -23.91304315 0.6358689441)
(0.6555813882 -24.52601169 0.003684961979)
(1.04241519 -24.54196421 -0.3864157602)
(0.8631814668 -24.13235414 -0.8571184364)
(0.3863380321 -24.12441359 0.2399991856)
(0.7950673634 -24.71636684 -0.1049552962)
(1.342852125 -24.23842242 0.420850376)
(1.017057853 -24.49441696 0.2775869915)
(0.6135067406 -23.36665433 0.1145440861)
(0.7426667197 -23.65766806 -0.09831555091)
(0.5987652771 -24.81843586 0.2990901437)
(0.9044249576 -24.35971583 -0.1733807224)
(0.9109524821 -24.38292978 0.1605555445)
(0.5305690125 -23.66955254 -0.3215685738)
(1.138615119 -24.81146189 0.787482152)
(0.7680085041 -24.54529806 -0.1897297682)
(0.2147098614 -23.98622034 0.5067836616)
(0.4570564084 -23.82280939 -0.187807668)
(0.6536074287 -24.16373204 0.5346787131)
(0.3500241874 -24.1813327 -0.1506117351)
(0.949920441 -24.41674532 0.6708409968)
(0.8317955389 -24.19887289 0.1355485909)
(0.7833213996 -23.67449745 0.8063041363)
(0.5698397341 -23.96706007 0.6119592108)
(0.299302088 -24.21096286 -0.5368513263)
(0.3197584801 -24.49844947 -0.1546595303)
(0.348040349 -24.16077019 0.1813124746)
(0.7508951447 -24.06483027 0.4448198558)
(0.9829619163 -23.78219019 0.1568687019)
(1.362592106 -23.75044332 -0.1725298232)
(0.2356209322 -24.11497599 0.005015954905)
(0.9179849209 -24.25726318 0.2935158943)
(0.625869334 -23.86020301 0.4080064474)
(1.332596361 -24.07493832 -0.1501862691)
(0.3809692999 -24.21719575 0.7885793476)
(1.436145596 -23.82171372 0.1044419879)
(1.375174185 -24.77944637 -0.3223227548)
(0.7550228104 -23.50470414 0.8203675024)
(1.119869646 -23.31273945 0.6392723827)
(1.665038783 -23.5932946 -0.05174205336)
(0.9203261956 -24.3707077 0.352851195)
(0.8725177876 -23.09701358 0.5209360425)
(1.105676284 -24.20190478 -0.2041388834)
(0.8281703064 -24.66233405 -0.1680030504)
(0.8940355156 -24.07330757 0.7896202736)
(0.623406572 -24.45507353 -0.3240225495)
(0.9037155112 -24.1513065 0.7897239962)
(0.08056539917 -23.81330923 0.01388777488)
(0.8505810925 -23.87310388 0.1506850821)
(0.8459070647 -23.72281742 -0.005022990828)
(0.8681651234 -24.25575982 0.2707395298)
(0.8471913339 -23.5371871 -0.01341757404)
(1.185346039 -23.82681238 0.405470504)
(1.528371976 -24.40044935 0.8421041794)
(0.6492261696 -23.41191023 0.1155437395)
(0.99154937 -23.43801334 0.2517464584)
(0.8116105674 -24.04949807 0.5179404164)
(1.176096275 -23.98323095 0.5933330309)
(0.2934730216 -24.34205165 0.07540543569)
(0.3836168496 -23.09623551 0.5060791442)
(0.6866850279 -23.34569431 -0.2682436178)
(1.028472553 -24.21650369 -0.3398960722)
(0.4722770593 -24.1200114 -0.3587011924)
(0.8474725105 -23.67507967 0.6800825295)
(0.7210405318 -23.30387509 0.07871863978)
(0.9918584363 -23.98323558 0.3043158356)
(0.6132922278 -24.40542448 0.2647521742)
(0.534488159 -23.69099836 0.3521345274)
(0.3833235523 -24.08493703 0.03862699482)
(0.4666379538 -22.99553674 -0.4259425501)
(0.5688645287 -23.6557809 0.8715657344)
(0.4226878368 -24.10157496 1.076908438)
(0.04981705083 -24.34902341 1.105223511)
(0.7563430312 -23.26013708 0.1928904925)
(0.1490992191 -23.32545162 -0.2011977464)
(-0.1435286442 -23.67185571 -0.4653573547)
(0.9937167898 -23.29210713 0.7973911205)
(0.4586315404 -24.47854858 0.8904956398)
(0.365398276 -24.37367138 0.08558245697)
(0.9043162311 -22.99130213 -0.2776311079)
(0.5783093815 -24.04875886 -0.5354710381)
(0.4476516301 -23.52668409 0.4793797464)
(0.2321144334 -24.0844196 -0.3455091161)
(0.492719688 -23.48152354 -0.7109597851)
(0.4615657066 -23.6756721 0.6633511381)
(0.3091013925 -23.65184353 -0.00250093944)
(0.4281971151 -23.33062029 -0.5720024691)
(0.9558011511 -24.01080513 -0.1014602384)
(0.4165055188 -23.69943363 -0.5335676484)
(0.3203022407 -23.61012143 -0.2747629703)
(0.1791895247 -22.90709746 0.9808074256)
(0.759606836 -24.18705459 0.00590020994)
(0.8287129312 -23.80353165 0.6304663249)
(0.5488809865 -22.51261412 -0.2813989031)
(0.653977096 -23.35178201 -0.3325028494)
(0.4382541309 -23.76734424 0.3590909892)
(1.077861948 -23.83371341 0.9335329735)
(-0.2548795818 -24.29240074 0.0743896362)
(0.2027162826 -23.88220439 -0.8953391389)
(0.4165946926 -23.64318551 -0.661946188)
(0.6731220894 -23.89906275 -0.025380785)
(0.1926432299 -23.87635969 -0.1273753775)
(1.137027513 -23.87085163 -0.4892370964)
(0.5018083462 -23.0446503 0.4462314528)
(0.7415004801 -23.51929503 -0.1021217961)
(1.094275981 -23.4460108 0.3231068946)
(-0.1084850021 -23.4712465 0.8991974448)
(0.1496859619 -23.02534319 -0.6475277826)
(1.313961907 -23.75140346 0.8457932886)
(0.9465108805 -24.11645466 0.5934538814)
(1.171539358 -23.35211844 -0.172264462)
(1.088559929 -24.21375529 -0.3417584366)
(0.917142611 -22.99286581 -0.08036528778)
(0.794521805 -23.5675671 -0.3977284836)
(0.8588686574 -23.78571449 0.1043535729)
(0.8201649542 -24.09092233 -0.06378724962)
(0.9221379785 -23.67900245 -0.3049261677)
(1.187233256 -23.43093611 0.06725281068)
(1.181817841 -23.66706498 0.2286503837)
(1.107480224 -23.47774849 0.4934715044)
(0.2468440768 -23.53127319 0.4865954312)
(0.9802189966 -23.58639147 0.3046368027)
(0.5887594939 -23.50628366 -0.3084843309)
(1.009569148 -23.01703867 0.3491617521)
(0.7400547823 -23.58476414 -0.2022876908)
(0.09005688048 -23.89798794 0.1188968594)
(0.8556120701 -23.76337784 -0.5091079857)
(0.3070600229 -23.84202087 -0.8945275416)
(0.8197987994 -23.43448994 -0.0153174927)
(0.1342518012 -23.83111597 0.2972412475)
(0.7891886397 -23.78881131 -0.5265192415)
(0.7128327414 -23.56581516 -0.4223868104)
(-0.2265128879 -23.99869714 -0.5326267735)
(0.09032973619 -23.31485317 0.1407432013)
(0.7685174219 -23.24600115 -0.1754286738)
(0.5309353957 -23.90599303 1.017380437)
(0.4095151874 -23.80627535 -0.2220972303)
(0.6501403039 -24.32470186 0.2767362766)
(0.3888123336 -23.53454955 -0.3455036306)
(1.33281509 -24.01782122 0.06397536601)
(0.09214573106 -23.57536436 -0.7258394653)
(0.6632423679 -23.35485661 -0.7517583076)
(0.6035828462 -24.0027555 0.2000465305)
(0.2159089413 -23.59437403 -0.1960523997)
(0.5604457946 -23.33332961 0.108642817)
(0.69420199 -23.58604924 0.5468224102)
(0.9673054669 -23.60711524 0.3535198246)
(0.5674551038 -23.66229018 -0.3838813847)
(0.5020166528 -23.43917123 -0.185361048)
(0.1628292502 -24.37983386 0.1764391366)
(1.024875611 -24.13493542 0.251452707)
(0.9512012836 -23.37342957 0.4917644976)
(0.1539604761 -23.64838368 0.3929966563)
(0.9945679085 -23.51288123 -0.5570865993)
(0.5861178447 -24.27999783 -0.1364697863)
(0.02679078789 -23.42704818 -0.3570596719)
(1.188897205 -23.42020975 -0.4572891978)
(0.06052651568 -23.08087659 0.4290933056)
(0.5318789395 -24.14276478 -1.428334889)
(0.6926925058 -24.06987964 -1.014767241)
(-0.6578906654 -23.48973852 -0.5549787687)
(-0.01169689268 -23.41742141 0.5101936274)
(0.8229024787 -23.37142983 0.02128675072)
(0.2683885535 -23.00791902 -1.447365867)
(0.3341878158 -23.95767448 0.263652129)
(-0.1507460933 -24.13592858 0.4771891819)
(0.447292764 -23.56803727 0.1059014595)
(0.8025387095 -23.75123451 -0.5364062562)
(0.9220592871 -23.49383991 -0.5060857925)
(1.050347112 -23.64522947 0.07781934269)
(0.5801260788 -23.93044281 0.2834652112)
(0.781706894 -23.02949211 -0.2075760715)
(1.011668679 -24.06835223 0.4756162088)
(0.4419662969 -23.56550964 0.02626913561)
(0.7163704434 -22.77564101 -0.8020708231)
(0.3419870433 -23.48753581 -0.5913300925)
(0.6011421149 -24.43199558 0.4986231172)
(0.685306206 -23.46134025 0.9092172513)
(0.7319624559 -23.50658097 0.7017838201)
(1.159292514 -23.69904005 -0.8053813957)
(1.751213877 -23.64806956 0.8827880208)
(0.3943757086 -23.47718599 1.127992678)
(1.287232564 -23.72873527 0.6234774426)
(1.342635907 -23.50625308 -0.3223067318)
(0.8910412405 -24.47253369 0.2872153162)
(0.7734444498 -23.62754048 -0.5232916276)
(0.9541113515 -23.73879088 0.4787125768)
(0.2382194291 -23.40550419 -1.111324355)
(1.227541 -24.59188049 -0.470081471)
(1.52537724 -23.6990995 0.9285852527)
(0.7421533342 -23.05766915 -0.009968826543)
(1.274911411 -23.81159201 1.29537989)
(1.359854203 -23.32724188 0.09843708181)
(0.9742970708 -23.61221457 0.06187326604)
(1.484463841 -24.10710305 -0.3972597531)
(1.329973838 -23.72412061 0.5233329628)
(0.9082722859 -23.73631767 0.2128717471)
(1.02926281 -24.32080659 0.2813514263)
(1.67709128 -23.72344866 0.02683955595)
(1.389088982 -24.08871922 0.09457504907)
(0.9705038698 -23.98487372 -0.2917665447)
(1.169394032 -23.48010287 0.6252310014)
(0.6052627153 -24.11586677 -0.0737121641)
(0.8615115215 -23.40396282 0.1097290708)
(0.3316390235 -24.32689354 0.05610702239)
(0.5227315515 -23.53697617 -0.1816940687)
(1.114239073 -23.69793959 0.5915011911)
(1.101324127 -23.9243207 0.4364833759)
(0.1008809523 -23.34617591 -0.9363325794)
(0.4098957291 -23.48081848 0.195931983)
(1.038152521 -23.92406727 0.3288316837)
(0.152255525 -24.1673013 -0.2401309188)
(1.386918762 -24.083445 -0.03906695502)
(0.4820477646 -22.96044785 -0.7305309529)
(1.144759297 -23.27305374 0.1732933856)
(0.4944415301 -23.81664757 -0.1467785141)
(1.056232762 -24.15525388 0.05066346301)
(0.1067516404 -23.62161245 -0.3163206236)
(1.752829411 -23.25940002 -0.3658337849)
(0.6202435778 -23.93930241 0.07414661881)
(1.525464805 -23.65223992 0.156637059)
(0.7469506941 -23.72536072 0.0386779412)
(0.1644381422 -24.28291671 -0.1486812155)
(1.003559015 -23.94534484 0.4844648128)
(1.396100017 -23.3318743 -0.7200067206)
(1.161948771 -23.67997242 -0.02203140527)
(1.973991276 -23.1904296 -0.3490803085)
(0.8202050532 -24.38042008 0.5309655781)
(0.7317070179 -23.37213347 0.6711307312)
(1.374516498 -23.94423261 -0.4900205657)
(0.8089517427 -23.83984839 -0.236477158)
(1.367745583 -23.31394923 0.3335290103)
(1.420778091 -23.61254942 0.6823995454)
(2.336270647 -23.73892787 0.05493185758)
(1.916727645 -23.86293896 -0.3182178445)
(1.365780373 -23.5801558 0.2058063831)
(1.954110901 -23.53683663 0.4201251184)
(1.968501355 -24.08009621 -0.1286063754)
(1.172416616 -23.65105593 0.7024888685)
(1.188558796 -23.51867409 -0.170214202)
(0.7286395902 -23.99629347 0.2526259854)
(1.768415891 -24.45795097 0.1241565648)
(1.731613755 -23.73187803 0.8126308072)
(0.7496257901 -23.89591261 -0.942630142)
(0.8675446394 -23.99533316 0.03491046882)
(0.7792684197 -23.96735129 0.2306643023)
(1.472809722 -24.27296435 -0.1265871161)
(1.374217849 -23.67865847 -0.0622273386)
(1.381315851 -23.8901381 -0.1110843091)
(1.436486384 -23.95286041 -0.9941071282)
(1.590021161 -23.86809648 -0.399500685)
(1.501917357 -23.62393817 0.4575195618)
(0.5317845725 -23.49015782 -0.3094470914)
(1.165798538 -23.87897765 -0.6013467624)
(1.04353201 -23.84340914 -1.636771326)
(0.9384186642 -23.58571812 0.1815324067)
(0.1273608664 -24.01786728 -0.1834838567)
(0.709642284 -23.47459094 0.2965421641)
(0.9055566433 -24.4086255 -0.5081144653)
(0.8847451904 -23.72572643 -0.912142965)
(0.6414445305 -23.50238872 0.3623569187)
(0.8174615115 -23.48372506 0.6798213198)
(1.206618702 -23.69694986 -0.1907180926)
(1.033327501 -23.38392485 -0.2608660294)
(0.971615065 -23.86387137 -0.2202879963)
(1.876097086 -23.62830146 -0.4066221804)
(1.564181623 -24.62249233 0.6939606425)
(2.153572214 -23.64962698 -0.4331618457)
(1.496764371 -23.80303666 -0.1235235808)
(1.329703433 -23.70433778 -0.02163435222)
(1.156975751 -23.30852461 0.116297332)
(2.037828237 -24.30307874 -0.3768367477)
(0.1531521834 -23.3397986 -0.3583294867)
(1.031800783 -23.46175359 0.4682061603)
(0.8030799298 -23.76454528 -0.3185478414)
(1.827092853 -24.37895053 0.06183799311)
(1.170519874 -23.69961237 -0.1358353455)
(0.9993778342 -23.88830835 0.8646700152)
(0.4700729246 -23.16718783 -0.1212875374)
(1.552366025 -24.07858984 0.2176269514)
(1.30617159 -23.79841405 -0.387628124)
(0.5439520493 -23.95158887 0.3578947655)
(1.1111527 -24.14245262 -0.3637357664)
(1.045952359 -23.76207638 0.6437586901)
(1.536048158 -23.81836883 -0.2608814483)
(0.500495997 -24.2190972 0.1635394857)
(1.712943976 -23.43714293 -0.8013959092)
(1.040407658 -23.33075767 -0.2966268408)
(0.4119602138 -23.98409381 -0.2689978865)
(0.6122021702 -23.64130915 -0.02539008065)
(0.7844060895 -24.97071837 -0.4452475358)
(0.5138144847 -23.86595965 -0.6386544049)
(1.298363602 -23.64536306 -1.243846508)
(1.626858159 -24.08857594 0.4000057227)
(0.5412558764 -23.73387643 -0.1304569295)
(1.281044618 -23.90916441 0.1126216696)
(0.8589161457 -23.70878657 -0.3897267793)
(0.1326443263 -23.52854822 -0.3901701856)
(1.309785847 -23.54520492 -0.4658748217)
(0.5867340948 -24.4304611 0.04373095775)
(0.6016389195 -23.7643974 0.003159901257)
(0.9512079808 -24.28673088 -0.3317060167)
(0.9366312651 -23.19043856 -0.7716035033)
(1.677111886 -24.40310887 -0.4337605886)
(1.240659815 -23.74048891 0.563375166)
(0.511259192 -23.67807281 -0.2832378651)
(-0.3003254713 -24.27983776 0.0550278418)
(1.360798361 -24.39040632 -0.7918599654)
(0.9422604042 -23.60759558 0.7012033657)
(1.318171561 -23.74702831 0.4630072045)
(1.107478205 -23.79325884 0.9316191226)
(1.447514581 -23.57338731 -0.6879787616)
(0.6272974674 -24.47848307 0.05035451901)
(1.038986491 -24.25531167 0.3190895908)
(1.790845679 -24.26851717 0.2705745097)
(1.472263879 -23.33520887 0.6878706238)
(1.59367895 -24.27201938 -0.2327224051)
(1.516886036 -24.79353245 0.3728094425)
(0.921658875 -24.10514555 0.461951803)
(1.385801013 -24.57452429 0.844265369)
(1.372185181 -23.37326255 0.9150424107)
(1.6369492 -23.52664641 -0.0202167768)
(0.5686080704 -24.20362252 -0.3393286727)
(1.553279188 -23.90608101 1.0524144)
(1.127918701 -24.5584982 0.04813746002)
(0.8846934793 -23.96291866 -0.1169775702)
(1.221271568 -24.45592547 1.101845234)
(1.312477701 -24.89027716 0.1672092444)
(1.087557363 -24.10967433 0.4158089215)
(1.071885479 -24.17696698 0.4210076642)
(1.310214162 -23.99540232 0.5582032982)
(1.054083304 -23.32405243 0.126869903)
(1.605635002 -24.75369716 0.5085313905)
(1.057634876 -24.34951186 0.3048516886)
(1.470359125 -24.46347276 0.5118526302)
(1.28008077 -23.88872917 -0.0503931775)
(0.9891499595 -24.70771515 1.280160592)
(0.4390754125 -23.83009435 -0.2897704884)
(1.179300682 -24.59621196 0.4134682717)
(0.9535461777 -24.54300907 1.232944123)
(1.377212994 -23.71356573 0.1728165331)
(1.680012376 -24.30748101 -0.3228337952)
(1.55350711 -24.34661272 0.4585255154)
(1.295972663 -24.57582084 0.05711713684)
(0.9352924145 -25.00074775 0.6945251282)
(1.206700866 -24.18531219 0.3995791027)
(2.145026766 -24.12911048 -0.03238608696)
(1.922501163 -23.7174165 -0.1002912341)
(2.601132395 -24.47631923 0.8712230606)
(1.835609364 -24.23485673 0.009321995573)
(1.246122682 -23.94869284 1.794713659)
(1.220308998 -24.78147654 0.3502794987)
(1.801753866 -23.81368666 0.1808038485)
(2.056527472 -24.29387153 -0.2514865482)
(1.533292146 -24.40329396 0.9637227843)
(1.410177223 -24.60925041 1.09861107)
(2.326719846 -24.5464553 0.8080618655)
(1.900610965 -23.87255988 0.6455089527)
(1.791038199 -23.99168745 0.01114802176)
(1.499673912 -24.343268 0.2557268242)
(1.667554886 -24.58659312 0.6073907937)
(0.9072675486 -24.23147018 1.360713145)
(1.64301099 -24.33140166 -0.1040322261)
(1.485006419 -24.51771192 -0.4465176169)
(1.182360384 -24.28227292 -0.7629469672)
(1.080586596 -24.79429297 0.2769833296)
(1.051650731 -24.7553169 0.8864750202)
(1.674591361 -24.31133066 -0.3056268287)
(1.473515573 -24.70638017 -0.8185921988)
(0.8379372734 -23.71454737 0.0531073729)
(1.681330104 -24.71184798 0.2771604899)
(1.59375197 -24.50620168 0.5687516631)
(1.330785409 -24.96293514 0.2523919668)
(1.034768808 -25.01445352 0.200636089)
(0.6847104907 -24.81316076 0.05297090446)
(1.379147566 -24.6773042 -0.422081642)
(0.9528237991 -24.34492074 0.6291322589)
(1.118700677 -25.11107784 -0.2394899817)
(0.8016606419 -24.76758622 -0.9714394535)
(1.46779546 -24.72636113 -0.3982681941)
(1.147705408 -25.6239721 -0.01429138724)
(1.425487972 -24.51025452 0.3216530549)
(1.149984006 -23.74524366 -1.553114387)
(0.185956443 -24.78182411 0.2054077601)
(-0.087467462 -24.99307411 0.01466745468)
(0.907646475 -25.17749285 -1.433232042)
(0.3152218961 -24.59229245 -0.2341335511)
(0.3672815167 -26.08823616 0.04642901021)
(1.505109721 -24.38944134 -0.2431408941)
(0.7857545917 -25.95984116 -0.3816147128)
(1.187839525 -25.08690374 -0.9915919279)
(0.2187962148 -25.55735663 -0.7805202649)
(0.7851955162 -25.54670192 -0.2492645998)
(0.9565122365 -25.02073763 -0.6678975521)
(0.9770846108 -24.84438468 -1.346241135)
(1.23721294 -25.1772159 -0.5795443065)
(1.597559528 -25.64932245 0.1068891832)
(1.582199717 -25.20007953 -0.178374938)
(0.6813541489 -25.26679971 -0.5677431662)
(1.026494729 -25.26776445 -1.111317694)
(0.5547004004 -25.88671484 -1.182955587)
(1.000959184 -25.67532053 -0.9430621365)
(0.4053430417 -25.38619992 0.3002376446)
(0.6339865877 -24.93981333 0.8593885444)
(1.235346086 -25.23792795 -0.8925035877)
(0.8625391088 -25.94553033 -0.909914808)
(0.5620723638 -25.70735283 0.6524730392)
(0.3956631546 -25.76618988 -0.006189097372)
)
;

boundaryField
{
    upperWall
    {
        type            calculated;
        value           uniform (0 0 0);
    }
    lowerWall
    {
        type            calculated;
        value           uniform (0 0 0);
    }
    periodicX_half0
    {
        type            cyclic;
    }
    periodicX_half1
    {
        type            cyclic;
    }
    frontAndBack
    {
        type            empty;
    }
}


// ************************************************************************* //
