/*--------------------------------*- C++ -*----------------------------------*\
| =========                 |                                                 |
| \\      /  F ield         | OpenFOAM: The Open Source CFD Toolbox           |
|  \\    /   O peration     | Version:  v1706                                 |
|   \\  /    A nd           | Web:      www.OpenFOAM.com                      |
|    \\/     M anipulation  |                                                 |
\*---------------------------------------------------------------------------*/
FoamFile
{
    version     2.0;
    format      ascii;
    class       volVectorField;
    location    "5";
    object      heatFluxTraVector_N2;
}
// * * * * * * * * * * * * * * * * * * * * * * * * * * * * * * * * * * * * * //

dimensions      [1 0 -3 0 0 0 0];


internalField   nonuniform List<vector> 
500
(
(13.07548268 -33.42833938 0.8745742559)
(13.20973167 -33.52186224 0.6040204354)
(13.10363091 -33.75957949 0.2970849309)
(12.97665249 -32.37040611 0.06428320875)
(13.67670406 -33.88508412 -0.137028796)
(15.39601449 -33.45618936 -0.4341474556)
(16.30194724 -33.22749827 0.1892243014)
(15.70247963 -33.18755659 0.6929635335)
(16.72175875 -34.05872411 -0.3349805125)
(15.61877497 -34.20815449 0.1824484907)
(18.13316343 -33.54428016 -0.3413014157)
(17.65771228 -33.71581323 -0.3524447212)
(17.94471781 -34.16567582 0.117470664)
(17.86676084 -33.22554488 -0.1857365389)
(18.23902693 -33.82365238 0.3786185158)
(20.5485986 -34.15321305 -0.8950477245)
(20.2977467 -34.42827283 -0.03215071282)
(20.69293635 -33.10578937 0.6381180594)
(20.25243577 -34.22184516 -0.8256679523)
(20.37451413 -33.96734231 -0.2912615568)
(22.36171597 -34.03756217 -0.04898782838)
(22.60556112 -33.69426106 -0.2226891878)
(22.70154031 -33.81624749 -0.3106105796)
(22.5901211 -34.56785887 -0.3806906775)
(22.34346534 -33.70668465 0.1934178394)
(25.96870692 -34.48304884 0.616214374)
(25.35416447 -34.70447977 -0.1182019203)
(26.08399213 -32.86545678 -0.0705502423)
(24.97581188 -33.62959596 -0.3126051494)
(25.54582554 -33.80137192 -0.666009404)
(27.87380992 -34.19991896 -0.03899520377)
(27.2493261 -34.21465486 0.06538267835)
(27.64352842 -34.15222708 -0.2085666886)
(27.89881595 -34.16664107 -0.8796821842)
(27.23229736 -34.6252597 -0.2681042409)
(29.76989738 -33.77829972 -0.4425732482)
(28.30411162 -35.37600578 -0.6521198677)
(29.84654808 -33.66876556 -0.2295590729)
(28.69402579 -34.61810135 -0.4986291736)
(30.19950215 -33.90877196 -0.4635018693)
(31.05366433 -34.38257986 -0.9712881463)
(31.60536124 -34.94035618 -0.3154266096)
(31.32299173 -34.60119337 -0.5312637239)
(31.23396256 -34.04506798 -0.788871641)
(31.78144364 -33.93380222 -0.5103037693)
(31.95119075 -35.24680618 0.2391898617)
(33.19599559 -33.75569318 0.2430895632)
(32.89900871 -34.65624256 -0.2430534686)
(33.3183144 -33.81939305 -0.5904059489)
(32.66596212 -34.05336507 -0.08917289192)
(35.7454652 -33.81774024 0.2830338909)
(35.17813535 -34.59456721 -0.06229773187)
(34.07072821 -35.17052011 0.5693285491)
(35.43809958 -33.48597947 -0.5311923136)
(34.81983634 -35.92149921 0.3578812005)
(37.12056314 -34.55886471 -0.3243393587)
(37.59465672 -34.93995291 0.6141956853)
(36.77301123 -34.57600043 -0.1459760677)
(37.08069305 -35.0367201 0.13105084)
(36.6655233 -34.23118249 0.3700932276)
(38.89238941 -35.02124119 0.0159356652)
(39.89831523 -34.43525829 -0.8129795549)
(39.06997421 -34.44968167 0.8968909304)
(39.82109691 -34.2648818 0.9664936935)
(40.16117216 -35.01374971 -0.2053656466)
(41.42872862 -35.19132307 0.292374073)
(40.9757571 -35.1058373 -0.188547642)
(41.59999696 -35.08979701 0.3162357198)
(41.74864488 -34.52875438 0.1244139395)
(40.47141035 -34.82675376 -0.1834131494)
(43.44229093 -34.28406841 0.3665575753)
(42.32222902 -34.74232737 -0.2388165109)
(43.09284561 -34.38470184 1.252608254)
(43.40653945 -34.71691606 0.2648650043)
(43.64211382 -34.96747724 0.2658303244)
(44.68742084 -33.82675299 1.004121621)
(44.01154301 -35.88825855 1.573343228)
(44.34907372 -34.88164303 0.562433465)
(44.56330797 -35.14412843 0.946527926)
(44.56056752 -34.64625469 0.2847922496)
(47.30970756 -35.04827636 0.008503943909)
(47.28961386 -33.86895103 0.5101046859)
(46.66446593 -34.76715228 1.471726032)
(46.55705039 -34.86666007 0.2964082479)
(47.21116335 -35.71536169 0.9338682852)
(48.48457976 -34.10462274 -0.01741830364)
(48.70502293 -34.82937256 0.6198680563)
(49.16940393 -35.49667209 0.3766354735)
(49.44011919 -34.48144854 0.365583045)
(49.33678066 -34.3578193 0.8703763462)
(51.17402565 -34.44705199 0.3523592742)
(51.27502147 -34.49250919 -0.1382682857)
(50.96501895 -34.70311668 0.2827395147)
(51.16212528 -34.98893666 0.1842379841)
(51.42733053 -35.45251796 0.01454114593)
(53.11870223 -34.29861964 -0.6456763434)
(52.62763174 -35.4341975 0.01462939433)
(53.42814346 -35.3552606 -0.07848311755)
(53.61933558 -34.82908166 0.03807156008)
(52.36153624 -34.76333619 -1.195892144)
(55.47690514 -35.21363504 -0.02818649048)
(55.4131337 -34.36751025 -0.5431784911)
(55.57824279 -35.25909897 0.05772980721)
(55.80531459 -33.87407136 -0.06337518214)
(55.03745533 -34.82737044 0.3488959545)
(58.34086059 -34.95351788 -0.886911952)
(57.14524587 -34.88478148 -0.2761669182)
(57.18925772 -34.87067817 -0.368745266)
(57.6433448 -35.38514819 0.4368878019)
(56.63775105 -34.63019357 0.07210232067)
(59.04374428 -34.66366567 0.3320687612)
(58.27500451 -34.84819174 -0.7568755699)
(59.76746864 -34.35803155 -0.4125149237)
(58.7881858 -34.89199236 0.09130796069)
(58.63867431 -35.32603468 0.5239193137)
(60.64189913 -34.85897213 -1.802177739)
(60.85884622 -35.31925952 0.2066908261)
(60.86840327 -35.37775122 -0.1926498534)
(60.98753923 -34.8231193 -0.3869594643)
(60.82222043 -34.00790523 -0.2388184712)
(62.34245216 -35.26578563 0.5442245274)
(62.60053881 -35.1024892 1.159242151)
(62.8005859 -35.69499441 -0.4946528674)
(62.80919515 -34.70366902 0.3646496007)
(62.30154319 -35.41897575 -0.6003494108)
(64.66297612 -34.3389054 0.3711394345)
(64.87301064 -35.62161104 -0.5105430039)
(64.05588017 -34.88540908 0.7683896188)
(65.13045358 -35.10454399 -0.6491773094)
(64.36524122 -34.52086915 0.3581490705)
(67.0434508 -35.23645385 -0.2106566627)
(67.44084438 -35.14072518 -0.8670040081)
(66.15780288 -34.36086685 -0.04167041997)
(66.52635032 -36.37397696 0.7965727237)
(67.37276016 -35.50835779 -0.278969877)
(68.5208157 -35.06513046 0.2516044077)
(69.79370663 -34.86423546 -0.09364924469)
(68.33394139 -34.40192651 -0.3345939387)
(69.17549205 -34.10774909 -0.01478856711)
(68.89084984 -34.2306947 0.7118479606)
(71.39670632 -35.42250583 -0.3923385594)
(70.03541422 -34.64353203 0.7631389036)
(70.11797302 -34.83458512 -0.04590816513)
(71.06070194 -36.4067645 0.5458905535)
(70.45911702 -34.55847572 1.162587361)
(72.83117253 -36.09623404 0.7988957166)
(73.02006815 -34.53271346 0.3047438139)
(72.69676192 -33.80536224 -0.6936392923)
(72.9602393 -35.03907028 -0.5443616092)
(72.37908875 -35.27619887 -0.165621739)
(75.11510364 -35.45855374 0.919360239)
(75.73495019 -34.74810908 0.4336646353)
(74.97345551 -35.20891831 1.416913562)
(75.17051257 -35.32114025 -0.2202538144)
(75.14325918 -34.81198913 -0.2815800525)
(76.97477114 -35.29287711 1.080923116)
(76.54345414 -34.49324457 0.2302230307)
(77.61446499 -35.41074962 -0.1583222383)
(76.48677698 -35.86032367 -0.01434687232)
(77.60840128 -36.17966777 0.1088008775)
(78.72901097 -34.89045783 0.3360297117)
(78.61180205 -34.00164919 0.9283384689)
(78.31396785 -35.79653221 -0.02559399597)
(79.2336935 -35.09391034 0.3109692316)
(79.28158034 -35.17376219 0.3012189262)
(80.62583474 -34.73517964 0.0741771398)
(81.13466537 -34.85497039 0.2615615396)
(80.64065145 -34.87244918 0.7933611409)
(79.95259019 -34.6518716 -0.1391033751)
(80.69892286 -35.49962909 0.2746265858)
(82.30123277 -34.42882925 0.7931247916)
(82.4896308 -35.56942163 0.7230562863)
(82.96738165 -35.41635145 0.482234086)
(83.05952019 -35.30027124 0.3470868068)
(82.04098223 -35.44288629 -0.302253477)
(85.5760885 -35.3492788 0.6071168417)
(83.95016701 -35.57937875 0.8911009474)
(84.08007818 -35.43427307 0.3335496853)
(85.16526047 -34.93033299 1.241678084)
(84.1286206 -35.50768241 1.085393266)
(86.17786735 -35.21786783 0.5812920808)
(85.44395712 -34.88688496 1.407093762)
(87.24088345 -35.13741033 0.4824981158)
(86.31437966 -35.71400972 0.6886808645)
(86.27311222 -35.16065422 0.1782048125)
(87.96762204 -35.05450315 -0.4512907627)
(87.70922121 -35.4583711 0.8617332605)
(87.92556586 -35.80110565 1.027676869)
(87.94920532 -35.99738651 -0.1221502977)
(87.37017681 -34.02652202 1.085213224)
(89.21522381 -36.26347595 0.01922723105)
(89.73186778 -35.90078977 0.1350237168)
(89.64365717 -35.66685741 0.2048842914)
(89.96527786 -34.17949206 -0.1627146265)
(89.884556 -35.65207293 0.5470749509)
(90.66540789 -34.9620945 1.144051671)
(91.28482633 -34.90026999 -0.2501773905)
(91.66848572 -35.60670481 0.8465114457)
(92.1809123 -35.18499531 0.5269467009)
(91.30736906 -35.23160181 -0.7867833849)
(94.27018788 -36.02927059 0.3288265085)
(93.50608209 -35.46583593 -0.2976267748)
(93.05683554 -35.49839461 0.5544590345)
(93.72109057 -34.2022486 0.4164563149)
(93.11885672 -35.17287279 1.127789444)
(95.89328164 -36.15881994 -0.4976727431)
(94.95479535 -35.56508243 0.441879454)
(94.96478684 -35.83681413 0.221007078)
(95.8508095 -35.1205571 0.5691851898)
(95.99279559 -35.17922832 0.3213947823)
(96.47966748 -34.89015033 1.023090856)
(96.67619997 -35.11215498 0.2675898203)
(97.79166433 -35.7136719 0.8668999431)
(97.20265547 -34.70332962 0.4522002079)
(97.07206063 -35.57095938 -0.6542521962)
(99.00652493 -35.22236162 0.9013248558)
(98.69703915 -36.02209213 0.3825065106)
(99.08813648 -36.004658 0.2174554843)
(97.8807831 -34.48667932 1.290329765)
(99.04318794 -35.63418339 1.119344262)
(100.7156533 -36.21574101 0.7898328871)
(100.5994403 -34.91697104 0.7647989598)
(101.1501779 -35.31029404 0.4044599893)
(100.7800169 -34.90403084 0.697679387)
(101.1009188 -35.36334512 1.535654944)
(102.563896 -34.89443163 0.4016985369)
(102.9180928 -36.09638807 0.854081882)
(102.0423532 -35.09580777 0.8996433649)
(102.7783004 -34.50490358 0.6867163848)
(102.4145625 -34.83120587 0.8316240815)
(104.2943732 -36.17622427 0.8080539626)
(104.2640943 -36.06302071 0.7166460599)
(104.8854662 -35.00147405 -0.5677857197)
(103.5880852 -36.33607074 0.9919483603)
(104.2970729 -34.84786959 0.4616105939)
(106.9741786 -35.57830068 0.4572702686)
(105.8694776 -35.17406489 1.043939411)
(105.502945 -36.45621476 0.6936181631)
(106.6985022 -35.61202653 1.226433681)
(106.9694431 -35.08017024 0.7919789484)
(107.7852744 -34.72479429 0.6400368357)
(107.8569397 -35.06747212 0.7775113894)
(108.1277525 -35.7698761 0.5277279281)
(106.8635901 -35.72561784 -0.2926877879)
(107.1305426 -34.99820196 0.6395936353)
(109.1732025 -35.89365734 1.311135937)
(110.3573392 -35.6815889 0.4586133197)
(109.0919494 -35.63194568 0.2382602884)
(110.2169313 -35.46883485 0.9796068527)
(109.3272561 -36.12375283 0.1601627113)
(110.496354 -34.64989313 0.8567983041)
(111.7401968 -34.91936666 0.3963667905)
(110.7633107 -34.53487219 0.6848228398)
(112.0036632 -36.20596339 0.353324816)
(110.5565296 -35.4325307 0.9205388655)
(113.8125501 -35.15162095 0.2726888199)
(112.9873803 -35.44458972 -0.1171549226)
(112.387141 -34.47709456 0.007070666137)
(112.7746172 -35.56196887 0.1496825802)
(113.3737706 -36.21515307 0.7802242005)
(114.112748 -35.99010165 0.1121641251)
(115.1515589 -34.88005677 0.2990136225)
(115.198721 -35.14626287 -0.6838169116)
(115.6000238 -35.74858849 0.4971371884)
(114.7739286 -35.50708998 -0.3590277627)
(116.9163315 -34.81487231 0.4451649493)
(116.8742634 -34.45612045 1.483797526)
(116.7308431 -36.16184433 0.08113758083)
(116.7106884 -35.59428945 0.414577846)
(117.3024474 -35.65395681 -0.03589318225)
(118.0194034 -35.21246292 0.355148894)
(118.5708212 -35.34389665 1.151284487)
(118.7415467 -34.7506843 -0.1813429731)
(119.3249124 -35.01720248 0.2184124455)
(118.5765034 -35.48895563 0.2472561466)
(121.2085299 -35.77650977 0.4231165603)
(120.4887161 -35.62660576 -0.2586697549)
(120.0678882 -34.35566544 0.8090907023)
(120.1402645 -35.35535435 1.122125486)
(119.4179318 -36.20819031 0.08540227009)
(122.1902562 -35.30607342 1.575537667)
(123.0865466 -36.09549189 0.5792324308)
(122.1483943 -35.29961688 0.3346003683)
(122.6441819 -35.18579064 0.1452648251)
(122.416329 -35.44190616 0.586977534)
(124.5269669 -36.06510253 0.5564731651)
(124.028857 -35.42851321 0.2068151211)
(125.1288786 -34.7400249 0.6635361739)
(123.9905448 -35.44902643 0.8403718582)
(124.489788 -35.05761308 1.181714563)
(126.1453483 -35.88676521 -0.2765265645)
(125.8037151 -34.38755494 0.9478970625)
(125.6765715 -35.52526295 0.9257159416)
(125.7660643 -35.95701757 1.443309624)
(126.291825 -36.23824191 0.8914734293)
(127.4375581 -35.08209174 0.04771618702)
(128.2633542 -36.20239797 0.2294337218)
(127.617877 -35.2084105 -0.1609714585)
(128.1184631 -34.94903442 0.5892284965)
(127.7535041 -35.3711486 0.6699875627)
(129.8104961 -34.62631582 0.5422902306)
(129.0933921 -35.28245443 1.155377679)
(129.3864842 -34.76639289 0.4029347516)
(129.3305774 -36.00493806 0.4497602276)
(129.2115951 -35.35903547 0.852264631)
(131.4863306 -35.6984221 0.3230455059)
(132.339213 -35.10078983 -0.440806215)
(131.7700413 -35.59985558 1.089790657)
(132.2992109 -35.44234313 0.2636569301)
(131.890369 -35.62917836 1.041718025)
(134.1940273 -35.78340036 0.4018141459)
(133.8898928 -35.19952194 -0.07649782674)
(134.2561904 -35.60003054 -0.4849177686)
(133.2029949 -34.91163337 0.3064425231)
(133.2458461 -34.69799767 -0.5819943049)
(134.6656561 -35.10922533 0.9318547091)
(134.6278931 -36.44165138 1.132926819)
(134.6750309 -35.33556313 0.8491950959)
(134.5086676 -35.66811787 1.018721568)
(134.0535726 -35.33230576 -0.5764390525)
(137.3008588 -35.13280964 0.5366187603)
(137.382808 -35.42485432 0.2672185008)
(136.342223 -35.90347658 -0.1417342151)
(136.8638139 -35.76773778 0.619044763)
(136.6302935 -34.96710511 1.182865175)
(137.6366542 -35.57407077 -0.1883362286)
(137.6089539 -35.70473024 0.2503965656)
(138.2381131 -34.04063586 1.072012454)
(138.1999564 -35.92237726 0.3555686153)
(138.325616 -35.61499008 0.7522785764)
(139.5779228 -35.61180181 0.9665424102)
(139.7157224 -35.82182785 0.7156394634)
(139.7160983 -34.90353081 0.8477807106)
(139.1517358 -35.76988116 0.1530755464)
(139.4318712 -35.06876835 0.5077641323)
(141.0703802 -35.82773075 1.446848476)
(142.1565413 -36.33950189 0.09838615472)
(141.2376906 -35.54191898 0.0622699954)
(141.2449131 -35.20279009 0.6948220774)
(141.9791822 -35.60689474 0.2885975)
(143.2634764 -35.31541609 -0.02611733623)
(142.8392634 -34.59227625 1.224618707)
(144.6611677 -35.03191667 0.7088000217)
(142.7378056 -34.62761547 0.1026475407)
(144.2297425 -35.64823631 1.019563166)
(144.0523355 -35.6270668 1.049294262)
(145.2876514 -36.02195396 1.1155991)
(145.0620293 -36.55239045 0.1593081074)
(145.6142062 -35.75327939 1.217087695)
(144.9882547 -36.11067389 1.393101013)
(147.857464 -34.92695762 1.079029235)
(147.8119138 -36.17887114 1.435672148)
(146.5981022 -35.82920633 0.8579058661)
(147.5043448 -35.38923051 0.9003005041)
(148.2651073 -35.21177515 0.07190241152)
(147.882567 -35.16602273 1.014235378)
(147.9113528 -35.55865884 0.8828339323)
(149.5011252 -35.09413452 0.8766325702)
(147.9719863 -35.4845126 0.1692232899)
(147.6763237 -35.81852997 0.2496582027)
(151.0470122 -35.29378023 0.2751223465)
(150.4087912 -36.12281358 -0.08413676121)
(150.3121971 -35.21673599 0.5193750033)
(149.8274826 -36.18275361 0.2038100113)
(150.534754 -33.82539532 0.4703269159)
(153.0196061 -35.46801486 -0.825100006)
(152.6752513 -35.55571065 -0.3705400177)
(151.5261054 -34.4739477 -0.2868684272)
(152.5794075 -35.51782092 -0.1508497318)
(152.8835011 -35.73365148 0.602247487)
(155.0038925 -34.83090581 -0.3793869648)
(153.4962521 -35.99204275 0.03864172803)
(154.5963291 -34.73240868 0.4965820674)
(154.5762223 -34.51110696 0.8908416746)
(153.9564377 -35.81521902 -0.3571806611)
(155.3360191 -33.8118347 0.19764696)
(156.9080075 -35.87731234 0.4602998518)
(155.3573411 -35.06438038 0.6965492589)
(155.7203455 -35.83548741 0.7411936605)
(156.5941356 -36.48372673 -0.3437479595)
(157.4165481 -35.37792164 -0.2229698716)
(157.4196035 -35.50718836 -0.8375732305)
(156.8197953 -35.24393921 0.7698686586)
(158.5335335 -35.96570048 0.3964517438)
(157.6744838 -36.11501647 -0.06538994812)
(159.7496255 -35.16224227 -0.656866342)
(159.5902085 -34.38236392 0.904760044)
(158.1910747 -34.67898714 -0.1999785379)
(159.6062215 -34.55764671 0.1197065022)
(158.9086047 -35.6410446 0.1910336745)
(161.7973139 -35.08992801 0.6105733226)
(161.6952583 -34.9313858 0.324479593)
(162.2710666 -36.87281827 0.1373615098)
(161.0749143 -35.37901492 -0.2362147118)
(161.8127963 -34.89396454 -0.2381005869)
(161.944239 -35.83379209 0.4436577888)
(162.8354975 -35.32795797 0.428969716)
(163.3009799 -35.33561624 0.4586721535)
(162.6991653 -34.55660851 0.2033922547)
(163.6719789 -36.06446071 0.3344580979)
(164.5935649 -34.47419423 0.375590146)
(164.4321913 -34.88249976 0.1254585739)
(163.5098198 -34.86760382 -0.1530874893)
(163.4954462 -34.98692768 -0.7417296964)
(164.5619117 -35.621616 0.4256353143)
(164.4374961 -35.53228251 0.4059185262)
(166.187523 -35.76592332 0.2556088046)
(166.9897528 -35.83742127 -0.6722575189)
(165.4007015 -35.52473568 0.6625431769)
(166.9323793 -35.78541676 1.134045611)
(167.7122687 -35.0883149 0.04532766488)
(167.7700497 -34.45487436 0.1997701118)
(167.0763024 -35.30061275 0.8183802097)
(167.4305167 -35.45754839 0.4752025489)
(168.2255732 -34.591686 -0.1333359876)
(171.1802526 -34.66493829 0.6194280371)
(170.105956 -34.39893454 0.1584581023)
(169.9767984 -35.92747912 -0.6912243937)
(170.0421138 -35.22618754 -0.6677525674)
(169.4026316 -35.42537421 0.332669629)
(171.0603758 -34.80664644 -0.2408525713)
(171.3402255 -35.23909714 -0.175830913)
(170.8468826 -34.4546104 0.3932889001)
(171.8885185 -35.93853583 0.8930369596)
(171.9035665 -34.7581611 -0.1171279446)
(173.3576424 -35.27618328 0.4297312971)
(172.8571119 -35.21535512 -0.09403504938)
(173.097299 -34.45130272 0.1150605724)
(172.823675 -34.01031591 -0.9646194544)
(171.7383133 -34.87762887 0.6375184297)
(175.2191941 -35.69542074 0.2556694611)
(174.8932505 -35.55565551 -0.1086762796)
(174.4867017 -36.03400518 -0.05246989266)
(173.9861006 -35.12808676 -0.2734325679)
(175.3916366 -34.94843948 -0.07891569608)
(177.444904 -35.81740194 -0.5947993195)
(176.3749197 -34.41909762 -0.1911216351)
(176.8351906 -35.15190005 -1.231698913)
(176.0472249 -34.7768171 0.0959924765)
(176.7619647 -34.54047417 -1.2738675)
(178.1670582 -36.24500093 -0.1349082537)
(179.1510244 -35.00685314 -0.3625755681)
(178.698951 -34.56788184 -1.22584075)
(179.5600136 -34.87249306 0.6326751196)
(179.0556668 -35.37808087 0.044061618)
(179.3555896 -36.03698684 -0.294262431)
(179.9265729 -35.85048474 -0.2725322969)
(180.0423321 -34.74891372 0.1312612693)
(179.8924881 -35.43693474 -0.1385297087)
(180.8328614 -34.80587402 -0.2429766896)
(181.3733362 -34.34431691 -0.4267933012)
(182.6665207 -36.01805409 -0.8725080955)
(182.1314819 -34.91179763 0.6831022318)
(181.1448806 -34.78751041 0.02497111347)
(182.5221907 -34.92052286 0.6108807898)
(183.2812075 -35.39203879 -0.6175836112)
(184.254023 -34.51367027 -0.6574632177)
(183.9058322 -34.94527162 -0.8439584525)
(183.4883376 -34.65842565 -0.5705616726)
(184.816126 -34.08125738 0.1892407386)
(184.9972854 -35.72106406 -0.7519878123)
(185.4154469 -35.51826937 -0.2662279433)
(186.6955022 -34.8654761 -0.4478987317)
(184.4163842 -33.61340579 0.06758327685)
(185.255061 -35.11629627 -0.3183925156)
(188.6759157 -35.71584874 1.062644565)
(188.1755378 -36.02455538 0.8565553679)
(187.1178901 -35.1867128 -0.8943572491)
(187.4506409 -35.0880827 -0.05896200348)
(188.2034311 -34.45273638 -0.4803600127)
(189.8670931 -34.46953776 -0.103871696)
(188.2927339 -34.24393417 -0.2317609524)
(189.5558881 -34.23110634 -0.06410330734)
(188.8014642 -35.10214553 0.5516805173)
(188.7387126 -34.99051471 0.0783181247)
(190.9072816 -34.70292081 -0.8427972373)
(189.7808794 -35.18924148 -0.2459201196)
(191.3391065 -34.76121789 0.3669618443)
(191.1557379 -34.25199398 0.1390748281)
(190.4795846 -34.57056912 -0.3696791227)
(192.7020461 -34.94247992 0.7005270312)
(192.9605433 -34.91469342 -0.8203867677)
(192.4721807 -35.13151729 -0.6418371993)
(192.0845107 -33.92959719 -0.5870077544)
(191.6049639 -35.35433136 0.08772491107)
(194.1091984 -34.93003087 0.3915223661)
(196.1869014 -35.40974243 1.18336499)
(194.2361924 -34.869737 0.1016499721)
(193.9052471 -35.01735081 -0.9102420502)
(194.6003414 -33.44502398 0.8673179666)
(195.8665062 -34.97633996 0.8859610161)
(196.4741131 -33.72054927 -0.5207864098)
(195.8078775 -35.12558004 -0.4662191125)
(197.0577256 -34.07078798 1.430316501)
(197.2254439 -34.5470785 -0.3270330334)
(198.2190034 -34.87886761 0.3714616421)
(198.7018031 -35.07375442 -0.3474547553)
(198.1974462 -34.73940398 -1.30664342)
(198.3169554 -35.39264382 -0.7330691572)
(199.3405168 -33.63181412 -0.4250517823)
)
;

boundaryField
{
    upperWall
    {
        type            calculated;
        value           uniform (0 0 0);
    }
    lowerWall
    {
        type            calculated;
        value           uniform (0 0 0);
    }
    periodicX_half0
    {
        type            cyclic;
    }
    periodicX_half1
    {
        type            cyclic;
    }
    frontAndBack
    {
        type            empty;
    }
}


// ************************************************************************* //
