/*--------------------------------*- C++ -*----------------------------------*\
| =========                 |                                                 |
| \\      /  F ield         | OpenFOAM: The Open Source CFD Toolbox           |
|  \\    /   O peration     | Version:  v1706                                 |
|   \\  /    A nd           | Web:      www.OpenFOAM.com                      |
|    \\/     M anipulation  |                                                 |
\*---------------------------------------------------------------------------*/
FoamFile
{
    version     2.0;
    format      ascii;
    class       volVectorField;
    location    "5";
    object      heatFluxRotVector_O2;
}
// * * * * * * * * * * * * * * * * * * * * * * * * * * * * * * * * * * * * * //

dimensions      [1 0 -3 0 0 0 0];


internalField   nonuniform List<vector> 
500
(
(0.8848753702 -13.31106624 -0.1678526083)
(0.5363716208 -12.8861795 -0.1375467965)
(0.5311964729 -13.18001901 -0.3869386073)
(0.7791862455 -12.86009052 0.03049030682)
(0.8545958597 -12.92720334 -0.1036854335)
(0.5619760478 -13.0719538 0.1008399239)
(0.3885648947 -12.87597337 0.0737584926)
(0.6627039816 -12.78429496 0.3006259189)
(0.6547613654 -13.4266021 0.05783177895)
(0.6847658564 -12.80323916 -0.1305792184)
(0.5985994242 -12.34714232 0.06283094756)
(0.6584116505 -12.86596993 0.278733616)
(0.6343412785 -13.16633641 -0.1576963789)
(0.03215880949 -13.17118851 -0.130038738)
(0.477586599 -12.87334022 -0.07234872326)
(0.1632241685 -12.7779454 0.5309058941)
(0.1804868461 -12.57226896 0.3423576118)
(0.5342583889 -12.54979178 0.08527990488)
(0.3296624796 -13.14407267 -0.1414631733)
(0.5862325052 -12.82420909 -0.2852812997)
(0.1873251435 -12.8822495 0.01930238404)
(0.6636837801 -12.46550075 -0.352386621)
(0.2555654668 -13.24184005 0.09057625286)
(-0.02683086742 -12.85615702 0.003067218734)
(0.4194824584 -12.92322789 -0.08911909164)
(0.3704738883 -12.72228266 0.355629383)
(0.5266312425 -12.49229506 -0.3609710093)
(0.4918834017 -12.26133735 -0.3756171279)
(0.3372734378 -12.87199723 0.4736630055)
(-0.1024795271 -12.79352763 0.4883912884)
(0.1134239562 -12.63223318 -0.05501012115)
(0.3879478407 -12.92976976 -0.3662632535)
(0.3310762679 -12.42799619 -0.06895588869)
(0.5453797074 -12.74323347 -0.4823769769)
(0.6516429482 -12.4145555 -0.3139467559)
(-0.3221818472 -12.5271196 -0.2148572702)
(0.4496983951 -12.86004569 -0.2473234278)
(0.2643992064 -12.36226874 -0.05604202799)
(0.3453252976 -12.69550023 0.4103244178)
(0.2457806568 -12.42276257 0.01516469471)
(0.3259597996 -12.40683786 -0.3947328995)
(0.4142593765 -12.94958503 -0.1621114031)
(0.2039519321 -12.77984088 -0.2073135932)
(0.01369686061 -12.49649398 -0.05904156777)
(0.09319164138 -12.57652745 -0.03495327282)
(0.2245757529 -12.48007549 -0.9232355842)
(0.1662744669 -12.83691342 -0.1925280507)
(0.2292558327 -12.29570782 -0.2016963086)
(0.2687499761 -12.27269926 -0.387717011)
(0.7422756905 -12.26588156 -0.2346882229)
(0.6057338406 -12.83343902 -0.3536274435)
(0.1098648227 -12.34562333 -0.1375538717)
(0.1408158568 -12.70098199 -0.08551186127)
(0.07619035752 -12.14110942 -0.1992892264)
(-0.2653618256 -12.88062238 0.2535486805)
(0.2967768664 -12.62107161 -0.355262178)
(0.331487882 -11.99354612 0.2998712769)
(0.5934430853 -12.24423579 0.1676413742)
(-0.1999794857 -12.21660511 -0.2127930931)
(0.3406412034 -12.83446199 -0.1466792818)
(0.1640070418 -12.73897814 -0.3457289136)
(0.461893737 -11.93771746 0.3130959994)
(0.08426695306 -12.44410235 0.1732403819)
(0.4215199622 -11.95434643 -0.4364262473)
(0.6239296745 -12.61830832 -0.3798196548)
(0.4233855812 -12.22064426 0.1302992148)
(0.5340640415 -12.35295893 -0.003676065385)
(0.202741006 -12.01508937 -0.2089413708)
(0.7008632039 -12.31527535 -0.1150476846)
(0.4645632159 -12.68598172 0.2359707423)
(0.1298222853 -12.03999255 -0.1592957992)
(0.6499207213 -12.09379126 -0.2491456964)
(0.07010347044 -12.24894926 -0.04288323506)
(0.174672813 -12.28032244 0.3323320894)
(0.7334710525 -12.66596309 0.1212244987)
(0.4717384949 -12.0539843 0.4948986116)
(0.725769323 -11.92298876 0.1110124911)
(0.3113570918 -11.80574319 -0.1217783132)
(0.4726109377 -12.57192475 -0.1361062877)
(0.3247286078 -12.36870776 0.2372217267)
(0.2497926197 -12.61866049 0.498440863)
(0.8329248924 -12.1290687 0.4909623937)
(0.5996612118 -11.78884566 0.1703424927)
(0.1770772123 -12.19948218 0.2270888425)
(0.4693797903 -12.4303438 -0.3205472015)
(0.4611914564 -12.41946849 -0.2210358313)
(0.3977907131 -11.84321834 0.4927987001)
(0.2463881898 -12.04364027 -0.04819042445)
(0.2815788346 -12.10759632 0.2472165058)
(0.5836118733 -12.30734255 -0.567077643)
(0.2625606043 -12.28345334 -0.1050318057)
(0.2530157598 -11.85733796 -0.106561864)
(0.5678179609 -12.0409143 0.5233597517)
(0.4452723522 -12.20165057 -0.2547143387)
(0.6938558065 -12.12049014 -0.1949169427)
(0.5781489619 -12.37945483 -0.08883340921)
(0.2153086639 -11.93890836 0.1799708182)
(0.4986028063 -12.07758261 -0.1683166783)
(0.6072774856 -12.10636868 0.02721150732)
(0.7481042656 -11.98716483 0.3093228968)
(0.6809246386 -11.55543 -0.112738212)
(0.566321233 -11.72580624 0.2067153913)
(0.5115906511 -12.59642076 0.628261873)
(0.6913337322 -12.07621974 0.03401665919)
(0.643920819 -12.03691146 0.3181063793)
(0.3231895041 -11.775081 -0.215844279)
(0.8025911418 -12.25238352 0.5408570304)
(0.836019247 -12.30955614 -0.1868066687)
(0.1571092899 -11.85058167 0.5183124871)
(0.3232672233 -12.03725876 0.1959882534)
(0.4364395037 -12.02945059 0.2021589919)
(0.1465505166 -12.12792978 0.1598661227)
(0.1361006385 -12.0895614 0.5195636888)
(0.6922689009 -12.11403312 0.3782228956)
(0.5542734553 -11.92623523 0.03750275442)
(0.4535378246 -11.90803921 0.3423347581)
(0.05168832424 -12.03870806 -0.1784484011)
(0.501204451 -12.39314778 0.01129300513)
(-0.1300817818 -12.11699202 0.121325102)
(0.1646996062 -11.97447072 0.1627603778)
(0.519955753 -11.73515848 0.1888161409)
(0.6429110897 -11.78769342 -0.2436667794)
(-0.03667809372 -11.91897022 -0.05049367421)
(0.416136222 -12.41606038 -0.003654635004)
(0.5361957705 -12.0511398 0.4434615917)
(0.644937664 -11.75847949 0.2268250656)
(0.1716498623 -11.98741145 0.7704669431)
(0.5353738281 -11.77830636 0.4052877293)
(0.9246599065 -12.71302809 0.05264867699)
(0.2531601506 -11.98035391 0.3941852215)
(0.2234463734 -11.72825877 0.6740918519)
(0.7492174614 -11.58633222 0.580083296)
(0.6082594218 -12.26618546 0.580550094)
(0.01277080271 -11.55213042 0.5427410501)
(0.1672816427 -12.21245 0.05024258972)
(0.006499701577 -12.5336578 0.1907478912)
(0.1918405867 -12.28484838 0.4969293532)
(0.2485679635 -11.90909897 -0.1628719892)
(0.382926912 -12.00189149 0.4669524578)
(-0.1546945581 -11.64916657 0.3609894388)
(0.599346819 -11.86072721 0.6383737834)
(0.1664600766 -11.80253768 0.08079776457)
(0.3202500944 -12.06155234 0.3629834548)
(-0.02962377436 -11.77266258 -0.1164259758)
(0.6800567616 -11.84885849 0.2425589273)
(0.4792971919 -12.38746331 0.5288601566)
(0.3466312585 -11.90837855 -0.05816858508)
(0.4495231476 -11.5448219 0.2048472299)
(0.1381842706 -11.92991547 0.1982996611)
(0.466092681 -12.03976336 0.4711889058)
(0.1989055875 -12.23292434 0.1007618862)
(-0.2587807941 -11.54375567 0.1368397325)
(0.4904300073 -11.5556104 -0.2514653304)
(0.6505111927 -12.20837873 -0.5754289307)
(0.3433412129 -12.03140844 -0.438553396)
(0.2916982003 -11.79281149 0.2882265711)
(0.4950354444 -11.53863599 0.1359018388)
(0.3856875483 -11.99998739 0.05462905671)
(0.4698671376 -11.97084831 0.2670261894)
(0.1967155925 -11.88293494 0.3137582484)
(0.1901516571 -11.89051417 -0.2448054471)
(0.07299222892 -11.35819257 0.02778173338)
(-0.06523260022 -11.78465467 0.6614128781)
(-0.1359287061 -12.06345772 0.5927439988)
(0.05491274891 -12.26350178 0.327753141)
(-0.1123486383 -11.4276839 0.08370938972)
(-0.08761100162 -11.515009 -0.4982080149)
(-0.2475323007 -11.78057598 -0.1256717856)
(0.2982824901 -11.53099108 0.7666839754)
(0.2259009339 -12.36886955 0.2054432722)
(-0.2043539299 -12.15503887 -0.4828933782)
(0.3850426929 -11.44353592 -0.1418057185)
(0.1212563257 -11.85726973 -0.192998413)
(0.1592181189 -11.73209271 0.1929341273)
(0.2084247951 -11.91992096 -0.3154223915)
(0.2966922989 -11.77241203 -0.1797072315)
(-0.09762973433 -11.61457922 0.1694332541)
(-0.183612126 -11.69815523 -0.06365958741)
(-0.3044015235 -11.43814585 -0.5158178442)
(0.07622253804 -11.92935245 -0.6381555885)
(-0.133134095 -11.91842057 -0.2308808037)
(0.09792922106 -11.62467851 -0.2426412224)
(-0.1014350628 -11.27787234 0.4653794454)
(0.2936239863 -11.95586241 0.006932842381)
(0.2285973459 -11.99063394 0.5012720612)
(0.086700719 -11.1563478 -0.5310478677)
(0.09612212746 -11.62634991 -0.5268361698)
(0.2185502912 -11.93180544 0.2858866242)
(0.3489724891 -11.7973705 0.2929406029)
(0.04569135934 -12.10614481 -0.08232817836)
(0.1903154922 -11.95557789 -0.5795924149)
(0.4004828658 -11.44763821 -0.6495602582)
(0.246040801 -11.82147929 0.1124169142)
(0.6116949183 -11.84727008 -0.1452594418)
(0.4709166006 -11.80743307 -0.5095311093)
(0.2341036685 -11.73092866 0.3610710514)
(0.6791620612 -11.93211781 0.04754092244)
(1.006709621 -11.61633085 0.3593614045)
(-0.186053949 -11.75265062 0.3124481445)
(0.402743973 -11.53372973 -0.4120744075)
(0.8949135348 -11.53608434 0.1498734769)
(0.7830899371 -11.94226861 0.03045398587)
(0.5246744163 -11.505656 -0.1390690393)
(0.5892423106 -12.04461478 -0.6338022007)
(0.4380508634 -11.59314463 -0.4960265575)
(0.07835899792 -11.88189514 -0.6659793875)
(0.484337169 -11.73279182 0.01347938369)
(0.5064006299 -12.11436541 0.1104252026)
(0.3325992509 -11.67645444 0.0197872689)
(0.4555003385 -11.7350083 -0.4746058586)
(0.2484600735 -12.05353733 -0.01470191332)
(0.3854413061 -11.8662388 0.0530818585)
(-0.3439345836 -11.59086244 0.1825084114)
(0.292147019 -11.7775847 0.3369514196)
(-0.0320425497 -11.53731325 -0.2889077603)
(0.5976851438 -11.44441246 -0.2246995331)
(0.02916627965 -11.76879904 -0.182021167)
(-0.06605800199 -11.66212293 0.4903871909)
(0.4676585304 -11.76982705 -0.5598483944)
(0.2484347271 -11.91047965 -0.2711828441)
(0.04516545638 -11.7480478 -0.5836858892)
(0.08947500044 -12.14030476 0.3572275409)
(0.6386809527 -12.02200604 -0.3411303302)
(0.5569883882 -11.74624209 -0.4330753561)
(-0.06396373348 -12.03717175 -0.6544808924)
(0.1877467185 -11.68047553 -0.2325708887)
(0.6908439908 -11.8877166 -0.5101179889)
(0.2334265592 -11.94366736 0.5970259956)
(0.4350511894 -11.4629539 0.01614324541)
(0.8254439173 -11.78248575 -0.07178818176)
(0.4754774914 -11.75183135 -0.433934008)
(0.8405107864 -12.15498316 0.09922129691)
(0.6586245729 -11.64572549 -0.2895424397)
(0.4908992448 -11.70432186 -0.02831222268)
(0.7752472367 -11.98874812 0.1027354928)
(0.3187415921 -11.66619213 -0.3824872036)
(0.7649243516 -11.71407732 0.1226933975)
(0.5038497829 -11.84029327 0.3346000642)
(0.4157599412 -11.73490078 0.06370136638)
(0.8848226812 -12.0170798 -0.3319550475)
(0.5183445822 -11.7531244 -0.1485920953)
(0.0352667423 -12.31443114 0.3870429644)
(0.8610800254 -12.24405759 -0.2935725434)
(0.8056605907 -11.74074181 0.0752281132)
(0.2324512858 -11.69297063 0.1195591243)
(0.9628714162 -11.84286107 -0.6382690632)
(0.4334856922 -11.97602751 -0.0001437940304)
(0.5397859514 -11.8205429 -0.1425736164)
(0.65174877 -11.55705652 -0.4769545412)
(-0.08332788713 -11.28031322 0.06637287235)
(0.2015312534 -11.78231874 -0.7022638713)
(0.6174017726 -12.31289672 -0.5466179537)
(-0.3628278542 -11.79233301 -0.3068680642)
(-0.2445028118 -11.5206655 -0.0587025283)
(0.24270928 -11.78838741 -0.3487240009)
(0.2672798968 -11.33755149 -0.9682646232)
(0.1275063886 -12.09296387 0.4705298744)
(0.1302814833 -12.35298759 0.1684661511)
(0.4940467438 -11.78498359 0.12660363)
(0.3202930532 -11.77547028 -0.3124300091)
(0.7995987148 -11.76446252 0.07468062801)
(0.6095796927 -11.67378119 0.3048814565)
(0.6361946747 -12.12031304 0.3045745369)
(0.6819855522 -11.35802675 -0.1602999821)
(0.7887797648 -12.00227209 0.2754327652)
(0.4714618984 -12.17352528 0.1661534544)
(0.3583273451 -11.21710842 0.008128653849)
(0.5277197369 -11.76915521 -0.2776976152)
(0.04666441283 -12.33083754 0.01515408447)
(0.6874942893 -11.66593721 0.1049677285)
(0.302208334 -11.56303022 0.4797652122)
(0.3833766776 -11.68454303 -0.4674258742)
(0.3540114412 -11.48449446 0.2472593874)
(0.05348275234 -11.88747177 -0.01142317607)
(0.3021222243 -11.64177009 0.4426913015)
(0.8236116891 -12.07059144 -0.317058718)
(0.07211861328 -11.88498485 -0.2266950739)
(0.4012172498 -11.63843607 -0.2022496299)
(0.1193259256 -12.27258649 0.186455273)
(-0.3848751047 -11.87406613 -1.137715991)
(0.5862319389 -12.00747271 -0.4794783285)
(0.769740678 -11.74151721 0.5920052163)
(0.6230527857 -11.54223047 0.4942199159)
(0.7723990036 -11.8185796 0.9809120025)
(0.8169206644 -11.9409419 0.07385671478)
(0.4194825834 -11.89766361 -0.1575620904)
(0.5199781412 -12.2427688 -0.1690115542)
(0.9203603206 -11.78458119 0.6672553182)
(0.3908226101 -11.70092801 0.6185620392)
(0.2560231753 -12.30324061 -0.03662304585)
(0.7095684226 -11.678302 0.08714503714)
(0.8543288514 -11.87456304 -0.3118866489)
(0.6957596423 -11.66193488 0.004050966678)
(0.2932845226 -11.680818 0.2261157993)
(0.6734155513 -12.48800359 -0.159859488)
(0.5929367502 -11.6279387 0.3889289179)
(0.4132078365 -12.0803006 -0.1008022426)
(0.1303453284 -11.83758512 -0.191380519)
(0.631996124 -11.96285323 0.542023442)
(0.7872017263 -12.20464894 0.5034366409)
(-0.1461635424 -11.58026676 -0.3664046251)
(0.3397262178 -11.74766756 0.4657042585)
(0.7055935862 -11.53599596 0.2758145191)
(-0.09303407479 -12.21941016 -0.1637108845)
(0.8616710614 -11.8711374 0.7107227517)
(-0.009627606367 -11.63262901 -0.2034396319)
(0.3951124036 -11.67806377 0.2433478336)
(0.1729974249 -12.03316423 -0.1532613538)
(0.3156230662 -11.94417031 0.2952488802)
(-0.110705834 -11.58368338 0.2473827496)
(0.5730970817 -11.75083852 -0.2184791106)
(0.4413706881 -12.03483989 -0.2195564682)
(0.8238811198 -11.75729785 0.1618281554)
(-0.2974968208 -11.82792239 -0.1192709702)
(0.08052657095 -12.03051357 -0.1192144373)
(0.5362093273 -11.6728437 0.3058216717)
(0.7879409018 -11.8669598 -0.5725377414)
(0.4741240502 -11.74737399 -0.4887970047)
(1.447086246 -11.66051292 -0.285930049)
(0.3185896043 -12.23472208 0.4597672952)
(0.3221327612 -11.52356375 -0.1169534299)
(0.7455464705 -12.17746747 -0.4387570994)
(0.2033320935 -11.82227222 -0.3741126435)
(0.636037011 -11.40090399 0.04359267177)
(0.9452515412 -12.11253517 0.4325244448)
(1.40912818 -12.05285442 -0.1502559616)
(0.7863405963 -11.74805892 -0.4903060182)
(0.5692366548 -11.66845452 -0.259357158)
(0.9965667982 -11.70676405 0.4928424684)
(0.8069581304 -11.96014359 -0.3802203428)
(0.6973515526 -11.67972469 0.1834453392)
(0.6686143745 -11.80152125 -0.006522504141)
(0.1303037146 -11.9788178 0.02691151077)
(1.135441216 -11.96098842 -0.4359781099)
(0.9012502012 -12.07788329 0.301185485)
(0.04272062574 -12.13849249 -0.631934916)
(0.3439966343 -11.77211775 0.03750437653)
(0.09555011564 -12.11410847 0.01860293931)
(0.7097402314 -12.08888852 -0.4415688996)
(0.4804984466 -11.9075495 0.3472910075)
(0.7891043612 -12.15133711 -0.2050153379)
(0.8219246144 -11.56008564 -0.1377448784)
(1.346569065 -11.73807493 0.05727881226)
(0.7119691342 -11.50970957 0.3900062382)
(0.5669824423 -11.48920771 -0.386895995)
(0.8154912797 -12.00931596 -0.350137872)
(0.3265942123 -11.86736344 -0.6873876274)
(0.5792391701 -11.91008429 0.08572810312)
(0.06818543675 -11.99804257 -0.3939593622)
(0.6531551841 -11.54327674 0.06854244119)
(0.2661048081 -11.89322632 -0.2981584341)
(0.6533683255 -11.89297311 -0.4943267953)
(0.3633494926 -11.81480337 0.5735814161)
(0.5117617617 -11.98339225 0.164749357)
(0.498290999 -11.90645452 -0.2636402062)
(0.8196509184 -11.48937531 0.006513182122)
(0.2729651874 -12.00112432 -0.06051742129)
(1.45628055 -11.60516159 -0.2069449555)
(0.6878527909 -12.34084938 0.6546027791)
(0.6584281364 -11.91919798 -0.06081186057)
(0.9295755696 -11.92098468 -0.1654103219)
(0.3079588372 -11.44889212 -0.7358350452)
(0.6209353019 -11.59801706 0.02578029652)
(1.173553829 -11.75393863 -0.3053392436)
(0.1509200732 -11.75996633 0.09647416719)
(0.1275169731 -11.43741276 0.2583723145)
(0.4544297895 -11.60456934 0.1657172867)
(1.127275477 -12.26356948 0.2255245297)
(0.6816897188 -11.92767561 -0.1051705707)
(0.7201483461 -12.07311393 0.4516538581)
(-0.03955341639 -11.52301471 -0.505383527)
(0.8686737551 -11.93740187 0.389052379)
(0.7444157444 -11.99333219 0.5023226778)
(0.01729012827 -11.38582564 0.6072165377)
(0.5081900213 -11.94983348 -0.07752981004)
(0.9196437709 -11.85294971 0.2243506626)
(0.8379067345 -11.45762837 0.08952143211)
(0.6756022735 -12.10507191 0.1823203102)
(1.26574277 -11.45024619 -0.2203759858)
(0.4008639894 -11.36354226 -0.2246446739)
(0.4304495855 -11.81604177 0.2568167713)
(0.4137373129 -11.9426791 -0.09478190622)
(0.3621292434 -13.04276968 0.1528063619)
(0.1666469994 -11.44331494 -0.3054974129)
(0.7548901768 -11.34644608 0.04148495523)
(0.9088790151 -11.70191503 0.700209736)
(0.128953333 -11.81150305 0.06787120546)
(0.7306710967 -11.7851136 0.58361122)
(-0.1243756629 -11.6881584 0.1525366001)
(-0.07129266552 -11.86108346 0.2854938271)
(0.4243584428 -11.59330187 -0.2773211888)
(-0.1523516398 -12.14918857 0.4086765776)
(0.144178134 -11.88275218 0.06506390008)
(0.3716974657 -12.37193458 0.2990675679)
(0.05969617743 -11.36462012 -0.3712371805)
(0.3961346498 -12.21897321 0.2060339984)
(0.4712955686 -11.90370719 0.6711478487)
(0.1581588871 -11.82131773 -0.2314617876)
(-0.2580274589 -12.06548285 0.2188873721)
(0.5545367612 -11.93739222 -0.650812792)
(0.484714645 -11.75340337 0.2681945172)
(0.3353408911 -12.1008358 0.7009787218)
(0.5798273866 -11.6658204 1.15506787)
(0.731148384 -11.74648606 -0.2108728708)
(-0.1072519374 -11.73609075 0.1801387263)
(0.5129046595 -11.68748138 0.3865865824)
(0.5429476932 -11.99937156 0.4016632448)
(0.2761136354 -11.86702494 0.6223600473)
(0.3565427293 -12.16027393 0.1909578933)
(0.4183565951 -12.34336627 0.4206150995)
(0.7419834304 -12.00223375 0.1419672893)
(0.5750383787 -12.1086666 0.6322153627)
(0.7546376126 -11.48786177 0.6006369393)
(0.9152449516 -11.59189502 0.324836893)
(0.4508700006 -12.07156908 0.7031879462)
(1.182952131 -11.79364814 0.7593680128)
(0.3790790705 -12.18595603 0.06259312437)
(0.4596831218 -11.9423182 0.7389461429)
(0.8488162302 -12.4802553 0.8742110592)
(0.6594636494 -12.08018772 0.004882298509)
(0.6086930776 -11.76533646 0.2699391797)
(0.5884644068 -11.6607761 0.5088916819)
(0.8940903918 -12.11809792 0.6782129332)
(0.7287480279 -11.33298946 0.5820627632)
(0.6082052172 -12.40008223 0.9108162118)
(0.4422852859 -12.09631659 0.2403857949)
(1.152249033 -11.98417571 0.425468481)
(0.7136563098 -12.26292101 0.04013605489)
(1.089847315 -12.4698109 1.167389591)
(0.5566193225 -11.47490807 -0.1843955067)
(0.4743883521 -12.20602113 0.7472191021)
(0.3914799448 -11.94970449 0.4397235879)
(0.9949705854 -11.78386054 0.3720435811)
(0.7938390745 -11.78294193 0.06869038401)
(0.8102102051 -12.35905037 0.1769487815)
(0.1753004886 -12.23795337 -0.2597035379)
(0.3766284358 -12.59265407 0.3965273516)
(0.592864427 -12.30577888 0.7024917052)
(1.145187839 -12.05336101 0.2983460036)
(0.8644719672 -11.66138256 -0.1268410892)
(0.920175057 -12.140755 -0.04270652987)
(0.9929658396 -12.16420467 0.6014562672)
(0.3668843501 -12.1777517 0.961374668)
(0.4772546005 -11.99782523 0.3452989832)
(0.9792449059 -11.94961316 -0.02182969668)
(1.084518594 -12.06106947 0.2126761521)
(0.8235251512 -12.45574753 0.303770804)
(0.8085581221 -11.93672443 0.475935185)
(1.049037561 -12.10631906 0.5370469372)
(0.7133985512 -11.72369531 0.5434178579)
(0.9438631951 -12.3465755 0.2187353764)
(0.6236675869 -12.13764996 -0.01677384748)
(0.6065923384 -12.20286319 -0.2442332124)
(0.6822717573 -12.11678037 0.9835916172)
(0.8397162495 -11.95479294 -0.05451093439)
(-0.04347312807 -12.14176452 -0.07624779292)
(0.6647245706 -11.80431252 -0.6312692982)
(0.351657507 -12.30978404 -0.106199629)
(0.02354934999 -12.57782584 0.6487035195)
(0.870685245 -12.21994193 -0.2694201896)
(0.8147243303 -12.5767943 -0.4879936591)
(0.05290848235 -11.9113042 -0.1143871238)
(0.9539514593 -12.21054495 0.2882263704)
(0.7874066854 -12.28221959 0.1369822244)
(0.6315067089 -12.36727706 0.465469876)
(0.7079272905 -12.54973931 0.361808547)
(0.3846086531 -12.35743345 0.1035627394)
(0.9483474828 -12.51280332 -0.3456858172)
(0.2988872628 -12.1968431 0.1440712322)
(0.9073409363 -11.97889443 -0.2652430429)
(0.5065318323 -12.31536716 -0.5806356105)
(0.6676691551 -12.33945904 -0.5521687716)
(0.4589539067 -12.69705937 -0.1070311502)
(0.5767200058 -12.45141787 0.2970516367)
(0.3996725058 -11.85004378 -1.315110478)
(-0.1192568556 -12.21309248 -0.01650479306)
(-0.05066670671 -12.21033483 -0.6126481794)
(-0.1339078411 -12.51929609 -1.076073145)
(0.002034001998 -12.07246625 -0.5780444569)
(-0.05238953765 -13.26967453 -0.8064538729)
(0.8141384189 -12.51576614 -0.537193089)
(0.2505702771 -12.71592541 -0.7672567511)
(0.8120685947 -12.05694795 -0.4783702139)
(0.2624541572 -12.81372762 -0.4148619917)
(0.2051716748 -12.74201246 -0.2153665477)
(0.9018454645 -12.56984518 -0.6284204324)
(0.3331493774 -12.38791902 -0.9424339994)
(0.9745492451 -12.64577491 -0.2472656809)
(0.8522530621 -13.17932714 -0.1668509633)
(0.8690036397 -12.1574006 0.03278804786)
(0.8553822447 -12.71286709 -0.4155149279)
(0.8252313772 -12.13217656 -1.253707866)
(0.7454918639 -13.06376068 -1.13523992)
(0.4427165938 -12.86597946 -0.6107529147)
(0.7514443531 -12.47627789 -0.1001518717)
(0.3199389836 -12.26861807 -0.04246878815)
(0.6929893559 -12.4360472 -0.6786458969)
(0.3161148611 -12.47454047 -0.6995203698)
(0.4602690849 -12.54688282 -0.1568661643)
(-0.05356751864 -12.96727364 -0.4586069281)
)
;

boundaryField
{
    upperWall
    {
        type            calculated;
        value           uniform (0 0 0);
    }
    lowerWall
    {
        type            calculated;
        value           uniform (0 0 0);
    }
    periodicX_half0
    {
        type            cyclic;
    }
    periodicX_half1
    {
        type            cyclic;
    }
    frontAndBack
    {
        type            empty;
    }
}


// ************************************************************************* //
