/*--------------------------------*- C++ -*----------------------------------*\
| =========                 |                                                 |
| \\      /  F ield         | OpenFOAM: The Open Source CFD Toolbox           |
|  \\    /   O peration     | Version:  v1706                                 |
|   \\  /    A nd           | Web:      www.OpenFOAM.com                      |
|    \\/     M anipulation  |                                                 |
\*---------------------------------------------------------------------------*/
FoamFile
{
    version     2.0;
    format      ascii;
    class       volScalarField;
    location    "5";
    object      Ma_N2;
}
// * * * * * * * * * * * * * * * * * * * * * * * * * * * * * * * * * * * * * //

dimensions      [0 0 0 0 0 0 0];


internalField   nonuniform List<scalar> 
500
(
0.01585638537
0.01594986381
0.01641765088
0.01624268395
0.01637711311
0.0203420621
0.0212200911
0.02067256883
0.02143356709
0.02062001867
0.02454477472
0.02432322337
0.02409915724
0.02375564147
0.02429844474
0.02739884557
0.02789468373
0.02769102703
0.02769149605
0.02761291449
0.03145075173
0.03146570062
0.03146709331
0.03155643821
0.03116751414
0.03518145553
0.03496841042
0.03503523955
0.0348935978
0.03492643356
0.03817219178
0.03765129242
0.0375642576
0.03806134708
0.03717656387
0.04091916703
0.04095920721
0.04124909066
0.04077879532
0.04117592174
0.04434646793
0.04495903492
0.04507454006
0.04453841312
0.04501215459
0.0470648359
0.04735090665
0.04674420734
0.04751704078
0.04739171303
0.05031572605
0.0500231757
0.04963577991
0.05007190724
0.04960052921
0.0524169537
0.05332103945
0.0524165698
0.05248758568
0.05278661288
0.05649136017
0.05662491971
0.05622262716
0.05664670346
0.05616399918
0.05859031496
0.05849505938
0.05895371637
0.05948187248
0.0590265728
0.06191733783
0.0616154151
0.06198130293
0.06169278128
0.06139108901
0.0638837461
0.06378511109
0.06394459574
0.06428443399
0.06408112689
0.06749781554
0.06737260037
0.06713739064
0.06720084125
0.06761468735
0.06990597478
0.06988342742
0.07019791376
0.06984619893
0.06986860475
0.07313036615
0.07241709054
0.07254472767
0.07271026049
0.07293721886
0.07568490533
0.07551364422
0.07573167053
0.07607907025
0.0759533452
0.07847259716
0.07852234119
0.07918228421
0.078303438
0.07838990388
0.08187578769
0.08139605764
0.08088840481
0.08203711946
0.08100673505
0.08430823228
0.08383342548
0.0840033269
0.08390992209
0.08415059537
0.08599304956
0.08662255184
0.0867450538
0.08668867844
0.08648077197
0.08890793908
0.08872591964
0.08870362376
0.08935111025
0.08885252652
0.0916859122
0.09148645688
0.09167570643
0.09219857149
0.09184082631
0.09419873989
0.09486076426
0.09431990294
0.09393323717
0.09471236667
0.09650811183
0.09666022492
0.09636796297
0.09680810637
0.09640971298
0.09976232459
0.09937536789
0.09951775941
0.09934862076
0.09977514819
0.1023315318
0.1021092753
0.1020095756
0.1022939908
0.1020266917
0.1050605519
0.1051296467
0.105061623
0.1052014627
0.1046929481
0.1076072405
0.107282407
0.1075091124
0.1070114882
0.1073360928
0.1099620583
0.1099473278
0.1100792024
0.1102276272
0.1102362066
0.112882394
0.1127941862
0.1130021059
0.1123795648
0.1126746795
0.1144900062
0.1145528638
0.1145711175
0.1155039544
0.1154506555
0.1181981065
0.1171430478
0.117374106
0.1180726611
0.1172600401
0.1196156799
0.1202203091
0.1205542257
0.1198376025
0.1191744055
0.1222461199
0.1221058241
0.1217561216
0.1216933694
0.1221781904
0.1248793522
0.1251259387
0.1241766808
0.1248935694
0.1251190294
0.1266278502
0.1272827052
0.1271118739
0.1272495294
0.1267256436
0.1294686683
0.1293674566
0.1290144685
0.1302194614
0.1295453702
0.1325163154
0.1321603643
0.1326672981
0.132509171
0.1320998127
0.1340370053
0.1344366762
0.1348773211
0.1346744943
0.1346912838
0.136862407
0.1366394597
0.1368601664
0.1363804894
0.1367629344
0.1392290592
0.1388897305
0.1384587134
0.1386218699
0.1388758344
0.1408321543
0.1407029699
0.1407911643
0.1412202978
0.140801439
0.1425933765
0.1422353051
0.1428799787
0.1426113664
0.1430113238
0.144426386
0.1450895658
0.1450343142
0.1450253875
0.1451587321
0.1474764646
0.1474342966
0.14727531
0.146536086
0.147306564
0.1499080858
0.1494226135
0.149365259
0.1496721688
0.1496392998
0.1523337149
0.1529612008
0.1521333995
0.1522836968
0.1522949108
0.1547645772
0.1549776652
0.1544559469
0.1543501367
0.1546622511
0.1567325467
0.1572061596
0.1574178239
0.1574401937
0.1566473078
0.1592220095
0.1587436076
0.1597618899
0.1593374266
0.1598427182
0.1616846211
0.1618797646
0.1608553028
0.161718655
0.1616291837
0.1638766017
0.163804677
0.1639696821
0.1640768174
0.1640325055
0.1655937607
0.1660889523
0.165664675
0.166180717
0.1661375323
0.1684315054
0.1679684843
0.1685705973
0.1674619392
0.1677069102
0.1698712085
0.1702163471
0.169844975
0.1697686002
0.1701986093
0.1721263244
0.1723413991
0.1716323755
0.172568411
0.1725549976
0.1753749471
0.1749711804
0.1747770372
0.1748726843
0.1743028533
0.177529926
0.1775121066
0.1772655732
0.1770333198
0.1772263302
0.1792445258
0.1792287553
0.1795149979
0.1792722564
0.1788874542
0.1813604523
0.1810009494
0.1812833573
0.1811765313
0.1809608918
0.1835708421
0.1834436451
0.1831728399
0.183144693
0.1831756651
0.1849960529
0.1847176747
0.1851404821
0.1854330808
0.1860158217
0.1868799778
0.1878609739
0.1874723653
0.1869377259
0.1870125008
0.188237604
0.1898176683
0.1890356373
0.1895188843
0.1893195848
0.19158082
0.1910516233
0.1923769483
0.1916168828
0.1917567888
0.1936512258
0.193934605
0.193049221
0.1936929114
0.1935926294
0.1963384954
0.1961644204
0.1957721533
0.195802556
0.1961961956
0.1976453265
0.1971086176
0.1981568009
0.1975785154
0.1972387184
0.1999631182
0.2000149293
0.2000518112
0.1992411865
0.1999993202
0.2019972602
0.2026536888
0.2021362759
0.2029727264
0.2024038436
0.2044899723
0.2043032999
0.2045167774
0.2046612731
0.204229289
0.2056743179
0.2061720909
0.2059649773
0.2059666146
0.2058758965
0.2089794934
0.2083788129
0.2079070379
0.2093004239
0.2082682212
0.2101392659
0.2104457021
0.2100934837
0.211005968
0.2101779809
0.2129253511
0.2123676973
0.2128641774
0.2124763612
0.2131171155
0.2142270315
0.2154216265
0.2146745717
0.2143355193
0.2151934715
0.2160743418
0.2163311901
0.21585976
0.2157167784
0.216545666
0.2175564187
0.2180119854
0.2184695831
0.2187081208
0.2189937014
0.2194119632
0.220403536
0.2199156748
0.2194976388
0.2206306432
0.2226710645
0.2221876746
0.2228671962
0.2222872786
0.2220649105
0.2244489611
0.2240137157
0.2240407103
0.2245195257
0.224003028
0.2265185024
0.2261514961
0.2264815487
0.2258042386
0.2259723774
0.2279286868
0.2286547286
0.2279515283
0.2280733325
0.2283670362
0.2308457328
0.2298377904
0.2307593804
0.2301577081
0.2306296139
0.232799017
0.2329866246
0.2328754386
0.2332933737
0.2326380018
0.2338821284
0.2350056969
0.2349786081
0.2345370353
0.2345627172
0.2361479866
0.2370529405
0.2370880665
0.2366940356
0.2371451796
0.2379743899
0.2389223674
0.2384718641
0.2389258943
0.2393757527
0.2403634361
0.2408167198
0.2410804185
0.2402173559
0.2403217378
0.2437436321
0.2429412765
0.2428259713
0.2428747151
0.2432658932
0.2450197003
0.2444402279
0.2449246385
0.2451500705
0.2447876831
0.247353866
0.2460914822
0.2477622617
0.2477448126
0.2473612919
0.2494550167
0.2492020973
0.2491259486
0.2494594151
0.2489531682
0.2507513977
0.2521746039
0.2511219018
0.2509294601
0.2515648459
0.2529760723
0.2541767954
0.2535302406
0.2536716507
0.2532925402
0.256833272
0.2565936796
0.2563133553
0.2557184956
0.2561903489
)
;

boundaryField
{
    upperWall
    {
        type            calculated;
        value           nonuniform List<scalar> 5(0.2570651078 0.2584075727 0.2573250711 0.2598629009 0.2568015761);
    }
    lowerWall
    {
        type            calculated;
        value           nonuniform List<scalar> 5(0.01248458951 0.01316173694 0.0137633314 0.0141325778 0.01308664106);
    }
    periodicX_half0
    {
        type            cyclic;
    }
    periodicX_half1
    {
        type            cyclic;
    }
    frontAndBack
    {
        type            empty;
    }
}


// ************************************************************************* //
