/*--------------------------------*- C++ -*----------------------------------*\
| =========                 |                                                 |
| \\      /  F ield         | OpenFOAM: The Open Source CFD Toolbox           |
|  \\    /   O peration     | Version:  v1706                                 |
|   \\  /    A nd           | Web:      www.OpenFOAM.com                      |
|    \\/     M anipulation  |                                                 |
\*---------------------------------------------------------------------------*/
FoamFile
{
    version     2.0;
    format      ascii;
    class       volScalarField;
    location    "5";
    object      mctTimeStepRatio_Mixture;
}
// * * * * * * * * * * * * * * * * * * * * * * * * * * * * * * * * * * * * * //

dimensions      [0 0 0 0 0 0 0];


internalField   nonuniform List<scalar> 
500
(
4.575835477
4.580198895
4.577702761
4.577052234
4.576124734
4.596923808
4.598462037
4.597881165
4.602108838
4.601171622
4.616890384
4.615094454
4.617384523
4.617940566
4.618248154
4.635774024
4.636580622
4.635152748
4.634015092
4.634185649
4.649354127
4.649728244
4.650277786
4.651243832
4.652167784
4.666559992
4.66494989
4.664074356
4.664712359
4.667418175
4.681701375
4.68101341
4.67827031
4.680762489
4.679461718
4.695573747
4.697784767
4.696491564
4.694845635
4.698014346
4.716017102
4.71192043
4.712785315
4.710377642
4.713388999
4.726868807
4.725350102
4.726941557
4.725296832
4.725632193
4.742861039
4.743699696
4.742489907
4.746298335
4.742531132
4.758345955
4.756248948
4.754640278
4.75722466
4.756856824
4.771018916
4.770768444
4.772016563
4.769752326
4.770528833
4.787116518
4.786017986
4.787768689
4.782843794
4.782351448
4.800719945
4.801650414
4.797195946
4.802795265
4.800164633
4.817251841
4.815667219
4.813439005
4.811608339
4.812189851
4.82727045
4.830608113
4.826810728
4.825192361
4.827510406
4.841594499
4.843274541
4.843529688
4.843316328
4.842393649
4.856854697
4.854675019
4.856002432
4.856914449
4.85839616
4.868359938
4.869333626
4.870897703
4.869252967
4.870034695
4.881786654
4.883673871
4.882696006
4.883962131
4.885091551
4.89900351
4.896986616
4.897569615
4.898115077
4.895571898
4.911750496
4.912375879
4.910505895
4.9108076
4.911818018
4.924638728
4.924934763
4.925558868
4.926300124
4.924701339
4.940681884
4.94063118
4.942237809
4.939647212
4.939060048
4.954298331
4.951887644
4.954441663
4.954526515
4.953573673
4.96463514
4.967187361
4.965485204
4.964838456
4.968135208
4.979227334
4.981656874
4.979833427
4.98071325
4.979932133
4.992441304
4.992960402
4.991558302
4.992031981
4.996923429
5.002765197
5.001704733
5.003773557
5.010003877
5.006219298
5.021891801
5.01991134
5.021133435
5.02079912
5.020044459
5.032633101
5.034318012
5.033141847
5.034051369
5.030823444
5.047538806
5.049165584
5.045447458
5.0501317
5.045607702
5.059592706
5.062711935
5.06113367
5.060443087
5.061820985
5.076699404
5.074298245
5.073484124
5.078677215
5.078177147
5.085445678
5.087312903
5.087431788
5.091026003
5.09180635
5.100572063
5.102227402
5.103175808
5.100406198
5.09895714
5.11462933
5.113347286
5.112109318
5.110853232
5.110954412
5.125741535
5.126011898
5.125099465
5.123794456
5.125347396
5.140464921
5.13926412
5.138490874
5.138564614
5.139348307
5.15194121
5.15100354
5.147579048
5.15237175
5.152097145
5.165262497
5.164987106
5.164303798
5.165527475
5.163456518
5.178211928
5.177259537
5.176769126
5.179144096
5.178200107
5.189927126
5.190700319
5.187124199
5.191284365
5.19205943
5.201643136
5.201748761
5.200895903
5.20486676
5.201444761
5.211298558
5.217186534
5.21578183
5.21222742
5.214695628
5.227735051
5.227606593
5.229829063
5.226564926
5.228751994
5.241975186
5.240155791
5.238807293
5.240571247
5.240184909
5.257999283
5.254105507
5.252810152
5.252564803
5.254690061
5.265195537
5.269067575
5.265720582
5.26406702
5.267808564
5.279163041
5.278354055
5.278305013
5.277789636
5.279188953
5.28740491
5.292229791
5.289786555
5.291400191
5.289613231
5.302188608
5.304568358
5.306726086
5.302218553
5.301204796
5.315547
5.31766524
5.317516935
5.315933644
5.318260283
5.326285367
5.327375608
5.32853199
5.332835428
5.326590319
5.33849228
5.337794947
5.340484102
5.338981905
5.34101993
5.350422154
5.349468456
5.350722223
5.353130599
5.351676666
5.362175883
5.362585725
5.361566853
5.36519153
5.362069359
5.371301967
5.373996196
5.372888089
5.37566333
5.37014334
5.388536154
5.386520273
5.388497281
5.386603328
5.387106711
5.398887921
5.401585638
5.400228619
5.401130554
5.404013327
5.413334931
5.411085801
5.411955297
5.412215603
5.40876511
5.42242116
5.419864719
5.423619571
5.423942678
5.424517781
5.431978806
5.436585418
5.43975439
5.434383492
5.437979336
5.446168099
5.448125544
5.450109344
5.448010741
5.445240207
5.457603672
5.460347851
5.458214848
5.456956519
5.460542298
5.471515593
5.468598248
5.472794094
5.472516287
5.471535508
5.482277306
5.482879091
5.482999959
5.482635135
5.481751125
5.497234583
5.495553516
5.493190718
5.498097945
5.495408032
5.504991636
5.508057097
5.503877632
5.507686327
5.503638923
5.517845813
5.517390827
5.515810169
5.518595682
5.519864468
5.528620766
5.527187624
5.528844131
5.526802697
5.532338781
5.540272762
5.538186589
5.537557799
5.537866125
5.541320911
5.548383198
5.549563523
5.551493012
5.551186183
5.548350549
5.559811775
5.562519382
5.561919904
5.561023767
5.55926058
5.576364536
5.572815318
5.573099604
5.570895213
5.572905845
5.584607042
5.585998848
5.587955204
5.582064243
5.584999063
5.594015148
5.593075441
5.597206394
5.596410861
5.595399699
5.605168381
5.604719788
5.607219434
5.610264183
5.610212189
5.616892538
5.615234031
5.619444032
5.622677694
5.621411363
5.629842321
5.627253601
5.62956708
5.629700177
5.631212745
5.644398317
5.642808354
5.639752352
5.644571525
5.641628023
5.650871073
5.655306119
5.652302153
5.652552609
5.654661824
5.665379455
5.665499019
5.665553573
5.664431941
5.666438851
5.676886852
5.673090642
5.676193744
5.674386536
5.67594103
5.689068994
5.686200629
5.690392278
5.685927729
5.685729729
5.694177617
5.699230995
5.701386083
5.697502231
5.694095103
5.706303945
5.707751795
5.711703218
5.710744654
5.706527747
5.718437103
5.720870357
5.719264875
5.721951756
5.720620233
5.728759247
5.729887849
5.73580113
5.734584254
5.731283257
5.744814426
5.742474081
5.742764694
5.74203242
5.74168744
5.754283582
5.755697958
5.752149383
5.75114749
5.757166445
5.761849424
5.767669204
5.764765111
5.765348654
5.760909726
5.775980664
5.774769893
5.779937554
5.777422741
5.77793216
5.787494104
5.785592269
5.790006939
5.79159072
5.791272886
5.798546509
5.798608018
5.800600589
5.804566148
5.799878655
5.816439636
5.81427838
5.809592026
5.812801983
5.813023191
5.824473347
5.826757681
5.822567142
5.82389495
5.827386451
5.837474675
5.840514832
5.840420591
5.83812252
5.835557869
5.857658096
5.858307109
5.853197108
5.853554704
5.852194389
)
;

boundaryField
{
    upperWall
    {
        type            calculated;
        value           nonuniform List<scalar> 5(5.857658096 5.858307109 5.853197108 5.853554704 5.852194389);
    }
    lowerWall
    {
        type            calculated;
        value           nonuniform List<scalar> 5(4.575835477 4.580198895 4.577702761 4.577052234 4.576124734);
    }
    periodicX_half0
    {
        type            cyclic;
    }
    periodicX_half1
    {
        type            cyclic;
    }
    frontAndBack
    {
        type            empty;
    }
}


// ************************************************************************* //
