/*--------------------------------*- C++ -*----------------------------------*\
| =========                 |                                                 |
| \\      /  F ield         | OpenFOAM: The Open Source CFD Toolbox           |
|  \\    /   O peration     | Version:  v1706                                 |
|   \\  /    A nd           | Web:      www.OpenFOAM.com                      |
|    \\/     M anipulation  |                                                 |
\*---------------------------------------------------------------------------*/
FoamFile
{
    version     2.0;
    format      ascii;
    class       volScalarField;
    location    "5";
    object      mctTimeStepRatio_O2;
}
// * * * * * * * * * * * * * * * * * * * * * * * * * * * * * * * * * * * * * //

dimensions      [0 0 0 0 0 0 0];


internalField   nonuniform List<scalar> 
500
(
13.7205532
13.73679031
13.71975017
13.72638698
13.72520129
13.78802527
13.78334728
13.7917598
13.80555476
13.79797414
13.84578944
13.83921894
13.84691428
13.84125505
13.84971609
13.90026471
13.89967895
13.90385075
13.88669184
13.90016118
13.94904487
13.93980299
13.94621274
13.9445935
13.95893409
14.00348782
13.9963699
13.99698465
14.00060987
14.00992617
14.04147446
14.04852935
14.02877171
14.04580263
14.03555161
14.08122999
14.09452685
14.07814108
14.09010915
14.10203566
14.15934606
14.13313509
14.12094697
14.13791714
14.14035866
14.18464572
14.17632103
14.18301475
14.17746242
14.1807919
14.2267259
14.2260221
14.22253941
14.24555296
14.22367128
14.27729326
14.26189845
14.25964838
14.26554065
14.25863897
14.30696962
14.30163405
14.29914433
14.29772635
14.31253479
14.36738891
14.35642824
14.37030956
14.35640537
14.34733286
14.39481765
14.40357906
14.37288457
14.40727395
14.39968231
14.44083602
14.44106334
14.43034158
14.43049904
14.43110835
14.47469857
14.49410377
14.48121187
14.47913245
14.47661866
14.51981726
14.52831494
14.52987164
14.5418142
14.5289227
14.57155654
14.56171141
14.56908323
14.55943411
14.56934456
14.59708825
14.60471088
14.61104629
14.60395665
14.59534126
14.64563904
14.65298681
14.64970107
14.65359922
14.6437592
14.68839045
14.67409229
14.69559278
14.69625972
14.67276287
14.72915261
14.73651299
14.7234956
14.73123574
14.72658905
14.76586263
14.76389966
14.77336386
14.77346471
14.76940331
14.8195027
14.81962426
14.82024605
14.80255337
14.81187673
14.85639138
14.86345579
14.85863246
14.86085144
14.84430408
14.88898687
14.89936729
14.88477212
14.88963077
14.90373721
14.93311915
14.94459532
14.92540229
14.93898253
14.94326873
14.96960164
14.98420607
14.97444587
14.96577321
14.98651646
15.00671961
15.00389746
15.01288453
15.03278751
15.01194069
15.0693026
15.06476245
15.06258464
15.05533497
15.06006855
15.10540321
15.09981439
15.09067671
15.09266482
15.08408833
15.13904481
15.14640311
15.1319014
15.14309352
15.14500052
15.17248673
15.18242623
15.18105243
15.17973581
15.18067392
15.21998224
15.21850606
15.21485876
15.2285081
15.22712856
15.25824211
15.26252555
15.26238171
15.27035913
15.27295387
15.29862354
15.30380711
15.30494866
15.30344695
15.2970678
15.34242155
15.33909426
15.34405149
15.32755411
15.3244734
15.38142089
15.37381398
15.37241582
15.37013684
15.38040004
15.42010052
15.41223548
15.40809074
15.41228278
15.41680125
15.46318269
15.45212951
15.44891051
15.45403506
15.44839258
15.49628426
15.47781918
15.48997941
15.49235151
15.4884576
15.51794493
15.52155363
15.527536
15.53956441
15.51773317
15.57515178
15.56581213
15.56133037
15.56251117
15.57212336
15.60343458
15.60869127
15.60589912
15.62223642
15.59892735
15.64007177
15.64555646
15.6325937
15.6473461
15.63454127
15.67500088
15.69325261
15.68451377
15.6750835
15.67425437
15.72227911
15.7285018
15.70891134
15.73114897
15.7170163
15.78087765
15.75980986
15.76283273
15.76762162
15.76153685
15.78879378
15.8054816
15.79364187
15.79891995
15.79556212
15.82705255
15.83154045
15.82666183
15.83431565
15.83124547
15.85090256
15.86381156
15.86533757
15.86896843
15.86944778
15.8930564
15.91229238
15.9138837
15.90299647
15.90562503
15.94602452
15.94717608
15.95530149
15.94575675
15.96368081
15.97517392
15.97142092
15.98504298
15.99382434
15.96890197
16.00313331
16.00805348
16.01179743
15.99542497
16.00795202
16.04144065
16.03002335
16.03404117
16.0470568
16.03629306
16.07447594
16.07726459
16.08013404
16.09138095
16.07030905
16.10065035
16.12141381
16.11060836
16.11494009
16.09764536
16.16372135
16.1549079
16.15298055
16.14982249
16.14600147
16.17696631
16.18023783
16.18759615
16.2043616
16.20692702
16.2288714
16.2189089
16.23110218
16.22243351
16.219506
16.25556176
16.24252781
16.26118984
16.26184746
16.25956153
16.28584252
16.29355488
16.30236714
16.28130127
16.29134954
16.33251653
16.33491043
16.34524489
16.32507072
16.32889426
16.36551109
16.37105047
16.36976054
16.35320835
16.37763826
16.40593928
16.39321806
16.41031131
16.39925222
16.41284565
16.43743171
16.43402403
16.43947311
16.42285495
16.43806934
16.46405073
16.46324192
16.47751374
16.47365912
16.47124569
16.4956568
16.51173492
16.49348768
16.51381847
16.50278216
16.53637985
16.54500384
16.53546479
16.54406636
16.5439014
16.57815548
16.57001993
16.58010091
16.56968794
16.5715824
16.60704098
16.59863075
16.59052383
16.59413642
16.60066481
16.64223299
16.63723783
16.63985391
16.63287955
16.62760821
16.66566261
16.66490984
16.67565203
16.66334782
16.66058718
16.7120577
16.69359754
16.70592532
16.69902323
16.70196846
16.74787679
16.74699043
16.75109916
16.74450478
16.74286346
16.77620589
16.76622883
16.78227764
16.78568742
16.77665981
16.80952894
16.80136894
16.80321028
16.82442945
16.83140876
16.83678263
16.82736707
16.85697553
16.86371778
16.86709777
16.88446216
16.86871485
16.87154477
16.88353191
16.87362283
16.92464477
16.9147031
16.91041343
16.9133197
16.91271622
16.94321075
16.96054122
16.95273231
16.9571797
16.94476418
16.99865913
16.98225918
16.97900357
16.99113799
16.98117225
17.0220127
17.00866005
17.01892384
17.01599982
17.02149604
17.0553065
17.04655457
17.05499809
17.03278895
17.04536987
17.07273472
17.08911445
17.09329011
17.08430306
17.07068969
17.10990107
17.11138576
17.12941446
17.13095871
17.11007357
17.13804213
17.14365412
17.14897666
17.1490499
17.14583557
17.17488385
17.16367007
17.19338488
17.17589842
17.18042185
17.22327106
17.20760944
17.20915379
17.20858158
17.19772189
17.2536989
17.24862367
17.23090317
17.23607103
17.2597839
17.26791268
17.28238792
17.26724943
17.26228118
17.25909833
17.30981026
17.29591396
17.31985589
17.30550684
17.30778405
17.33631235
17.32595314
17.34590345
17.35517895
17.34390279
17.37046104
17.37226432
17.37540204
17.38401251
17.36804043
17.42342363
17.42827148
17.39915947
17.42145732
17.42834197
17.45858036
17.447983
17.45318232
17.44382911
17.47114668
17.4964628
17.48473617
17.49655926
17.49870207
17.49837718
17.55025193
17.54451585
17.55239816
17.537972
17.53384958
)
;

boundaryField
{
    upperWall
    {
        type            calculated;
        value           nonuniform List<scalar> 5(17.55025193 17.54451585 17.55239816 17.537972 17.53384958);
    }
    lowerWall
    {
        type            calculated;
        value           nonuniform List<scalar> 5(13.7205532 13.73679031 13.71975017 13.72638698 13.72520129);
    }
    periodicX_half0
    {
        type            cyclic;
    }
    periodicX_half1
    {
        type            cyclic;
    }
    frontAndBack
    {
        type            empty;
    }
}


// ************************************************************************* //
