/*--------------------------------*- C++ -*----------------------------------*\
| =========                 |                                                 |
| \\      /  F ield         | OpenFOAM: The Open Source CFD Toolbox           |
|  \\    /   O peration     | Version:  v1706                                 |
|   \\  /    A nd           | Web:      www.OpenFOAM.com                      |
|    \\/     M anipulation  |                                                 |
\*---------------------------------------------------------------------------*/
FoamFile
{
    version     2.0;
    format      ascii;
    class       volScalarField;
    location    "5";
    object      meanCollisionTime_O2;
}
// * * * * * * * * * * * * * * * * * * * * * * * * * * * * * * * * * * * * * //

dimensions      [0 0 1 0 0 0 0];


internalField   nonuniform List<scalar> 
500
(
0.000137205532
0.0001373679031
0.0001371975017
0.0001372638698
0.0001372520129
0.0001378802527
0.0001378334728
0.000137917598
0.0001380555476
0.0001379797414
0.0001384578944
0.0001383921894
0.0001384691428
0.0001384125505
0.0001384971609
0.0001390026471
0.0001389967895
0.0001390385075
0.0001388669184
0.0001390016118
0.0001394904487
0.0001393980299
0.0001394621274
0.000139445935
0.0001395893409
0.0001400348782
0.000139963699
0.0001399698465
0.0001400060987
0.0001400992617
0.0001404147446
0.0001404852935
0.0001402877171
0.0001404580263
0.0001403555161
0.0001408122999
0.0001409452685
0.0001407814108
0.0001409010915
0.0001410203566
0.0001415934606
0.0001413313509
0.0001412094697
0.0001413791714
0.0001414035866
0.0001418464572
0.0001417632103
0.0001418301475
0.0001417746242
0.000141807919
0.000142267259
0.000142260221
0.0001422253941
0.0001424555296
0.0001422367128
0.0001427729326
0.0001426189845
0.0001425964838
0.0001426554065
0.0001425863897
0.0001430696962
0.0001430163405
0.0001429914433
0.0001429772635
0.0001431253479
0.0001436738891
0.0001435642824
0.0001437030956
0.0001435640537
0.0001434733286
0.0001439481765
0.0001440357906
0.0001437288457
0.0001440727395
0.0001439968231
0.0001444083602
0.0001444106334
0.0001443034158
0.0001443049904
0.0001443110835
0.0001447469857
0.0001449410377
0.0001448121187
0.0001447913245
0.0001447661866
0.0001451981726
0.0001452831494
0.0001452987164
0.000145418142
0.000145289227
0.0001457155654
0.0001456171141
0.0001456908323
0.0001455943411
0.0001456934456
0.0001459708825
0.0001460471088
0.0001461104629
0.0001460395665
0.0001459534126
0.0001464563904
0.0001465298681
0.0001464970107
0.0001465359922
0.000146437592
0.0001468839045
0.0001467409229
0.0001469559278
0.0001469625972
0.0001467276287
0.0001472915261
0.0001473651299
0.000147234956
0.0001473123574
0.0001472658905
0.0001476586263
0.0001476389966
0.0001477336386
0.0001477346471
0.0001476940331
0.000148195027
0.0001481962426
0.0001482024605
0.0001480255337
0.0001481187673
0.0001485639138
0.0001486345579
0.0001485863246
0.0001486085144
0.0001484430408
0.0001488898687
0.0001489936729
0.0001488477212
0.0001488963077
0.0001490373721
0.0001493311915
0.0001494459532
0.0001492540229
0.0001493898253
0.0001494326873
0.0001496960164
0.0001498420607
0.0001497444587
0.0001496577321
0.0001498651646
0.0001500671961
0.0001500389746
0.0001501288453
0.0001503278751
0.0001501194069
0.000150693026
0.0001506476245
0.0001506258464
0.0001505533497
0.0001506006855
0.0001510540321
0.0001509981439
0.0001509067671
0.0001509266482
0.0001508408833
0.0001513904481
0.0001514640311
0.000151319014
0.0001514309352
0.0001514500052
0.0001517248673
0.0001518242623
0.0001518105243
0.0001517973581
0.0001518067392
0.0001521998224
0.0001521850606
0.0001521485876
0.000152285081
0.0001522712856
0.0001525824211
0.0001526252555
0.0001526238171
0.0001527035913
0.0001527295387
0.0001529862354
0.0001530380711
0.0001530494866
0.0001530344695
0.000152970678
0.0001534242155
0.0001533909426
0.0001534405149
0.0001532755411
0.000153244734
0.0001538142089
0.0001537381398
0.0001537241582
0.0001537013684
0.0001538040004
0.0001542010052
0.0001541223548
0.0001540809074
0.0001541228278
0.0001541680125
0.0001546318269
0.0001545212951
0.0001544891051
0.0001545403506
0.0001544839258
0.0001549628426
0.0001547781918
0.0001548997941
0.0001549235151
0.000154884576
0.0001551794493
0.0001552155363
0.00015527536
0.0001553956441
0.0001551773317
0.0001557515178
0.0001556581213
0.0001556133037
0.0001556251117
0.0001557212336
0.0001560343458
0.0001560869127
0.0001560589912
0.0001562223642
0.0001559892735
0.0001564007177
0.0001564555646
0.000156325937
0.000156473461
0.0001563454127
0.0001567500088
0.0001569325261
0.0001568451377
0.000156750835
0.0001567425437
0.0001572227911
0.000157285018
0.0001570891134
0.0001573114897
0.000157170163
0.0001578087765
0.0001575980986
0.0001576283273
0.0001576762162
0.0001576153685
0.0001578879378
0.000158054816
0.0001579364187
0.0001579891995
0.0001579556212
0.0001582705255
0.0001583154045
0.0001582666183
0.0001583431565
0.0001583124547
0.0001585090256
0.0001586381156
0.0001586533757
0.0001586896843
0.0001586944778
0.000158930564
0.0001591229238
0.000159138837
0.0001590299647
0.0001590562503
0.0001594602452
0.0001594717608
0.0001595530149
0.0001594575675
0.0001596368081
0.0001597517392
0.0001597142092
0.0001598504298
0.0001599382434
0.0001596890197
0.0001600313331
0.0001600805348
0.0001601179743
0.0001599542497
0.0001600795202
0.0001604144065
0.0001603002335
0.0001603404117
0.000160470568
0.0001603629306
0.0001607447594
0.0001607726459
0.0001608013404
0.0001609138095
0.0001607030905
0.0001610065035
0.0001612141381
0.0001611060836
0.0001611494009
0.0001609764536
0.0001616372135
0.000161549079
0.0001615298055
0.0001614982249
0.0001614600147
0.0001617696631
0.0001618023783
0.0001618759615
0.000162043616
0.0001620692702
0.000162288714
0.000162189089
0.0001623110218
0.0001622243351
0.00016219506
0.0001625556176
0.0001624252781
0.0001626118984
0.0001626184746
0.0001625956153
0.0001628584252
0.0001629355488
0.0001630236714
0.0001628130127
0.0001629134954
0.0001633251653
0.0001633491043
0.0001634524489
0.0001632507072
0.0001632889426
0.0001636551109
0.0001637105047
0.0001636976054
0.0001635320835
0.0001637763826
0.0001640593928
0.0001639321806
0.0001641031131
0.0001639925222
0.0001641284565
0.0001643743171
0.0001643402403
0.0001643947311
0.0001642285495
0.0001643806934
0.0001646405073
0.0001646324192
0.0001647751374
0.0001647365912
0.0001647124569
0.000164956568
0.0001651173492
0.0001649348768
0.0001651381847
0.0001650278216
0.0001653637985
0.0001654500384
0.0001653546479
0.0001654406636
0.000165439014
0.0001657815548
0.0001657001993
0.0001658010091
0.0001656968794
0.000165715824
0.0001660704098
0.0001659863075
0.0001659052383
0.0001659413642
0.0001660066481
0.0001664223299
0.0001663723783
0.0001663985391
0.0001663287955
0.0001662760821
0.0001666566261
0.0001666490984
0.0001667565203
0.0001666334782
0.0001666058718
0.000167120577
0.0001669359754
0.0001670592532
0.0001669902323
0.0001670196846
0.0001674787679
0.0001674699043
0.0001675109916
0.0001674450478
0.0001674286346
0.0001677620589
0.0001676622883
0.0001678227764
0.0001678568742
0.0001677665981
0.0001680952894
0.0001680136894
0.0001680321028
0.0001682442945
0.0001683140876
0.0001683678263
0.0001682736707
0.0001685697553
0.0001686371778
0.0001686709777
0.0001688446216
0.0001686871485
0.0001687154477
0.0001688353191
0.0001687362283
0.0001692464477
0.000169147031
0.0001691041343
0.000169133197
0.0001691271622
0.0001694321075
0.0001696054122
0.0001695273231
0.000169571797
0.0001694476418
0.0001699865913
0.0001698225918
0.0001697900357
0.0001699113799
0.0001698117225
0.000170220127
0.0001700866005
0.0001701892384
0.0001701599982
0.0001702149604
0.000170553065
0.0001704655457
0.0001705499809
0.0001703278895
0.0001704536987
0.0001707273472
0.0001708911445
0.0001709329011
0.0001708430306
0.0001707068969
0.0001710990107
0.0001711138576
0.0001712941446
0.0001713095871
0.0001711007357
0.0001713804213
0.0001714365412
0.0001714897666
0.000171490499
0.0001714583557
0.0001717488385
0.0001716367007
0.0001719338488
0.0001717589842
0.0001718042185
0.0001722327106
0.0001720760944
0.0001720915379
0.0001720858158
0.0001719772189
0.000172536989
0.0001724862367
0.0001723090317
0.0001723607103
0.000172597839
0.0001726791268
0.0001728238792
0.0001726724943
0.0001726228118
0.0001725909833
0.0001730981026
0.0001729591396
0.0001731985589
0.0001730550684
0.0001730778405
0.0001733631235
0.0001732595314
0.0001734590345
0.0001735517895
0.0001734390279
0.0001737046104
0.0001737226432
0.0001737540204
0.0001738401251
0.0001736804043
0.0001742342363
0.0001742827148
0.0001739915947
0.0001742145732
0.0001742834197
0.0001745858036
0.00017447983
0.0001745318232
0.0001744382911
0.0001747114668
0.000174964628
0.0001748473617
0.0001749655926
0.0001749870207
0.0001749837718
0.0001755025193
0.0001754451585
0.0001755239816
0.00017537972
0.0001753384958
)
;

boundaryField
{
    upperWall
    {
        type            calculated;
        value           nonuniform List<scalar> 5(0.0001755025193 0.0001754451585 0.0001755239816 0.00017537972 0.0001753384958);
    }
    lowerWall
    {
        type            calculated;
        value           nonuniform List<scalar> 5(0.000137205532 0.0001373679031 0.0001371975017 0.0001372638698 0.0001372520129);
    }
    periodicX_half0
    {
        type            cyclic;
    }
    periodicX_half1
    {
        type            cyclic;
    }
    frontAndBack
    {
        type            empty;
    }
}


// ************************************************************************* //
