/*--------------------------------*- C++ -*----------------------------------*\
| =========                 |                                                 |
| \\      /  F ield         | OpenFOAM: The Open Source CFD Toolbox           |
|  \\    /   O peration     | Version:  v1706                                 |
|   \\  /    A nd           | Web:      www.OpenFOAM.com                      |
|    \\/     M anipulation  |                                                 |
\*---------------------------------------------------------------------------*/
FoamFile
{
    version     2.0;
    format      ascii;
    class       volScalarField;
    location    "5";
    object      meanCollisionRate_Mixture;
}
// * * * * * * * * * * * * * * * * * * * * * * * * * * * * * * * * * * * * * //

dimensions      [0 0 -1 0 0 0 0];


internalField   nonuniform List<scalar> 
500
(
21853.93258
21833.11299
21845.01817
21848.12296
21852.55119
21753.67793
21746.40112
21749.14845
21729.16885
21733.59488
21659.60022
21668.0289
21657.28228
21654.67454
21653.23228
21571.37071
21567.61807
21574.26204
21579.55855
21578.76433
21508.3638
21506.63324
21504.09171
21499.62539
21495.35542
21429.06127
21436.45749
21440.48151
21437.54905
21425.12118
21359.75621
21362.89543
21375.42155
21364.04063
21369.97929
21296.652
21286.62869
21292.49007
21299.95484
21285.58847
21204.33362
21222.76925
21218.87447
21229.72033
21216.15679
21155.65379
21162.45312
21155.32819
21162.69169
21161.18985
21084.32003
21080.59245
21085.97002
21069.05064
21085.78673
21015.70608
21024.9718
21032.08532
21020.65955
21022.28503
20959.88336
20960.98379
20955.50145
20965.44918
20962.0366
20889.40172
20894.19645
20886.55624
20908.06313
20910.21563
20830.20904
20826.17254
20845.51082
20821.20817
20832.61881
20758.72371
20765.55448
20775.16717
20783.07147
20780.56001
20715.64066
20701.32738
20717.61369
20724.56236
20714.61097
20654.35262
20647.188
20646.10035
20647.00987
20650.94399
20589.45681
20598.70117
20593.07041
20589.20351
20582.92422
20540.7984
20536.69099
20530.09653
20537.03118
20533.73462
20484.30362
20476.38779
20480.48862
20475.17923
20470.44543
20412.31442
20420.72153
20418.29068
20416.01686
20426.62269
20359.34034
20356.74844
20364.50055
20363.24942
20359.06046
20306.05807
20304.83749
20302.26471
20299.20985
20305.79991
20240.12117
20240.32889
20233.74914
20244.36072
20246.76741
20184.49301
20194.31925
20183.90907
20183.56339
20187.44579
20142.4671
20132.11758
20139.01882
20141.64225
20128.27667
20083.43731
20073.64267
20080.99296
20077.44574
20080.59494
20030.28056
20028.19809
20033.8239
20031.92295
20012.31386
19988.94533
19993.18339
19984.91715
19960.0644
19975.15371
19912.81452
19920.67055
19915.82205
19917.14817
19920.1423
19870.31401
19863.66371
19868.30553
19864.71584
19877.46164
19811.6357
19805.25264
19819.84766
19801.46379
19819.2182
19764.43675
19752.25952
19758.41907
19761.11543
19755.73618
19697.83752
19707.15854
19710.32087
19690.16651
19692.10548
19663.95992
19656.74255
19656.2832
19642.40606
19639.39575
19605.64399
19599.28324
19595.64079
19606.28156
19611.85341
19551.75899
19556.66111
19561.39702
19566.2046
19565.81725
19509.37231
19508.34333
19511.81644
19516.78602
19510.87258
19453.49332
19458.03867
19460.96674
19460.68747
19457.71993
19410.15938
19413.69274
19426.60794
19408.53744
19409.57191
19360.1003
19361.13255
19363.6943
19359.10717
19366.87172
19311.68546
19315.23797
19317.06776
19308.20965
19311.72955
19268.09328
19265.22316
19278.50504
19263.05572
19260.18015
19224.69447
19224.30409
19227.45655
19212.78769
19225.42767
19189.07522
19167.41894
19172.58107
19185.65556
19176.57465
19128.74295
19129.213
19121.08384
19133.0255
19125.02259
19076.77859
19083.4021
19088.31427
19081.88922
19083.29605
19018.64086
19032.73542
19037.42894
19038.31818
19030.61814
18992.64696
18978.68998
18990.7532
18996.71862
18983.22591
18942.39659
18945.29979
18945.47582
18947.32585
18942.30362
18912.86968
18895.62697
18904.35445
18898.58948
18904.97389
18860.13633
18851.67525
18844.01011
18860.02982
18863.63645
18812.73931
18805.24544
18805.76991
18811.371
18803.14138
18774.8108
18770.96855
18766.89493
18751.75061
18773.73592
18731.8806
18734.32775
18724.89424
18730.16275
18723.0157
18690.114
18693.44606
18689.06585
18680.65764
18685.73276
18649.14583
18647.72055
18651.26422
18638.66358
18649.51632
18617.46009
18608.12631
18611.96406
18602.35544
18621.47687
18557.91576
18564.86098
18558.04964
18564.57473
18562.84001
18522.33302
18513.0824
18517.73454
18514.64226
18504.76562
18472.90095
18480.57926
18477.61012
18476.72143
18488.50855
18441.94633
18450.64502
18437.87137
18436.77301
18434.81836
18409.49745
18393.89843
18383.18292
18401.35135
18389.18352
18361.53387
18354.93679
18348.25573
18355.32358
18364.66275
18323.06008
18313.85156
18321.00839
18325.23306
18313.19941
18276.47172
18286.22171
18272.20215
18273.12972
18276.4052
18240.595
18238.59296
18238.19091
18239.40451
18242.34587
18190.96466
18196.5292
18204.35611
18188.10814
18197.01093
18165.33187
18155.22211
18169.00859
18156.4443
18169.79664
18123.01456
18124.50905
18129.70297
18120.552
18116.38684
18087.69388
18092.38383
18086.96314
18093.64392
18075.53802
18049.65284
18056.45194
18058.50225
18057.49683
18046.23872
18023.26848
18019.43515
18013.17227
18014.16791
18023.37454
17986.2204
17977.46545
17979.40311
17982.30042
17988.00372
17932.83049
17944.25157
17943.33622
17950.43636
17943.96008
17906.36284
17901.90129
17895.63379
17914.51973
17905.10596
17876.24763
17879.25106
17866.05549
17868.59516
17871.82424
17840.67725
17842.10519
17834.15134
17824.47256
17824.63775
17803.43835
17808.69674
17795.35474
17785.12044
17789.12688
17762.48682
17770.65814
17763.35526
17762.9353
17758.1641
17716.68022
17721.67221
17731.27502
17716.13657
17725.37991
17696.38675
17682.50876
17691.90629
17691.12239
17684.52352
17651.06835
17650.69585
17650.52589
17654.02092
17647.76831
17615.28856
17627.07602
17617.43952
17623.05042
17618.22392
17577.56851
17586.43539
17573.4809
17587.27947
17587.89193
17561.79851
17546.22687
17539.5945
17551.55083
17562.053
17524.47836
17520.03304
17507.91247
17510.85122
17523.79107
17487.2956
17479.85774
17484.7646
17476.5542
17480.62202
17455.78679
17452.34857
17434.3562
17438.05576
17448.09941
17407.00266
17414.09688
17413.21564
17415.43633
17416.48271
17378.35798
17374.08751
17384.80581
17387.83437
17369.65588
17355.53858
17338.02624
17346.76055
17345.00479
17358.36956
17313.07735
17316.70731
17301.22498
17308.75591
17307.22986
17278.63531
17284.31513
17271.13647
17266.41347
17267.36107
17245.70112
17245.51818
17239.59415
17227.81642
17241.74003
17192.64812
17199.03889
17212.91264
17203.40729
17202.75263
17168.93426
17162.20332
17174.55506
17170.63939
17160.35153
17130.6953
17121.77828
17122.05456
17128.79435
17136.32222
17071.66898
17069.77769
17084.68007
17083.63636
17087.60737
)
;

boundaryField
{
    upperWall
    {
        type            calculated;
        value           nonuniform List<scalar> 5(17071.66898 17069.77769 17084.68007 17083.63636 17087.60737);
    }
    lowerWall
    {
        type            calculated;
        value           nonuniform List<scalar> 5(21853.93258 21833.11299 21845.01817 21848.12296 21852.55119);
    }
    periodicX_half0
    {
        type            cyclic;
    }
    periodicX_half1
    {
        type            cyclic;
    }
    frontAndBack
    {
        type            empty;
    }
}


// ************************************************************************* //
