/*--------------------------------*- C++ -*----------------------------------*\
| =========                 |                                                 |
| \\      /  F ield         | OpenFOAM: The Open Source CFD Toolbox           |
|  \\    /   O peration     | Version:  v1706                                 |
|   \\  /    A nd           | Web:      www.OpenFOAM.com                      |
|    \\/     M anipulation  |                                                 |
\*---------------------------------------------------------------------------*/
FoamFile
{
    version     2.0;
    format      ascii;
    class       volScalarField;
    location    "5";
    object      meanCollisionRate_N2;
}
// * * * * * * * * * * * * * * * * * * * * * * * * * * * * * * * * * * * * * //

dimensions      [0 0 -1 0 0 0 0];


internalField   nonuniform List<scalar> 
500
(
7280.952417
7275.687753
7274.587673
7280.177036
7282.499263
7249.780364
7242.471512
7248.725752
7242.651113
7241.623066
7217.321681
7219.512166
7216.362967
7211.675091
7215.124181
7186.806831
7184.003395
7190.588533
7185.23833
7191.681617
7169.959192
7164.054353
7165.656275
7161.846911
7166.365795
7144.962904
7146.261515
7149.258781
7149.153758
7145.618837
7118.077767
7123.746034
7122.073206
7123.129021
7121.887728
7096.115374
7096.132352
7091.784801
7102.79353
7099.219306
7073.752018
7072.940912
7064.243374
7079.970381
7072.147839
7053.892551
7054.285499
7052.864959
7055.012511
7055.667906
7027.18876
7024.356925
7026.22019
7026.300345
7026.656499
7006.341509
7004.959387
7008.594368
7003.874299
7001.566404
6983.655227
6981.782711
6976.913303
6982.84953
6987.808473
6966.061283
6963.942509
6965.578874
6973.178446
6970.206305
6939.862735
6941.39567
6939.468188
6939.866781
6943.814403
6914.343043
6919.003149
6920.270869
6925.6133
6924.232179
6901.820156
6901.527541
6906.242681
6909.883856
6902.050742
6882.429522
6881.680737
6881.69299
6887.955569
6884.472352
6863.618686
6865.142239
6864.863691
6857.73954
6858.223469
6843.185617
6844.021712
6842.594018
6843.894339
6837.658487
6828.230864
6826.377455
6827.580564
6825.857318
6818.119027
6800.112283
6799.088319
6807.432446
6806.224749
6802.40083
6783.637305
6785.299073
6784.46898
6787.202766
6782.269582
6764.995085
6763.282563
6765.903541
6763.913392
6766.445114
6745.549199
6745.742916
6741.64066
6740.653273
6746.505437
6725.217902
6734.97016
6725.844047
6726.619226
6721.711043
6711.938051
6709.717076
6707.739353
6711.67818
6709.124611
6692.43341
6691.045421
6687.345554
6691.067259
6695.086888
6673.316949
6678.43856
6677.838934
6672.703875
6668.877957
6662.281442
6663.853864
6662.332813
6654.583253
6655.406117
6639.202296
6642.440274
6638.246941
6635.934976
6640.01852
6626.728338
6619.843654
6618.930497
6617.41005
6622.139761
6602.320613
6601.274189
6604.676786
6597.305845
6609.974024
6585.414019
6581.610963
6585.120419
6586.346487
6583.167732
6561.583788
6567.158759
6567.69211
6560.146405
6560.842958
6555.471125
6552.498252
6552.131461
6546.302697
6545.408468
6533.893532
6531.866491
6529.92595
6536.378895
6537.367703
6516.62955
6518.484238
6523.747765
6519.938514
6518.369397
6504.898298
6500.995792
6502.719386
6505.067685
6505.466916
6483.953316
6483.67411
6483.881821
6485.460026
6485.382747
6473.132902
6470.861798
6478.124282
6468.222284
6466.550346
6453.572681
6446.56795
6453.341896
6451.273372
6454.826755
6430.309753
6434.172288
6437.873103
6436.952468
6430.250371
6424.912591
6419.146265
6426.150706
6416.340086
6418.38821
6407.617033
6409.515641
6410.470981
6407.393857
6406.254439
6398.884357
6386.687828
6384.833702
6399.579073
6388.290299
6372.911441
6380.642557
6371.673336
6375.797849
6370.128389
6357.450507
6364.384314
6359.729776
6364.44604
6359.666613
6342.311338
6343.235642
6347.58184
6350.103201
6342.519131
6328.159185
6325.541071
6328.838175
6334.932507
6324.592742
6309.969437
6313.695061
6311.864803
6316.15199
6311.579483
6299.792293
6293.432015
6299.853629
6297.451209
6301.898712
6281.371072
6283.333521
6278.852755
6285.22983
6288.673268
6270.669335
6266.126705
6269.67058
6269.65318
6271.209615
6256.827716
6252.796911
6255.414512
6248.754135
6253.653073
6239.146148
6242.694992
6237.869368
6234.995078
6235.119453
6226.22383
6224.00921
6222.650357
6222.101132
6221.304507
6211.722535
6211.851368
6215.322576
6211.268403
6210.358379
6200.712539
6202.487202
6200.885883
6196.149011
6202.231622
6185.24947
6186.503999
6181.227054
6184.365434
6181.744921
6166.597891
6161.684436
6167.588318
6171.916547
6166.307511
6153.411039
6154.745427
6157.395419
6153.514344
6160.256512
6142.891448
6143.756849
6142.303582
6141.82047
6139.652362
6132.697074
6125.206845
6121.381468
6125.559006
6121.236586
6118.266632
6114.767562
6114.183176
6111.337784
6118.994779
6104.962771
6100.892294
6105.180078
6101.81802
6102.912684
6088.961523
6090.732766
6087.738404
6084.249821
6091.481121
6076.722182
6074.125872
6075.874275
6070.535727
6078.12519
6053.481953
6056.889501
6067.359896
6055.115132
6060.157796
6048.023846
6047.184535
6049.677261
6048.763114
6053.613554
6034.74058
6038.884871
6038.862498
6035.906164
6033.071073
6026.428973
6026.594961
6026.648632
6027.313471
6015.940208
6011.561959
6013.044661
6011.470019
6012.111523
6006.977445
6006.702073
6002.345286
5999.116917
5997.2627
6001.492717
5990.454974
5984.352346
5989.503029
5987.011538
5989.816738
5971.519779
5972.52335
5976.326856
5978.585126
5975.324139
5966.669365
5963.380523
5960.66588
5970.904405
5964.045061
5956.675112
5955.132213
5952.038143
5954.939829
5953.887336
5944.777937
5942.842406
5938.194101
5939.244188
5941.818055
5929.583202
5929.768319
5931.307397
5926.85504
5930.715225
5919.052365
5918.971882
5915.09978
5919.024418
5912.365978
5902.576593
5902.434154
5907.334824
5898.263458
5904.210527
5895.522496
5892.300022
5895.849924
5896.873095
5888.159563
5884.56178
5878.633164
5877.393062
5883.924966
5876.307207
5868.780327
5872.027078
5869.147143
5871.878803
5870.557631
5855.101942
5858.002761
5852.272396
5853.831653
5858.566113
5850.573325
5845.806487
5842.815051
5847.70815
5850.042444
5838.417028
5835.961347
5834.030926
5836.515329
5838.017162
5823.228026
5820.181693
5825.25854
5819.812813
5821.430466
5814.736531
5808.64957
5806.715487
5803.26666
5811.488497
5798.571698
5798.021414
5797.95455
5799.239529
5796.26959
5789.712715
5785.16512
5786.35231
5790.10657
5785.956222
5779.271975
5772.451864
5773.206312
5770.374107
5778.205153
5764.983136
5762.768037
5760.435077
5760.671418
5760.414545
5750.857414
5751.199576
5749.047395
5748.977616
5745.867283
5740.242425
5740.716755
5737.807557
5732.808674
5736.803151
5722.37103
5728.224649
5727.880691
5728.89265
5730.721966
5718.114967
5710.157113
5720.092095
5714.413803
5716.512458
5705.025368
5695.260111
5699.300918
5704.488613
5709.398771
5683.193906
5680.076174
5692.559767
5687.183207
5688.490256
)
;

boundaryField
{
    upperWall
    {
        type            calculated;
        value           nonuniform List<scalar> 5(5683.193906 5680.076174 5692.559767 5687.183207 5688.490256);
    }
    lowerWall
    {
        type            calculated;
        value           nonuniform List<scalar> 5(7280.952417 7275.687753 7274.587673 7280.177036 7282.499263);
    }
    periodicX_half0
    {
        type            cyclic;
    }
    periodicX_half1
    {
        type            cyclic;
    }
    frontAndBack
    {
        type            empty;
    }
}


// ************************************************************************* //
