/*--------------------------------*- C++ -*----------------------------------*\
| =========                 |                                                 |
| \\      /  F ield         | OpenFOAM: The Open Source CFD Toolbox           |
|  \\    /   O peration     | Version:  v1706                                 |
|   \\  /    A nd           | Web:      www.OpenFOAM.com                      |
|    \\/     M anipulation  |                                                 |
\*---------------------------------------------------------------------------*/
FoamFile
{
    version     2.0;
    format      ascii;
    class       volScalarField;
    location    "5";
    object      meanCollisionTime_Mixture;
}
// * * * * * * * * * * * * * * * * * * * * * * * * * * * * * * * * * * * * * //

dimensions      [0 0 1 0 0 0 0];


internalField   nonuniform List<scalar> 
500
(
4.575835477e-05
4.580198895e-05
4.577702761e-05
4.577052234e-05
4.576124734e-05
4.596923808e-05
4.598462037e-05
4.597881165e-05
4.602108838e-05
4.601171622e-05
4.616890384e-05
4.615094454e-05
4.617384523e-05
4.617940566e-05
4.618248154e-05
4.635774024e-05
4.636580622e-05
4.635152748e-05
4.634015092e-05
4.634185649e-05
4.649354127e-05
4.649728244e-05
4.650277786e-05
4.651243832e-05
4.652167784e-05
4.666559992e-05
4.66494989e-05
4.664074356e-05
4.664712359e-05
4.667418175e-05
4.681701375e-05
4.68101341e-05
4.67827031e-05
4.680762489e-05
4.679461718e-05
4.695573747e-05
4.697784767e-05
4.696491564e-05
4.694845635e-05
4.698014346e-05
4.716017102e-05
4.71192043e-05
4.712785315e-05
4.710377642e-05
4.713388999e-05
4.726868807e-05
4.725350102e-05
4.726941557e-05
4.725296832e-05
4.725632193e-05
4.742861039e-05
4.743699696e-05
4.742489907e-05
4.746298335e-05
4.742531132e-05
4.758345955e-05
4.756248948e-05
4.754640278e-05
4.75722466e-05
4.756856824e-05
4.771018916e-05
4.770768444e-05
4.772016563e-05
4.769752326e-05
4.770528833e-05
4.787116518e-05
4.786017986e-05
4.787768689e-05
4.782843794e-05
4.782351448e-05
4.800719945e-05
4.801650414e-05
4.797195946e-05
4.802795265e-05
4.800164633e-05
4.817251841e-05
4.815667219e-05
4.813439005e-05
4.811608339e-05
4.812189851e-05
4.82727045e-05
4.830608113e-05
4.826810728e-05
4.825192361e-05
4.827510406e-05
4.841594499e-05
4.843274541e-05
4.843529688e-05
4.843316328e-05
4.842393649e-05
4.856854697e-05
4.854675019e-05
4.856002432e-05
4.856914449e-05
4.85839616e-05
4.868359938e-05
4.869333626e-05
4.870897703e-05
4.869252967e-05
4.870034695e-05
4.881786654e-05
4.883673871e-05
4.882696006e-05
4.883962131e-05
4.885091551e-05
4.89900351e-05
4.896986616e-05
4.897569615e-05
4.898115077e-05
4.895571898e-05
4.911750496e-05
4.912375879e-05
4.910505895e-05
4.9108076e-05
4.911818018e-05
4.924638728e-05
4.924934763e-05
4.925558868e-05
4.926300124e-05
4.924701339e-05
4.940681884e-05
4.94063118e-05
4.942237809e-05
4.939647212e-05
4.939060048e-05
4.954298331e-05
4.951887644e-05
4.954441663e-05
4.954526515e-05
4.953573673e-05
4.96463514e-05
4.967187361e-05
4.965485204e-05
4.964838456e-05
4.968135208e-05
4.979227334e-05
4.981656874e-05
4.979833427e-05
4.98071325e-05
4.979932133e-05
4.992441304e-05
4.992960402e-05
4.991558302e-05
4.992031981e-05
4.996923429e-05
5.002765197e-05
5.001704733e-05
5.003773557e-05
5.010003877e-05
5.006219298e-05
5.021891801e-05
5.01991134e-05
5.021133435e-05
5.02079912e-05
5.020044459e-05
5.032633101e-05
5.034318012e-05
5.033141847e-05
5.034051369e-05
5.030823444e-05
5.047538806e-05
5.049165584e-05
5.045447458e-05
5.0501317e-05
5.045607702e-05
5.059592706e-05
5.062711935e-05
5.06113367e-05
5.060443087e-05
5.061820985e-05
5.076699404e-05
5.074298245e-05
5.073484124e-05
5.078677215e-05
5.078177147e-05
5.085445678e-05
5.087312903e-05
5.087431788e-05
5.091026003e-05
5.09180635e-05
5.100572063e-05
5.102227402e-05
5.103175808e-05
5.100406198e-05
5.09895714e-05
5.11462933e-05
5.113347286e-05
5.112109318e-05
5.110853232e-05
5.110954412e-05
5.125741535e-05
5.126011898e-05
5.125099465e-05
5.123794456e-05
5.125347396e-05
5.140464921e-05
5.13926412e-05
5.138490874e-05
5.138564614e-05
5.139348307e-05
5.15194121e-05
5.15100354e-05
5.147579048e-05
5.15237175e-05
5.152097145e-05
5.165262497e-05
5.164987106e-05
5.164303798e-05
5.165527475e-05
5.163456518e-05
5.178211928e-05
5.177259537e-05
5.176769126e-05
5.179144096e-05
5.178200107e-05
5.189927126e-05
5.190700319e-05
5.187124199e-05
5.191284365e-05
5.19205943e-05
5.201643136e-05
5.201748761e-05
5.200895903e-05
5.20486676e-05
5.201444761e-05
5.211298558e-05
5.217186534e-05
5.21578183e-05
5.21222742e-05
5.214695628e-05
5.227735051e-05
5.227606593e-05
5.229829063e-05
5.226564926e-05
5.228751994e-05
5.241975186e-05
5.240155791e-05
5.238807293e-05
5.240571247e-05
5.240184909e-05
5.257999283e-05
5.254105507e-05
5.252810152e-05
5.252564803e-05
5.254690061e-05
5.265195537e-05
5.269067575e-05
5.265720582e-05
5.26406702e-05
5.267808564e-05
5.279163041e-05
5.278354055e-05
5.278305013e-05
5.277789636e-05
5.279188953e-05
5.28740491e-05
5.292229791e-05
5.289786555e-05
5.291400191e-05
5.289613231e-05
5.302188608e-05
5.304568358e-05
5.306726086e-05
5.302218553e-05
5.301204796e-05
5.315547e-05
5.31766524e-05
5.317516935e-05
5.315933644e-05
5.318260283e-05
5.326285367e-05
5.327375608e-05
5.32853199e-05
5.332835428e-05
5.326590319e-05
5.33849228e-05
5.337794947e-05
5.340484102e-05
5.338981905e-05
5.34101993e-05
5.350422154e-05
5.349468456e-05
5.350722223e-05
5.353130599e-05
5.351676666e-05
5.362175883e-05
5.362585725e-05
5.361566853e-05
5.36519153e-05
5.362069359e-05
5.371301967e-05
5.373996196e-05
5.372888089e-05
5.37566333e-05
5.37014334e-05
5.388536154e-05
5.386520273e-05
5.388497281e-05
5.386603328e-05
5.387106711e-05
5.398887921e-05
5.401585638e-05
5.400228619e-05
5.401130554e-05
5.404013327e-05
5.413334931e-05
5.411085801e-05
5.411955297e-05
5.412215603e-05
5.40876511e-05
5.42242116e-05
5.419864719e-05
5.423619571e-05
5.423942678e-05
5.424517781e-05
5.431978806e-05
5.436585418e-05
5.43975439e-05
5.434383492e-05
5.437979336e-05
5.446168099e-05
5.448125544e-05
5.450109344e-05
5.448010741e-05
5.445240207e-05
5.457603672e-05
5.460347851e-05
5.458214848e-05
5.456956519e-05
5.460542298e-05
5.471515593e-05
5.468598248e-05
5.472794094e-05
5.472516287e-05
5.471535508e-05
5.482277306e-05
5.482879091e-05
5.482999959e-05
5.482635135e-05
5.481751125e-05
5.497234583e-05
5.495553516e-05
5.493190718e-05
5.498097945e-05
5.495408032e-05
5.504991636e-05
5.508057097e-05
5.503877632e-05
5.507686327e-05
5.503638923e-05
5.517845813e-05
5.517390827e-05
5.515810169e-05
5.518595682e-05
5.519864468e-05
5.528620766e-05
5.527187624e-05
5.528844131e-05
5.526802697e-05
5.532338781e-05
5.540272762e-05
5.538186589e-05
5.537557799e-05
5.537866125e-05
5.541320911e-05
5.548383198e-05
5.549563523e-05
5.551493012e-05
5.551186183e-05
5.548350549e-05
5.559811775e-05
5.562519382e-05
5.561919904e-05
5.561023767e-05
5.55926058e-05
5.576364536e-05
5.572815318e-05
5.573099604e-05
5.570895213e-05
5.572905845e-05
5.584607042e-05
5.585998848e-05
5.587955204e-05
5.582064243e-05
5.584999063e-05
5.594015148e-05
5.593075441e-05
5.597206394e-05
5.596410861e-05
5.595399699e-05
5.605168381e-05
5.604719788e-05
5.607219434e-05
5.610264183e-05
5.610212189e-05
5.616892538e-05
5.615234031e-05
5.619444032e-05
5.622677694e-05
5.621411363e-05
5.629842321e-05
5.627253601e-05
5.62956708e-05
5.629700177e-05
5.631212745e-05
5.644398317e-05
5.642808354e-05
5.639752352e-05
5.644571525e-05
5.641628023e-05
5.650871073e-05
5.655306119e-05
5.652302153e-05
5.652552609e-05
5.654661824e-05
5.665379455e-05
5.665499019e-05
5.665553573e-05
5.664431941e-05
5.666438851e-05
5.676886852e-05
5.673090642e-05
5.676193744e-05
5.674386536e-05
5.67594103e-05
5.689068994e-05
5.686200629e-05
5.690392278e-05
5.685927729e-05
5.685729729e-05
5.694177617e-05
5.699230995e-05
5.701386083e-05
5.697502231e-05
5.694095103e-05
5.706303945e-05
5.707751795e-05
5.711703218e-05
5.710744654e-05
5.706527747e-05
5.718437103e-05
5.720870357e-05
5.719264875e-05
5.721951756e-05
5.720620233e-05
5.728759247e-05
5.729887849e-05
5.73580113e-05
5.734584254e-05
5.731283257e-05
5.744814426e-05
5.742474081e-05
5.742764694e-05
5.74203242e-05
5.74168744e-05
5.754283582e-05
5.755697958e-05
5.752149383e-05
5.75114749e-05
5.757166445e-05
5.761849424e-05
5.767669204e-05
5.764765111e-05
5.765348654e-05
5.760909726e-05
5.775980664e-05
5.774769893e-05
5.779937554e-05
5.777422741e-05
5.77793216e-05
5.787494104e-05
5.785592269e-05
5.790006939e-05
5.79159072e-05
5.791272886e-05
5.798546509e-05
5.798608018e-05
5.800600589e-05
5.804566148e-05
5.799878655e-05
5.816439636e-05
5.81427838e-05
5.809592026e-05
5.812801983e-05
5.813023191e-05
5.824473347e-05
5.826757681e-05
5.822567142e-05
5.82389495e-05
5.827386451e-05
5.837474675e-05
5.840514832e-05
5.840420591e-05
5.83812252e-05
5.835557869e-05
5.857658096e-05
5.858307109e-05
5.853197108e-05
5.853554704e-05
5.852194389e-05
)
;

boundaryField
{
    upperWall
    {
        type            calculated;
        value           nonuniform List<scalar> 5(5.857658096e-05 5.858307109e-05 5.853197108e-05 5.853554704e-05 5.852194389e-05);
    }
    lowerWall
    {
        type            calculated;
        value           nonuniform List<scalar> 5(4.575835477e-05 4.580198895e-05 4.577702761e-05 4.577052234e-05 4.576124734e-05);
    }
    periodicX_half0
    {
        type            cyclic;
    }
    periodicX_half1
    {
        type            cyclic;
    }
    frontAndBack
    {
        type            empty;
    }
}


// ************************************************************************* //
