/*--------------------------------*- C++ -*----------------------------------*\
| =========                 |                                                 |
| \\      /  F ield         | OpenFOAM: The Open Source CFD Toolbox           |
|  \\    /   O peration     | Version:  v1706                                 |
|   \\  /    A nd           | Web:      www.OpenFOAM.com                      |
|    \\/     M anipulation  |                                                 |
\*---------------------------------------------------------------------------*/
FoamFile
{
    version     2.0;
    format      ascii;
    class       volScalarField;
    location    "5";
    object      meanCollisionTime_N2;
}
// * * * * * * * * * * * * * * * * * * * * * * * * * * * * * * * * * * * * * //

dimensions      [0 0 1 0 0 0 0];


internalField   nonuniform List<scalar> 
500
(
0.000137344669
0.0001374440512
0.0001374648358
0.000137359297
0.0001373154962
0.0001379352132
0.0001380744126
0.0001379552813
0.0001380709887
0.0001380905898
0.0001385555535
0.0001385135141
0.0001385739609
0.0001386640395
0.0001385977531
0.0001391438539
0.0001391981525
0.0001390706749
0.0001391742283
0.0001390495371
0.0001394708078
0.000139585764
0.0001395545588
0.0001396287874
0.0001395407419
0.0001399587392
0.0001399333061
0.0001398746403
0.000139876695
0.0001399458917
0.0001404873665
0.0001403755826
0.0001404085539
0.0001403877421
0.0001404122107
0.0001409221732
0.0001409218361
0.0001410082268
0.000140789676
0.000140860559
0.0001413676925
0.0001413839042
0.0001415579768
0.0001412435287
0.000141399759
0.0001417656978
0.000141757801
0.0001417863529
0.000141743193
0.0001417300266
0.0001423044171
0.0001423617864
0.0001423240338
0.0001423224102
0.0001423151964
0.0001427278414
0.0001427560025
0.0001426819627
0.0001427781193
0.0001428251826
0.0001431914903
0.0001432298943
0.000143329859
0.0001432080121
0.0001431063836
0.0001435531442
0.0001435968202
0.0001435630862
0.0001434066269
0.0001434677764
0.0001440950691
0.0001440632472
0.0001441032617
0.000144094985
0.0001440130657
0.0001446269
0.0001445294905
0.0001445030142
0.0001443915443
0.000144420345
0.0001448893158
0.0001448954589
0.0001447965335
0.0001447202328
0.0001448844753
0.0001452975286
0.0001453133382
0.0001453130794
0.0001451809597
0.0001452544144
0.0001456957395
0.0001456634058
0.0001456693162
0.0001458206446
0.0001458103552
0.0001461307724
0.0001461129204
0.0001461434066
0.0001461156398
0.0001462488953
0.0001464508187
0.0001464905811
0.0001464647675
0.0001465017438
0.0001466680174
0.0001470563953
0.0001470785424
0.0001468982627
0.0001469243284
0.0001470069208
0.0001474135416
0.000147377439
0.0001473954709
0.0001473361022
0.0001474432692
0.0001478197674
0.0001478571967
0.0001477999197
0.0001478434069
0.0001477880901
0.0001482458982
0.0001482416411
0.0001483318454
0.0001483535734
0.0001482248861
0.0001486940668
0.0001484787573
0.0001486802241
0.0001486630901
0.0001487716436
0.0001489882643
0.0001490375807
0.0001490815232
0.000148994033
0.0001490507418
0.0001494224804
0.0001494534766
0.0001495361638
0.0001494529888
0.0001493632595
0.0001498505178
0.0001497355993
0.0001497490445
0.0001498642857
0.0001499502625
0.0001500987325
0.0001500633148
0.0001500975751
0.0001502723705
0.0001502537911
0.0001506205046
0.0001505470819
0.0001506421814
0.0001506946653
0.0001506019896
0.0001509040282
0.0001510609694
0.00015108181
0.0001511165233
0.0001510085918
0.0001514618963
0.0001514859058
0.0001514078633
0.0001515770261
0.0001512865249
0.0001518507412
0.0001519384852
0.0001518575115
0.0001518292428
0.0001519025552
0.0001524022297
0.0001522728529
0.0001522604871
0.0001524356224
0.0001524194385
0.0001525443375
0.000152613547
0.0001526220904
0.0001527579836
0.0001527788533
0.0001530481014
0.000153095597
0.0001531410934
0.0001529899071
0.0001529667667
0.0001534535594
0.0001534098977
0.0001532861226
0.0001533756795
0.0001534126005
0.0001537303051
0.0001538225884
0.0001537818166
0.0001537263021
0.0001537168681
0.000154226897
0.0001542335384
0.0001542285975
0.0001541910668
0.0001541929041
0.0001544847009
0.000154538921
0.0001543656707
0.0001546019843
0.0001546419569
0.0001549529306
0.0001551212999
0.0001549584721
0.0001550081577
0.0001549228257
0.0001555135038
0.0001554201465
0.0001553308032
0.0001553530191
0.0001555149399
0.0001556441408
0.0001557839561
0.0001556141531
0.000155852088
0.0001558023552
0.0001560642583
0.0001560180294
0.0001559947784
0.0001560696942
0.0001560974528
0.0001562772421
0.0001565756816
0.0001566211505
0.0001562602772
0.0001565364054
0.0001569141529
0.0001567240276
0.0001569446435
0.0001568431158
0.0001569827073
0.0001572957586
0.0001571243895
0.0001572393852
0.0001571228656
0.0001572409469
0.0001576712253
0.0001576482503
0.0001575403083
0.0001574777556
0.0001576660597
0.0001580238377
0.0001580892431
0.0001580068841
0.0001578548783
0.0001581129475
0.000158479373
0.0001583858565
0.0001584317838
0.0001583242458
0.0001584389459
0.0001587353921
0.0001588958135
0.0001587338467
0.0001587944022
0.0001586823346
0.0001592009115
0.0001591511889
0.0001592647636
0.0001591031716
0.0001590160527
0.0001594726092
0.0001595882189
0.0001594980131
0.0001594984557
0.0001594588702
0.0001598254012
0.0001599284311
0.0001598615085
0.0001600319005
0.000159906536
0.000160278342
0.000160187227
0.0001603111481
0.0001603850504
0.0001603818511
0.0001606109943
0.0001606681427
0.0001607032281
0.0001607174134
0.000160737993
0.0001609859414
0.0001609826026
0.0001608926951
0.0001609977118
0.0001610213033
0.0001612717883
0.000161225645
0.00016126728
0.0001613905666
0.0001612322888
0.0001616749664
0.0001616421811
0.0001617801759
0.0001616980773
0.000161766623
0.0001621639707
0.0001622932837
0.0001621379295
0.0001620242258
0.0001621716073
0.0001625114906
0.000162476257
0.0001624063312
0.0001625087623
0.0001623309026
0.0001627897886
0.0001627668582
0.0001628053688
0.000162818175
0.0001628756713
0.0001630603938
0.0001632597928
0.0001633618171
0.0001632504069
0.0001633656837
0.0001634449853
0.0001635385139
0.0001635541447
0.0001636302943
0.0001634255358
0.0001638011627
0.0001639104498
0.0001637953324
0.0001638855824
0.0001638561867
0.0001642316175
0.0001641838574
0.0001642646142
0.0001643588001
0.000164163687
0.0001645624022
0.0001646327424
0.0001645853674
0.000164730107
0.0001645244164
0.0001651941821
0.0001651012454
0.0001648163315
0.0001651496261
0.0001650122049
0.0001653432634
0.000165366212
0.0001652980741
0.0001653230555
0.0001651905909
0.0001657072059
0.0001655934865
0.0001655940999
0.0001656752065
0.0001657530614
0.0001659357481
0.0001659311778
0.0001659297001
0.0001659113973
0.0001662250563
0.0001663461188
0.0001663051011
0.0001663486629
0.0001663309132
0.0001664730739
0.0001664807057
0.0001666015453
0.0001666912004
0.0001667427375
0.0001666252126
0.0001669322287
0.0001671024602
0.0001669587602
0.00016702824
0.000166950016
0.000167461557
0.0001674334182
0.0001673268588
0.000167263655
0.0001673549379
0.0001675976896
0.0001676901208
0.0001677664912
0.000167478816
0.000167671436
0.000167878889
0.0001679223843
0.000168009676
0.0001679278093
0.0001679574946
0.0001682148619
0.000168269648
0.0001684013663
0.0001683715921
0.0001682986572
0.0001686459176
0.0001686406528
0.0001685968932
0.0001687235462
0.0001686137273
0.0001689459627
0.0001689482599
0.0001690588557
0.0001689467604
0.0001691370263
0.000169417539
0.0001694216274
0.0001692810768
0.0001695414264
0.0001693706543
0.00016962025
0.0001697130146
0.0001696108301
0.0001695814008
0.0001698323541
0.0001699361885
0.0001701075696
0.0001701434615
0.0001699545806
0.0001701749015
0.0001703931557
0.0001702989422
0.0001703825063
0.0001703032425
0.0001703415694
0.0001707912193
0.0001707066454
0.0001708737961
0.0001708282813
0.0001706902305
0.0001709234197
0.0001710627956
0.0001711503772
0.0001710071663
0.0001709389307
0.0001712793031
0.0001713513748
0.0001714080732
0.0001713351107
0.0001712910346
0.0001717260591
0.000171815942
0.0001716662004
0.0001718268323
0.0001717790852
0.0001719768376
0.0001721570544
0.000172214396
0.0001723167413
0.0001720729552
0.000172456262
0.0001724726296
0.0001724746187
0.0001724364022
0.0001725247566
0.0001727201416
0.0001728559132
0.0001728204483
0.0001727083928
0.000172832279
0.000173032175
0.0001732366113
0.0001732139726
0.0001732989892
0.0001730641217
0.0001734610451
0.0001735277203
0.0001735979985
0.0001735908764
0.0001735986173
0.0001738871142
0.000173876769
0.0001739418605
0.0001739439718
0.0001740381305
0.0001742086703
0.0001741942762
0.0001742825966
0.0001744345672
0.0001743131102
0.0001747527371
0.0001745741589
0.000174584642
0.0001745538032
0.0001744980835
0.0001748828077
0.0001751265298
0.0001748223601
0.0001749960774
0.0001749318325
0.0001752840585
0.0001755846055
0.000175460116
0.0001753005515
0.0001751497907
0.0001759573959
0.000176053977
0.0001756678965
0.0001758339698
0.0001757935682
)
;

boundaryField
{
    upperWall
    {
        type            calculated;
        value           nonuniform List<scalar> 5(0.0001759573959 0.000176053977 0.0001756678965 0.0001758339698 0.0001757935682);
    }
    lowerWall
    {
        type            calculated;
        value           nonuniform List<scalar> 5(0.000137344669 0.0001374440512 0.0001374648358 0.000137359297 0.0001373154962);
    }
    periodicX_half0
    {
        type            cyclic;
    }
    periodicX_half1
    {
        type            cyclic;
    }
    frontAndBack
    {
        type            empty;
    }
}


// ************************************************************************* //
