/*--------------------------------*- C++ -*----------------------------------*\
| =========                 |                                                 |
| \\      /  F ield         | OpenFOAM: The Open Source CFD Toolbox           |
|  \\    /   O peration     | Version:  v1706                                 |
|   \\  /    A nd           | Web:      www.OpenFOAM.com                      |
|    \\/     M anipulation  |                                                 |
\*---------------------------------------------------------------------------*/
FoamFile
{
    version     2.0;
    format      ascii;
    class       volScalarField;
    location    "5";
    object      measuredCollisionRate;
}
// * * * * * * * * * * * * * * * * * * * * * * * * * * * * * * * * * * * * * //

dimensions      [0 -3 -1 0 0 0 0];


internalField   nonuniform List<scalar> 
500
(
14563.77869
14557.68134
14539.25239
14551.7822
14569.53253
14504.38978
14500.15772
14489.3744
14489.23311
14483.69448
14439.25789
14448.06926
14419.14592
14432.78451
14426.76276
14373.28951
14378.01027
14387.58054
14384.74672
14388.91336
14325.79937
14328.94805
14336.01771
14340.72518
14338.85846
14285.05167
14271.31892
14293.83556
14287.3604
14283.68614
14240.7742
14229.6297
14233.18957
14255.87489
14242.01875
14207.13073
14169.49124
14188.51871
14211.22846
14192.09569
14129.21033
14142.38397
14148.18897
14148.10777
14131.99861
14095.22444
14106.44977
14097.21698
14104.54894
14104.64914
14060.12645
14049.71023
14042.78573
14033.0056
14058.61028
13991.25527
14017.14966
14023.25705
14018.52498
14009.51524
13972.2536
13961.94046
13965.55436
13984.82455
13976.31663
13914.10304
13932.24479
13910.95259
13938.33477
13936.91139
13880.41371
13886.97075
13894.21801
13889.68419
13893.59106
13839.91261
13849.75184
13844.8523
13861.34252
13846.9336
13805.3021
13791.49621
13801.63288
13806.98876
13796.20122
13763.14431
13758.07525
13769.64403
13763.78275
13772.42701
13712.77524
13743.23364
13727.1354
13719.63283
13713.32712
13682.87806
13669.51661
13674.77153
13688.06357
13680.77946
13657.60199
13660.61144
13626.88906
13646.56243
13648.64303
13620.78041
13625.35764
13607.69321
13614.49988
13624.64711
13569.04689
13564.48777
13580.05155
13575.52158
13567.93843
13518.25423
13543.62483
13506.55635
13513.29182
13527.4822
13492.39114
13506.89234
13490.6048
13484.48813
13497.55188
13455.29756
13481.37042
13454.37627
13449.87135
13451.52578
13417.5269
13417.16703
13419.86908
13438.9679
13411.11389
13377.93297
13383.41723
13397.01906
13379.60742
13370.07095
13348.10453
13350.80276
13340.15278
13354.87579
13337.15494
13325.3759
13324.91991
13326.38716
13306.69777
13324.82221
13278.78363
13276.93281
13271.31768
13260.64686
13283.22597
13255.85604
13244.20281
13229.34809
13237.65151
13262.01157
13203.68586
13210.21883
13223.99019
13197.40183
13201.45778
13174.89636
13177.03203
13176.16505
13180.33101
13167.70184
13128.01118
13148.47923
13127.90148
13123.65664
13122.0826
13102.02954
13111.99167
13103.96728
13097.15441
13087.3419
13071.60781
13054.06359
13077.80838
13069.16742
13060.60188
13035.64638
13033.06907
13031.19622
13047.52894
13040.88592
13017.17353
13022.0246
13004.6719
13014.59792
13014.93406
12955.83443
12963.56716
12968.40851
12965.87494
12985.82165
12940.11147
12950.42842
12955.75006
12933.52142
12945.25506
12903.42388
12902.08192
12899.49825
12904.44354
12905.75147
12874.68068
12872.11504
12878.03359
12864.13576
12859.91077
12851.49024
12847.2198
12863.61822
12851.17862
12837.28654
12815.8391
12811.86963
12802.43951
12810.16774
12796.69722
12772.81725
12788.46705
12784.99927
12793.93804
12783.10653
12763.09272
12742.18777
12752.41551
12761.61881
12749.27114
12702.77305
12703.52236
12723.21125
12722.04985
12730.63188
12688.30783
12697.73117
12694.47013
12700.92532
12666.22977
12652.63181
12654.46784
12648.13281
12656.02744
12635.40224
12631.65852
12617.92854
12639.78938
12619.04848
12641.54287
12601.77763
12609.53258
12601.27857
12605.86616
12605.28262
12573.96901
12575.57303
12548.86484
12569.97109
12583.38384
12539.36708
12530.2942
12528.39716
12529.10475
12537.74476
12511.46406
12501.8256
12506.18919
12494.32382
12509.24296
12502.67416
12467.84993
12491.25897
12475.11987
12470.49568
12456.69615
12447.57975
12465.30595
12465.3349
12450.48788
12428.87921
12427.19963
12438.35661
12434.11314
12427.46301
12400.71761
12403.6883
12404.57158
12390.86186
12421.63929
12371.34671
12383.05388
12370.24307
12382.22916
12374.42871
12337.39296
12329.10929
12357.17722
12335.05634
12335.02286
12322.91009
12317.43674
12320.24523
12322.55785
12323.36461
12287.43557
12306.23011
12292.50024
12280.36699
12295.69144
12281.52156
12261.66347
12252.72806
12271.14191
12256.19928
12233.85934
12228.66792
12231.25085
12231.89414
12258.38608
12214.22839
12208.1294
12206.66427
12215.01795
12214.4163
12178.62653
12196.38463
12186.84181
12170.96601
12176.57063
12153.15002
12152.72778
12157.23952
12160.0213
12162.00653
12125.3667
12132.08955
12127.97742
12122.93035
12127.79093
12114.32896
12111.35512
12099.62633
12107.44229
12085.75529
12071.74539
12093.46247
12090.41849
12087.38294
12082.13456
12075.56979
12055.68075
12049.10756
12069.05322
12043.19305
12002.04816
12042.9637
12031.34643
12031.29756
12040.20434
12019.43282
12012.16855
12007.74659
12002.80958
12012.98032
11989.05566
11993.82718
11999.08321
11988.54515
11995.95517
11951.69904
11969.19278
11962.16385
11972.03261
11947.32051
11936.65375
11941.80055
11933.86721
11947.73321
11926.45129
11916.25315
11923.49934
11901.72445
11902.72427
11914.0046
11872.98518
11908.3989
11894.52854
11880.60022
11889.9715
11873.16939
11858.28262
11853.48858
11868.42737
11851.91598
11837.14601
11843.37394
11815.5546
11851.23961
11844.89091
11799.10547
11813.42474
11799.8892
11809.2798
11819.40446
11788.64722
11781.22874
11780.18454
11791.21578
11791.83253
11769.42555
11756.62633
11750.36567
11771.48513
11764.06976
11738.24669
11752.66452
11743.07684
11744.79499
11742.1238
11729.70753
11711.80039
11717.6407
11736.35982
11722.15584
11699.82238
11687.40227
11674.65458
11705.41206
11699.00636
11668.16044
11676.93111
11679.04375
11672.71178
11674.39356
11656.70222
11654.6492
11662.47265
11656.76639
11650.78511
11635.57577
11630.14392
11626.01048
11616.56942
11640.336
11613.9994
11605.09292
11607.18772
11611.00309
11614.78239
11590.93852
11584.15885
11596.2905
11598.14538
11583.27464
11576.73714
11551.83203
11562.41103
11574.98254
11559.96985
11553.48556
11545.11328
11539.73947
11543.869
11542.74953
11523.16115
11537.0276
11510.65784
11512.57741
11491.75434
11506.62038
11496.634
11494.34507
11488.12762
11503.46037
11461.34053
11467.75918
11458.38273
11466.56241
11453.45584
11447.84927
11442.51484
11450.48877
11446.80746
11442.4782
11406.80915
11416.3119
11412.91117
11397.22798
11426.46971
11377.56888
11379.84015
11399.36845
11398.05133
11391.23651
)
;

boundaryField
{
    upperWall
    {
        type            calculated;
        value           uniform 0;
    }
    lowerWall
    {
        type            calculated;
        value           uniform 0;
    }
    periodicX_half0
    {
        type            cyclic;
    }
    periodicX_half1
    {
        type            cyclic;
    }
    frontAndBack
    {
        type            empty;
    }
}


// ************************************************************************* //
