/*--------------------------------*- C++ -*----------------------------------*\
| =========                 |                                                 |
| \\      /  F ield         | OpenFOAM: The Open Source CFD Toolbox           |
|  \\    /   O peration     | Version:  v1706                                 |
|   \\  /    A nd           | Web:      www.OpenFOAM.com                      |
|    \\/     M anipulation  |                                                 |
\*---------------------------------------------------------------------------*/
FoamFile
{
    version     2.0;
    format      ascii;
    class       volScalarField;
    location    "5";
    object      mfpCellRatio_N2;
}
// * * * * * * * * * * * * * * * * * * * * * * * * * * * * * * * * * * * * * //

dimensions      [0 0 0 0 0 0 0];


internalField   nonuniform List<scalar> 
500
(
8.594934616
8.602611511
8.605628025
8.599596613
8.595495312
8.664478372
8.673270526
8.665735174
8.676596239
8.67792723
8.73154749
8.728261251
8.732409032
8.738172085
8.734947694
8.792964395
8.796881207
8.786851768
8.795880489
8.785627095
8.833242173
8.843836536
8.845335425
8.845803371
8.83802295
8.887058944
8.885198851
8.881537079
8.882649342
8.887664312
8.944716447
8.935455765
8.936558165
8.938912791
8.937170219
8.99190398
8.995058505
8.994301053
8.983337681
8.987788355
9.041424747
9.042283613
9.051059311
9.030996609
9.042055714
9.086626431
9.086674092
9.08534689
9.084304234
9.08201041
9.142232152
9.143232591
9.142830828
9.14037193
9.139436575
9.188625532
9.189521288
9.183772859
9.19034535
9.191143345
9.234036148
9.238579683
9.241990984
9.236572384
9.231302828
9.28188001
9.282675245
9.283280362
9.270190912
9.269836679
9.335089907
9.330790131
9.330710273
9.334062528
9.329278436
9.387585545
9.38169983
9.378831574
9.371783806
9.370928876
9.423631295
9.42548289
9.417855225
9.412711151
9.426902218
9.470190344
9.469770718
9.469824245
9.460257107
9.462306345
9.514284949
9.513116308
9.511980757
9.523336465
9.524249705
9.561893211
9.560334569
9.560863299
9.560244051
9.56862269
9.599338474
9.600483894
9.601918389
9.602964619
9.617422939
9.659587054
9.661564449
9.648575431
9.65133981
9.656082196
9.699307409
9.696114022
9.698444687
9.699082625
9.703316719
9.745947132
9.749719768
9.743012183
9.745860808
9.742144497
9.794305892
9.792361693
9.800216391
9.799585371
9.79023452
9.83668225
9.826442852
9.83902521
9.845029902
9.845271186
9.879298689
9.884821488
9.884857443
9.878941883
9.886204699
9.932208593
9.929209362
9.936551777
9.929803173
9.92053572
9.973390242
9.966118141
9.967358281
9.972775608
9.977689029
10.01179346
10.00456095
10.00486088
10.02068406
10.01913363
10.06005277
10.05530007
10.06000204
10.06322798
10.05626507
10.10130611
10.10393776
10.11216286
10.11391958
10.10121376
10.15706506
10.15673423
10.14907984
10.16055703
10.14244123
10.19859468
10.20451205
10.2012647
10.19936739
10.19911163
10.25419819
10.24536777
10.24585735
10.25326025
10.25133272
10.28193362
10.28669076
10.28559032
10.29804764
10.30108655
10.33223983
10.33755614
10.34125615
10.32811787
10.3282604
10.38046656
10.37701579
10.37062534
10.37189734
10.37603298
10.41626854
10.42448518
10.42068856
10.41535513
10.41366311
10.46443104
10.46457722
10.4636467
10.4641501
10.46693673
10.50169259
10.50525079
10.49311219
10.5053527
10.51132883
10.54985171
10.55849789
10.54856406
10.55254399
10.54955886
10.60921273
10.59147713
10.59041118
10.59467021
10.60532662
10.63207701
10.63888587
10.62953721
10.64675355
10.64129144
10.67884996
10.6716107
10.67352863
10.67919257
10.68111846
10.71355116
10.72910856
10.73430539
10.71043961
10.73048622
10.77559589
10.76428285
10.77416015
10.76956768
10.7772395
10.82017244
10.80159078
10.81194533
10.80383224
10.81198212
10.8581328
10.85973932
10.84946163
10.8431425
10.85579718
10.90061887
10.90986123
10.89580896
10.89066682
10.90980412
10.94889557
10.94339531
10.94162288
10.9374843
10.94587686
10.98477214
10.9943723
10.9805499
10.98241583
10.98096315
11.03473893
11.03129849
11.03733416
11.02435979
11.01948264
11.07390348
11.07953365
11.07062326
11.07525468
11.06382813
11.11018638
11.11958168
11.1147706
11.13138504
11.11618164
11.16255945
11.14757958
11.1604462
11.16667602
11.17288577
11.20436278
11.20676772
11.20853735
11.20621581
11.20913082
11.23966804
11.24375527
11.23675896
11.24657965
11.24741742
11.27977342
11.27526276
11.27692234
11.28374051
11.28186027
11.32545011
11.31936789
11.33391985
11.33118662
11.33096287
11.37631723
11.38519169
11.37532135
11.36882718
11.37759682
11.41979957
11.41623938
11.41230253
11.42338984
11.40582173
11.45677679
11.4565968
11.46072178
11.45781021
11.46064115
11.49204233
11.50737471
11.51628557
11.50713639
11.51728736
11.53862959
11.54509537
11.54399791
11.54769732
11.54127312
11.57872645
11.58609377
11.57303074
11.58386156
11.5790322
11.62524843
11.62531064
11.62718699
11.63211931
11.62073819
11.67044451
11.67024514
11.6660835
11.67994402
11.66428805
11.73084991
11.7215998
11.70481118
11.72711004
11.71889816
11.75465188
11.76128876
11.7506633
11.75718196
11.74419299
11.79817129
11.78507179
11.78964415
11.79361246
11.80028765
11.82856894
11.82869431
11.82992115
11.82989292
11.84765367
11.87409553
11.87235313
11.87624469
11.87889032
11.88368941
11.90573315
11.91077497
11.92355408
11.92173196
11.91372596
11.95367738
11.96790191
11.95439943
11.96065694
11.95366327
12.01003479
12.0053893
12.00371505
11.99030338
11.99836241
12.03302808
12.04353122
12.04004686
12.03126784
12.03810746
12.06966614
12.07319895
12.08480477
12.07428379
12.07593732
12.11094388
12.11442946
12.12606221
12.12429836
12.11822108
12.1612403
12.15784518
12.1558214
12.16334052
12.15491239
12.19302546
12.19251287
12.20045753
12.19657413
12.20221261
12.24640163
12.24796865
12.23699342
12.25888405
12.24699903
12.282031
12.28620546
12.2788588
12.27815573
12.29988542
12.32009692
12.32861356
12.33361307
12.32295157
12.33626058
12.36939737
12.36329404
12.3675171
12.36116299
12.36163878
12.41240341
12.40796448
12.41996446
12.41579291
12.40640675
12.44231777
12.44914939
12.45896169
12.44850936
12.44395933
12.48262845
12.49255398
12.49640657
12.49031975
12.48265195
12.53634024
12.54732328
12.53134521
12.54367004
12.54020344
12.57344036
12.58764594
12.58942028
12.59558926
12.57484418
12.62226066
12.63125619
12.6276566
12.62396214
12.62132827
12.65735784
12.66844187
12.66722231
12.65956899
12.66506225
12.69689247
12.71547951
12.71845957
12.71694354
12.69938272
12.74972743
12.75564162
12.76405345
12.75894696
12.76112448
12.79954468
12.79811885
12.80455782
12.80724757
12.81032938
12.84770883
12.84669551
12.84837074
12.86008379
12.85677805
12.90284448
12.89257664
12.89281383
12.88824301
12.88773091
12.93312665
12.95115837
12.9368545
12.94279279
12.93710012
12.98887307
13.01035941
13.00346778
12.99206152
12.97587553
13.06754609
13.074962
13.04850094
13.05801028
13.05638636
)
;

boundaryField
{
    upperWall
    {
        type            calculated;
        value           nonuniform List<scalar> 5(13.06754609 13.074962 13.04850094 13.05801028 13.05638636);
    }
    lowerWall
    {
        type            calculated;
        value           nonuniform List<scalar> 5(8.594934616 8.602611511 8.605628025 8.599596613 8.595495312);
    }
    periodicX_half0
    {
        type            cyclic;
    }
    periodicX_half1
    {
        type            cyclic;
    }
    frontAndBack
    {
        type            empty;
    }
}


// ************************************************************************* //
