/*--------------------------------*- C++ -*----------------------------------*\
| =========                 |                                                 |
| \\      /  F ield         | OpenFOAM: The Open Source CFD Toolbox           |
|  \\    /   O peration     | Version:  v1706                                 |
|   \\  /    A nd           | Web:      www.OpenFOAM.com                      |
|    \\/     M anipulation  |                                                 |
\*---------------------------------------------------------------------------*/
FoamFile
{
    version     2.0;
    format      ascii;
    class       volScalarField;
    location    "5";
    object      mfpCellRatio_O2;
}
// * * * * * * * * * * * * * * * * * * * * * * * * * * * * * * * * * * * * * //

dimensions      [0 0 0 0 0 0 0];


internalField   nonuniform List<scalar> 
500
(
8.590667678
8.597689512
8.588373244
8.589248323
8.592730771
8.662274005
8.660905875
8.662498029
8.671830784
8.671362038
8.723687898
8.718031425
8.725168167
8.721272436
8.726870908
8.785365798
8.783606912
8.786840312
8.777426153
8.782930913
8.839010622
8.833474109
8.835948112
8.836450538
8.842361374
8.892736658
8.892390407
8.891031957
8.887536833
8.896089662
8.940703266
8.944243607
8.93279449
8.940365385
8.934975591
8.988122208
8.993398236
8.98341039
8.991464221
9.001480358
9.054684324
9.041659631
9.031350517
9.042880549
9.042826827
9.090298412
9.086206718
9.090942732
9.087735132
9.092498603
9.139964317
9.137041912
9.139304591
9.151698423
9.135676335
9.191556091
9.181440358
9.180780624
9.183189433
9.180108193
9.228621134
9.226868812
9.224447879
9.223179955
9.232058882
9.287562343
9.28418107
9.289002658
9.283821842
9.278350889
9.323372422
9.329874744
9.308838552
9.332242489
9.325283261
9.377240782
9.375447163
9.365039243
9.370178913
9.366112052
9.420232939
9.4295924
9.416499428
9.415968045
9.414728038
9.465651613
9.470282455
9.473042674
9.481312682
9.473158025
9.514464664
9.508343046
9.516275892
9.507828429
9.516121811
9.551117679
9.556659477
9.56017758
9.557195753
9.552772209
9.60409912
9.609605062
9.604783616
9.606878774
9.600587984
9.651041809
9.640557037
9.65367067
9.658512957
9.645611994
9.690461152
9.697578422
9.690203198
9.69341679
9.689190909
9.737691397
9.733989454
9.74000717
9.744125926
9.742254691
9.792484245
9.792677706
9.786857018
9.782451613
9.784683991
9.837599544
9.836616584
9.836263159
9.836245114
9.824004138
9.870043186
9.881243871
9.869778266
9.873640095
9.883876067
9.92013023
9.929494077
9.916820467
9.924451971
9.92616984
9.963552916
9.971920589
9.968851296
9.959496988
9.973634887
10.00388397
10.00484743
10.01221707
10.02383201
10.00950239
10.06934833
10.06359382
10.06215255
10.05689808
10.0589078
10.10729629
10.10555184
10.09783105
10.10008305
10.09161133
10.14496167
10.15432536
10.14079031
10.15126253
10.15122107
10.19046449
10.19358309
10.19296032
10.19437952
10.19783967
10.23860827
10.23632705
10.23130644
10.24459246
10.24695708
10.28198646
10.28085993
10.28602778
10.29206508
10.29396114
10.32967069
10.33316386
10.3338179
10.3310416
10.33053949
10.37426204
10.37665265
10.37713966
10.36564165
10.36129909
10.42118106
10.41557776
10.41514093
10.41130262
10.41969485
10.46194087
10.45732317
10.45417493
10.45963847
10.46045879
10.51283962
10.50073589
10.50509372
10.50665951
10.5005352
10.55195539
10.53687542
10.54779478
10.54659741
10.54386036
10.58487838
10.58181811
10.59007065
10.59811296
10.58338362
10.64427167
10.63372209
10.6282263
10.6340725
10.63955298
10.68316698
10.68086642
10.67901117
10.69022674
10.6785078
10.72001273
10.72374529
10.71214732
10.72851995
10.71592598
10.75931526
10.77440085
10.76608426
10.76516637
10.75898439
10.81260847
10.81400438
10.80076198
10.81999897
10.80580455
10.86911894
10.85351082
10.85588561
10.860529
10.85759294
10.89125323
10.9055814
10.89942444
10.8971927
10.8956046
10.93921859
10.93884058
10.93080543
10.9392513
10.93669187
10.97006815
10.97522953
10.97731847
10.98106177
10.9822932
11.01543633
11.03088398
11.02890676
11.02458396
11.02467296
11.06419262
11.07301493
11.07915503
11.06997087
11.08528669
11.10841715
11.10546468
11.11287803
11.123312
11.10772594
11.14547994
11.14957989
11.14488515
11.13579976
11.14608725
11.18626686
11.17798319
11.18499512
11.1908733
11.18688199
11.22837928
11.23055682
11.23282932
11.23764005
11.22264571
11.26357014
11.2790712
11.26939236
11.27395334
11.26484081
11.3235486
11.32046766
11.31648604
11.32201933
11.31468469
11.35215937
11.35156253
11.36317047
11.37245956
11.37191695
11.40551158
11.39727832
11.40820765
11.40080327
11.39961063
11.44400867
11.43471302
11.4454326
11.44361119
11.4483372
11.479181
11.48299638
11.49025187
11.47651601
11.4838105
11.53522664
11.53383858
11.53961266
11.52848942
11.52858605
11.57122527
11.57134193
11.5737053
11.56166383
11.57678621
11.61690979
11.6078808
11.61804042
11.614725
11.62150221
11.65536581
11.65346525
11.65605305
11.64609119
11.65248396
11.68974684
11.68783963
11.69988994
11.69649802
11.69644289
11.73129749
11.74260258
11.72543107
11.73861511
11.73910551
11.77540062
11.78329189
11.77728078
11.78005848
11.77691245
11.82052354
11.81473399
11.8267495
11.81225701
11.81357711
11.85513952
11.8501404
11.84769067
11.84941484
11.85395832
11.8947289
11.89458222
11.89464749
11.89120542
11.89081767
11.93219813
11.93138639
11.93862864
11.92667583
11.93094995
11.98565791
11.96557971
11.97964783
11.97432474
11.98105414
12.02494213
12.0215678
12.02825235
12.02793187
12.02076697
12.06149347
12.05527225
12.06913406
12.07317612
12.06715454
12.10074392
12.1002642
12.10422946
12.11316421
12.12364609
12.14475844
12.13374643
12.15709686
12.16193053
12.16539117
12.19355274
12.18250147
12.18088703
12.19624299
12.19143646
12.23906329
12.22775415
12.22420768
12.22621947
12.22969886
12.26729709
12.27907192
12.27498208
12.27989537
12.26968411
12.32630148
12.31624434
12.31201503
12.32139104
12.31161653
12.35651215
12.34717886
12.35391294
12.35252643
12.3586998
12.40096486
12.39526051
12.3997794
12.380593
12.39203424
12.43355963
12.44131759
12.43903166
12.43923149
12.42550266
12.47352752
12.47845366
12.48749092
12.48557053
12.47307669
12.51484111
12.51451184
12.51971833
12.51889217
12.52023027
12.55233049
12.53826877
12.57258854
12.56010901
12.56066382
12.60728739
12.594706
12.59733521
12.60246521
12.59592703
12.65318601
12.64285575
12.63113067
12.63559199
12.65383611
12.67996942
12.68425396
12.67606116
12.6664296
12.6750752
12.72747696
12.71857895
12.73326691
12.72231716
12.72302361
12.76798562
12.7545237
12.7711596
12.77901791
12.77565782
12.80870224
12.8123253
12.81118362
12.8179914
12.81278439
12.87224894
12.86870369
12.85200498
12.86640565
12.87438967
12.91752453
12.90907542
12.91232084
12.9043901
12.92005882
12.96569882
12.95638515
12.96565108
12.97183373
12.96572147
13.03673055
13.03017105
13.03907384
13.0259586
13.02212069
)
;

boundaryField
{
    upperWall
    {
        type            calculated;
        value           nonuniform List<scalar> 5(13.03673055 13.03017105 13.03907384 13.0259586 13.02212069);
    }
    lowerWall
    {
        type            calculated;
        value           nonuniform List<scalar> 5(8.590667678 8.597689512 8.588373244 8.589248323 8.592730771);
    }
    periodicX_half0
    {
        type            cyclic;
    }
    periodicX_half1
    {
        type            cyclic;
    }
    frontAndBack
    {
        type            empty;
    }
}


// ************************************************************************* //
