/*--------------------------------*- C++ -*----------------------------------*\
| =========                 |                                                 |
| \\      /  F ield         | OpenFOAM: The Open Source CFD Toolbox           |
|  \\    /   O peration     | Version:  v1706                                 |
|   \\  /    A nd           | Web:      www.OpenFOAM.com                      |
|    \\/     M anipulation  |                                                 |
\*---------------------------------------------------------------------------*/
FoamFile
{
    version     2.0;
    format      ascii;
    class       volScalarField;
    location    "5";
    object      p_Mixture;
}
// * * * * * * * * * * * * * * * * * * * * * * * * * * * * * * * * * * * * * //

dimensions      [1 -1 -2 0 0 0 0];


internalField   nonuniform List<scalar> 
500
(
1.402543754
1.40100377
1.402137799
1.402010212
1.402640697
1.403529917
1.403254795
1.402982523
1.402203297
1.403014875
1.403790162
1.404079857
1.403696359
1.403498649
1.403549896
1.404179968
1.403828849
1.404098471
1.404906907
1.404217804
1.405068257
1.405382862
1.405438254
1.40482871
1.403917295
1.404812984
1.405757506
1.405824127
1.40506879
1.404635117
1.405842491
1.405689287
1.406528822
1.405827165
1.405966061
1.406503897
1.405837778
1.405554233
1.406439577
1.405760579
1.40474719
1.406378117
1.405560815
1.40636076
1.405399557
1.406005254
1.406662873
1.405878739
1.406605766
1.406640745
1.406244818
1.405409488
1.406510803
1.404842226
1.40568107
1.406001955
1.406494782
1.40694878
1.406070969
1.406081994
1.406044101
1.406541589
1.405740752
1.406642186
1.406481716
1.406299806
1.406810596
1.406143136
1.407684056
1.407389749
1.406356593
1.405926889
1.40680627
1.405724454
1.406325299
1.406198649
1.406494406
1.406634041
1.407750195
1.406781305
1.407701877
1.406528306
1.406982736
1.407525341
1.407280793
1.407502257
1.406754708
1.406880182
1.406889928
1.406884495
1.406713526
1.407481834
1.407271738
1.406934102
1.406877331
1.407657706
1.407393988
1.406714142
1.407500482
1.407370591
1.40787661
1.407248663
1.407580574
1.40701622
1.407093817
1.407183049
1.407701474
1.407300346
1.407732356
1.408665645
1.406632134
1.406609521
1.407396203
1.407595471
1.406877961
1.407545175
1.407342357
1.406827151
1.407046671
1.407582363
1.40719175
1.407041432
1.406122898
1.407416796
1.407074903
1.406869555
1.407379191
1.406875002
1.407448453
1.406848767
1.407525754
1.407495185
1.407486176
1.407724779
1.407252295
1.408116734
1.407082045
1.407799605
1.407276472
1.407031729
1.407724222
1.40747595
1.40826542
1.407522173
1.406094742
1.408724387
1.40881203
1.408166229
1.406676346
1.407662718
1.407206081
1.40749528
1.406983548
1.407005912
1.407017667
1.407928434
1.406851566
1.407718352
1.407500888
1.407556542
1.407212688
1.407014896
1.407411782
1.406425231
1.407690226
1.407798021
1.406569784
1.407262739
1.407690348
1.407067463
1.406588551
1.407110248
1.407209068
1.405743175
1.4061312
1.407796641
1.406883073
1.407213215
1.406620165
1.406584348
1.407332088
1.407087492
1.406877425
1.407168218
1.408124006
1.407061999
1.407830663
1.408083408
1.407914003
1.407823685
1.407772403
1.407849352
1.408047719
1.408019519
1.407631701
1.406631067
1.40700121
1.407120099
1.407664252
1.407490983
1.407603767
1.40739205
1.408942137
1.407062686
1.407233611
1.407223557
1.406773623
1.407333635
1.406781331
1.407615846
1.407572181
1.406171155
1.407208212
1.406816796
1.407051711
1.407754122
1.406868407
1.407819738
1.407279906
1.406760949
1.408254342
1.407252599
1.407831219
1.406813174
1.408154341
1.408746514
1.406678593
1.40699557
1.408647905
1.407719209
1.407579895
1.408031491
1.406698586
1.408345186
1.40702794
1.407530812
1.407086745
1.407706873
1.407603271
1.407278724
1.405954464
1.407196922
1.407299257
1.407300849
1.406822277
1.407365906
1.40705194
1.407339608
1.407730751
1.406927426
1.407298072
1.40727349
1.406372547
1.407123255
1.406753286
1.408193289
1.406409459
1.406908976
1.406376988
1.407534334
1.407472478
1.407041
1.406005129
1.407337194
1.407552145
1.406979496
1.406948416
1.406785042
1.407396207
1.406234209
1.407496587
1.40738577
1.406872609
1.406587928
1.407794116
1.407873636
1.407314121
1.406319059
1.407032627
1.407240939
1.407779609
1.40785392
1.407853848
1.406614616
1.40746208
1.407310711
1.40762445
1.407850108
1.4068471
1.40756589
1.408344283
1.407609217
1.4075883
1.406837131
1.409408376
1.406902744
1.407365921
1.407056794
1.408542176
1.407520288
1.407499623
1.406513647
1.407551371
1.407224484
1.406116304
1.40702821
1.407401986
1.407480041
1.407647261
1.408161603
1.408051048
1.408834911
1.407767663
1.407129301
1.407446929
1.408301194
1.407076895
1.406507172
1.407881619
1.407152782
1.408481907
1.407685248
1.40683685
1.407510824
1.40871561
1.408018309
1.406936602
1.407338172
1.408033263
1.406667429
1.407412232
1.408469967
1.40687194
1.407193943
1.407406956
1.408037135
1.407466661
1.407249232
1.407828018
1.407564857
1.40697184
1.407047857
1.408129294
1.406692917
1.407666289
1.407856584
1.407504205
1.407688454
1.407021603
1.408480359
1.407472665
1.407301192
1.408174019
1.407007727
1.406516668
1.40732653
1.40773233
1.407853158
1.407862631
1.406047907
1.407024469
1.40774691
1.408269749
1.408458783
1.407101862
1.408162251
1.407847686
1.407756708
1.407489322
1.408539533
1.408441389
1.407909497
1.407741893
1.407806036
1.408677642
1.407619533
1.407692533
1.408593362
1.408347115
1.408372732
1.407863985
1.407610482
1.406666395
1.409561696
1.407696864
1.408316318
1.408670503
1.40829066
1.408228497
1.408482552
1.408303677
1.408841974
1.408626441
1.407347779
1.407758872
1.409109185
1.408904068
1.408116263
1.407166466
1.407526837
1.407964809
1.408582663
1.407687891
1.40858626
1.407720012
1.407381194
1.407534903
1.408190092
1.407241538
1.408348599
1.408806964
1.407421123
1.408305852
1.408508657
1.40818132
1.408076699
1.407873003
1.40790386
1.408487258
1.407548227
1.40770302
1.408737504
1.407751981
1.408211274
1.407815668
1.407575921
1.408484897
1.407298862
1.408075979
1.408371972
1.409685719
1.407808962
1.4071185
1.408640077
1.409197768
1.408970651
1.409324658
1.407982938
1.407901221
1.408798023
1.409473441
1.408872174
1.408958153
1.408273314
1.408909749
1.409371303
1.408691359
1.408084698
1.408301849
1.408640657
1.408187774
1.409312995
1.409056724
1.409622154
1.409074284
1.409117079
1.408319371
1.409406643
1.409753423
1.408055103
1.409982735
1.408331863
1.409662413
1.40839208
1.410355037
1.409651735
1.410139118
1.408903379
1.409110193
1.409037754
1.410073179
1.410005404
1.409223114
1.409127631
1.409296833
1.410642343
1.41081818
1.409659926
1.408775815
1.410908339
1.409500923
1.409681693
1.411166615
1.410032806
1.410505471
1.410783571
1.410183935
1.411809083
1.41084937
1.409559932
1.411358751
1.410512952
1.410762068
1.411720908
1.41146454
1.411290773
1.410969912
1.412622056
1.412117896
1.412493928
)
;

boundaryField
{
    upperWall
    {
        type            calculated;
        value           nonuniform List<scalar> 5(1.407324526 1.405902276 1.40707663 1.406937461 1.407776919);
    }
    lowerWall
    {
        type            calculated;
        value           nonuniform List<scalar> 5(1.407343297 1.407084564 1.4054431 1.407313077 1.407870811);
    }
    periodicX_half0
    {
        type            cyclic;
    }
    periodicX_half1
    {
        type            cyclic;
    }
    frontAndBack
    {
        type            empty;
    }
}


// ************************************************************************* //
