/*--------------------------------*- C++ -*----------------------------------*\
| =========                 |                                                 |
| \\      /  F ield         | OpenFOAM: The Open Source CFD Toolbox           |
|  \\    /   O peration     | Version:  v1706                                 |
|   \\  /    A nd           | Web:      www.OpenFOAM.com                      |
|    \\/     M anipulation  |                                                 |
\*---------------------------------------------------------------------------*/
FoamFile
{
    version     2.0;
    format      ascii;
    class       volScalarField;
    location    "5";
    object      p_N2;
}
// * * * * * * * * * * * * * * * * * * * * * * * * * * * * * * * * * * * * * //

dimensions      [1 -1 -2 0 0 0 0];


internalField   nonuniform List<scalar> 
500
(
0.7006481224
0.7003171146
0.7004178761
0.7010254755
0.7010850204
0.7015500203
0.7008485257
0.7014475135
0.701289419
0.7012017425
0.7017491113
0.7018862829
0.7016204023
0.7011749065
0.7016235153
0.7016551318
0.7014387239
0.7018484091
0.701619652
0.7019682112
0.7023173691
0.7021283013
0.7026939494
0.7018228268
0.7020067146
0.7025481687
0.7026471661
0.70294928
0.7030539584
0.7027789751
0.7027038478
0.7030138183
0.702732774
0.7032653126
0.7027586161
0.7027906005
0.7031597001
0.7020042994
0.7034390201
0.7030766878
0.7030017092
0.7029006239
0.7017657642
0.7033330223
0.702678968
0.7032888146
0.7033914397
0.7028882451
0.7032996755
0.7031988454
0.7030237052
0.702435064
0.7028515332
0.7025916688
0.7025735739
0.7031103288
0.7028677976
0.7031212166
0.7026910648
0.7022071938
0.7025853262
0.7026295874
0.7017982473
0.7026698607
0.7033137851
0.7035644983
0.7031230598
0.7036007473
0.70403428
0.7032505509
0.7029424992
0.7028482357
0.7023554257
0.7028290215
0.7032870976
0.7023543897
0.7028762188
0.7028774866
0.7034408884
0.7029981176
0.7031809818
0.7033115196
0.7036601488
0.7040110683
0.7036005332
0.7034038069
0.7031679173
0.7031769048
0.7037114484
0.7030545668
0.7034654058
0.7037247774
0.7035296619
0.7029606038
0.7031834194
0.7034606674
0.703504085
0.7031977441
0.7034617578
0.702783817
0.7037131855
0.703363767
0.7038268528
0.7034998143
0.7030873488
0.7030282679
0.7029786846
0.7037176514
0.7037063613
0.7032373765
0.7030687563
0.7031531934
0.7031899635
0.7039614034
0.7031472068
0.7032620617
0.7032233243
0.7031827724
0.702974007
0.7032296705
0.7033932418
0.7032366876
0.703010324
0.7026880342
0.7032077044
0.7026224061
0.7040658481
0.703032408
0.7038686499
0.7026211223
0.7036744323
0.7036789104
0.703168424
0.7035692585
0.7036705321
0.704158663
0.7034820237
0.7032866975
0.7035499849
0.7036256048
0.703475761
0.7040550122
0.7040278895
0.7032513471
0.7027639031
0.7045905154
0.7042493795
0.7038820226
0.7034967197
0.7035513365
0.7035420329
0.703900825
0.7032857439
0.7030119598
0.7033644352
0.7045225719
0.702979705
0.7035860615
0.703366111
0.7033038426
0.7038154725
0.7035049457
0.7036190551
0.7028479287
0.7043370215
0.703590504
0.703186662
0.7037853187
0.7039165273
0.7030482057
0.7029270893
0.7035115723
0.7037030424
0.7024501677
0.7024396712
0.7041134191
0.7038034459
0.7035943333
0.7033018542
0.7033707008
0.7034427376
0.7034369813
0.7032912003
0.7036908242
0.7039692339
0.7036753311
0.7038256886
0.7045932974
0.7037011495
0.7036962878
0.7041167984
0.7038906179
0.7039739021
0.704070884
0.7040087505
0.7032929252
0.7032323613
0.703195681
0.7036703352
0.7039268877
0.7040800107
0.7038203294
0.704574339
0.7031186467
0.7032596756
0.703563572
0.7025224929
0.7033741004
0.7032075876
0.7038737641
0.7031053453
0.7024117362
0.703309346
0.7034784441
0.7027081194
0.7038818275
0.7029819356
0.703969309
0.702988754
0.7030112645
0.7037491836
0.7035599609
0.704007274
0.70372181
0.7035992507
0.7047487287
0.7029300752
0.7029276952
0.704635509
0.7035012268
0.7036639451
0.7046864678
0.7031862782
0.7038714104
0.7030607943
0.7037244327
0.7038367173
0.7035578272
0.7040698237
0.7035440413
0.7032112219
0.7036194541
0.7038286724
0.7039149965
0.7030444845
0.7033797807
0.7035402222
0.7031075457
0.704295622
0.7032732242
0.7029588261
0.7034652581
0.7027911343
0.7035815202
0.7031167343
0.7035484985
0.7026961791
0.7031652852
0.7026771479
0.7037707139
0.7031647946
0.7033850463
0.702710388
0.7032564346
0.703751301
0.7038786438
0.7031435041
0.7032922131
0.7037228642
0.7030812553
0.7034289331
0.7031847705
0.7034643392
0.7031610054
0.7031052738
0.7033881144
0.7029822175
0.7028342218
0.7026113984
0.7032245285
0.703662746
0.7032655444
0.7030490995
0.7026797628
0.7027271222
0.7028704211
0.7032849065
0.7036114793
0.7033826492
0.7032046224
0.7034835553
0.7035663798
0.7032691634
0.7025657927
0.7041037922
0.7033350085
0.703129612
0.7029785616
0.7036128591
0.7028531543
0.7027322734
0.7021543429
0.7029211377
0.7035502569
0.7027671826
0.7029691717
0.7030227883
0.703414551
0.7033255686
0.7036336209
0.7033496964
0.7035790983
0.7035411652
0.7031394833
0.7027809826
0.7036518987
0.7029081364
0.7026244234
0.7029868162
0.7026736374
0.7037540769
0.7033392438
0.7030736305
0.7025955682
0.7042005152
0.7035680254
0.7030667759
0.703117932
0.7031308346
0.7030097128
0.7031642111
0.7036771687
0.7029874274
0.7024295597
0.7034819027
0.7036936715
0.7029305059
0.7030611827
0.7027640951
0.7035470216
0.7023844415
0.7025446979
0.7040653253
0.7025228841
0.7032452663
0.7029204196
0.7032657879
0.7030438732
0.7033575197
0.7036050939
0.7029320143
0.7029730472
0.7033702756
0.702866624
0.7026363342
0.7032063744
0.7032654418
0.7033889316
0.7035788987
0.7018475952
0.7028968536
0.7031741355
0.7030584828
0.7034764298
0.7024073161
0.7042564469
0.7034309555
0.7036088162
0.7029106009
0.7034410523
0.7037150182
0.7031750418
0.7035006047
0.7033195927
0.7035278649
0.7030888865
0.7029793372
0.703944792
0.7034398368
0.7031875897
0.7036625194
0.7036089797
0.7025139992
0.7047491939
0.7033344034
0.7039031624
0.703755838
0.7038495627
0.7037930397
0.7036271797
0.7039698127
0.7037011633
0.7033352873
0.7034923032
0.7037262403
0.7038196905
0.7035833769
0.7038629125
0.7031965767
0.7036107708
0.7034360682
0.7033685834
0.702905319
0.7037308479
0.7022494164
0.7031209744
0.7032120468
0.7037265902
0.7029064881
0.7036545684
0.7040595866
0.7034592882
0.7038874145
0.7041307191
0.7033915426
0.7040348675
0.7029957161
0.7030497338
0.7040873147
0.7029509166
0.703507528
0.7039587417
0.7034582918
0.7037350935
0.7033825419
0.7030503003
0.7035419049
0.7028411696
0.7029560901
0.7035789612
0.7042068348
0.7033559291
0.7032832504
0.7038699399
0.7041858519
0.703945528
0.7040391764
0.7037828664
0.7040185409
0.7038279286
0.7038711842
0.703870016
0.7040646276
0.7034561491
0.7036532588
0.7044024196
0.7037502405
0.7033159566
0.7027898193
0.7035432565
0.7035797997
0.7041562783
0.7038391816
0.7039211885
0.7028104213
0.7038033871
0.7033437826
0.7036015299
0.7041041328
0.7033045581
0.7039013745
0.7033642367
0.7038363024
0.7028562914
0.7037834169
0.703906061
0.7037183427
0.7036982792
0.7033532205
0.7034530865
0.7036860933
0.7036739012
0.7035445794
0.7037421323
0.7030485763
0.7043738513
0.7044359696
0.7036867671
0.7031149334
0.7040626052
0.7033916817
0.7043470853
0.7042613774
0.7042003349
0.7047166778
0.7045350521
0.7035551761
0.7054401748
0.7041828582
0.7043656408
0.7050157318
0.7037461364
0.7044324657
0.7051073323
0.7053109695
0.7046131528
0.7042460032
0.705970892
0.7050782242
0.705350317
)
;

boundaryField
{
    upperWall
    {
        type            calculated;
        value           nonuniform List<scalar> 5(0.7028154434 0.7014640265 0.7028814416 0.702681442 0.7029473888);
    }
    lowerWall
    {
        type            calculated;
        value           nonuniform List<scalar> 5(0.7040671283 0.7030489381 0.7023596798 0.7030911815 0.7038772329);
    }
    periodicX_half0
    {
        type            cyclic;
    }
    periodicX_half1
    {
        type            cyclic;
    }
    frontAndBack
    {
        type            empty;
    }
}


// ************************************************************************* //
