/*--------------------------------*- C++ -*----------------------------------*\
| =========                 |                                                 |
| \\      /  F ield         | OpenFOAM: The Open Source CFD Toolbox           |
|  \\    /   O peration     | Version:  v1706                                 |
|   \\  /    A nd           | Web:      www.OpenFOAM.com                      |
|    \\/     M anipulation  |                                                 |
\*---------------------------------------------------------------------------*/
FoamFile
{
    version     2.0;
    format      ascii;
    class       volScalarField;
    location    "5";
    object      p_O2;
}
// * * * * * * * * * * * * * * * * * * * * * * * * * * * * * * * * * * * * * //

dimensions      [1 -1 -2 0 0 0 0];


internalField   nonuniform List<scalar> 
500
(
0.7018954826
0.7006865224
0.7017199011
0.7009844657
0.7015554155
0.7019793425
0.7024061242
0.7015348853
0.700913825
0.7018130695
0.7020409647
0.7021934732
0.7020758164
0.7023235706
0.7019263192
0.7025246876
0.7023899396
0.7022498176
0.7032870872
0.7022495136
0.7027508053
0.7032543913
0.7027442699
0.7030058192
0.7019103685
0.7022647159
0.7031102372
0.7028747096
0.7020148128
0.7018560928
0.7031383524
0.7026745852
0.7037959604
0.7025618362
0.7032071771
0.7037130996
0.7026778241
0.7035498732
0.7030005194
0.7026838523
0.7017454544
0.7034771458
0.7037946224
0.703027663
0.7027204832
0.7027162789
0.7032713406
0.7029904397
0.7033059893
0.7034418938
0.7032209149
0.7029744084
0.7036592044
0.7022504939
0.7031070294
0.7028913995
0.703626905
0.7038274285
0.7033797314
0.7038746958
0.7034585869
0.7039117621
0.7039423129
0.7039722298
0.703167921
0.7027352615
0.7036872422
0.7025423232
0.7036497266
0.7041391499
0.7034140232
0.7030784553
0.7044506945
0.7028952893
0.703038033
0.7038438745
0.7036171675
0.7037565401
0.7043091798
0.7037831135
0.7045208155
0.7032166802
0.703322475
0.7035142406
0.7036800679
0.704098372
0.7035866007
0.7037031131
0.7031782972
0.7038297872
0.7032477211
0.7037567856
0.7037420636
0.7039734158
0.7036938959
0.7041970168
0.7038898846
0.703516333
0.7040385099
0.704586674
0.7041633201
0.7038847478
0.7037534296
0.7035162976
0.7040064304
0.7041545733
0.704722747
0.7035825642
0.7040257034
0.7054281839
0.7035632704
0.7034560696
0.7042061112
0.703634066
0.7037304982
0.7042830518
0.7041189442
0.7036441173
0.7040726161
0.7043526344
0.703798427
0.7038046874
0.7031124756
0.7047287381
0.7038667972
0.7042471426
0.703313311
0.7038422169
0.7035796983
0.7042272981
0.7038512136
0.7038161297
0.704317605
0.7041553459
0.703581747
0.7039578043
0.7035997129
0.7045127611
0.7037262845
0.7034059614
0.7042484333
0.7034207944
0.7042374539
0.7042707846
0.7033307991
0.7041336842
0.7045626053
0.7042841786
0.7031795272
0.7041113551
0.7036638307
0.70359435
0.703697482
0.7039937024
0.7036531268
0.7034056717
0.7038716777
0.7041321994
0.7041345411
0.7042526783
0.7033971775
0.7035099321
0.7037924624
0.7035771061
0.7033531668
0.7042073276
0.7033830014
0.7034772555
0.7037735845
0.7040192394
0.703661389
0.7035985936
0.7035059785
0.7032927114
0.7036910567
0.7036830121
0.7030793174
0.7036188799
0.7033181462
0.7032135444
0.7038893069
0.7036502066
0.703585961
0.7034773886
0.7041544978
0.7033864629
0.7040049409
0.7034898774
0.7042127835
0.7041271227
0.7036555089
0.7039587133
0.7040738049
0.7039486058
0.7036228011
0.7033380431
0.7037685201
0.7039243481
0.7039937844
0.7035638485
0.7035235643
0.7035716909
0.7043677149
0.7039438659
0.7039739296
0.7036595826
0.7042511009
0.7039590864
0.7035735852
0.7037419517
0.7044667327
0.7037593733
0.703898805
0.7033381096
0.7043433404
0.7038721193
0.7038862113
0.7038503497
0.7042908828
0.7037496664
0.7045051098
0.7036925102
0.7038238154
0.7030912873
0.7045550442
0.7039976284
0.7037482372
0.7040678665
0.7040122977
0.704217865
0.7039157837
0.7033441926
0.7035119968
0.7044731965
0.7039668882
0.7038058813
0.7032498806
0.7041487878
0.7035332274
0.7037345812
0.7027431093
0.7035772301
0.7034704029
0.7033856913
0.7037776321
0.7039860521
0.7035116767
0.7042314844
0.7034349379
0.7036540508
0.7043391764
0.7038081153
0.703580691
0.7035413341
0.7036360306
0.704644589
0.7037131553
0.7037434961
0.7036992338
0.7037633084
0.704307543
0.7036558117
0.703294713
0.7040807533
0.7038006339
0.7031004995
0.7038043434
0.7034927394
0.7036733183
0.7031528759
0.7040676352
0.7042009081
0.703407956
0.7034268932
0.7046887285
0.7044853383
0.704331756
0.7034847674
0.7044211372
0.7040163077
0.7041168467
0.7045883125
0.7048043675
0.7039346644
0.7047348575
0.7044402765
0.7043394004
0.7042385884
0.7034641635
0.7043606999
0.704860432
0.704042731
0.7043189249
0.7042711376
0.7053045342
0.7035676158
0.7042362385
0.7040779834
0.704929301
0.7046669373
0.704767094
0.7043589402
0.7046302233
0.7036741024
0.7033482282
0.7040590069
0.704378813
0.7040652976
0.7043216059
0.7045278277
0.7047012107
0.7052557791
0.7042261545
0.7039896908
0.7046656514
0.7046492515
0.704168616
0.7038827168
0.7048945125
0.704478952
0.7047274713
0.7043459115
0.7037631161
0.7049150992
0.7045145571
0.7044502465
0.7038697629
0.7042201401
0.7049023593
0.7036575133
0.7042479879
0.7047925837
0.7038841457
0.7047641692
0.7039249409
0.7043432386
0.7045354342
0.7041877982
0.7050635053
0.704017779
0.7045872525
0.7045029536
0.7040635914
0.704169976
0.7044209703
0.704936085
0.7042381879
0.7046441967
0.7036640632
0.704875255
0.704540499
0.7043280884
0.7048037141
0.7041410078
0.703880115
0.704120141
0.7044668422
0.7044640567
0.7042832612
0.7042000638
0.7041274942
0.7045726649
0.7052109892
0.7049821174
0.7046944706
0.7039052416
0.7044166256
0.704147724
0.704578323
0.7050983747
0.7047263213
0.7047343095
0.7042411567
0.7044863142
0.7051496792
0.7045301649
0.7047130648
0.7046484437
0.7049071342
0.7051850239
0.7042013692
0.704001327
0.7041522446
0.7048123849
0.704362311
0.7044129691
0.7049145224
0.7044410221
0.7044352125
0.7048550384
0.704333503
0.7051407845
0.7052910911
0.7038553701
0.7040324579
0.7052891354
0.7053206618
0.7042533153
0.7039692842
0.7039158226
0.7045286896
0.7052138891
0.7047823179
0.7048550564
0.7054703663
0.7042600015
0.7043226959
0.7044633703
0.704334723
0.7046937537
0.7047469564
0.7039612616
0.7044183259
0.7043773012
0.7047896583
0.7040417009
0.704877026
0.7048538848
0.7043993208
0.7045969088
0.7041952733
0.7047784779
0.7042929627
0.7044761108
0.7044328221
0.7045254801
0.704942679
0.7044573996
0.7051197408
0.7047926071
0.7054786479
0.7044529022
0.7038347622
0.7047700857
0.7050115834
0.7050251058
0.7052854406
0.7042000654
0.7038824112
0.7049697667
0.7056022254
0.7050020823
0.7048933563
0.7048170502
0.7052563336
0.7049683916
0.7049408046
0.7047686139
0.7055116786
0.7050971909
0.7046078828
0.7051566085
0.705217509
0.7057007753
0.7062637983
0.7053134706
0.7049755785
0.7058050858
0.7056490915
0.7047505379
0.7060807347
0.7049673874
0.7058258979
0.7055356516
0.7065715397
0.7057452116
0.7064207113
0.7052050228
0.7057568651
0.7055845833
0.7063869806
0.7063312434
0.7056782765
0.7053851954
0.7062481628
0.7062682537
0.706382063
0.7059726399
0.7056603732
0.7068456661
0.7061089496
0.7053343446
0.706904968
0.7058321409
0.7057885533
0.7062483547
0.7066280374
0.7063688447
0.7066656523
0.7051939532
0.7063428712
0.7067662465
0.706329364
0.7066132661
0.7061530668
0.7066773467
0.7067238705
0.7066510146
0.7070395909
0.7071434523
)
;

boundaryField
{
    upperWall
    {
        type            calculated;
        value           nonuniform List<scalar> 5(0.7045090821 0.7044382499 0.7041951882 0.7042560187 0.70482953);
    }
    lowerWall
    {
        type            calculated;
        value           nonuniform List<scalar> 5(0.7032761689 0.7040356258 0.7030834203 0.7042218954 0.7039935785);
    }
    periodicX_half0
    {
        type            cyclic;
    }
    periodicX_half1
    {
        type            cyclic;
    }
    frontAndBack
    {
        type            empty;
    }
}


// ************************************************************************* //
