/*--------------------------------*- C++ -*----------------------------------*\
| =========                 |                                                 |
| \\      /  F ield         | OpenFOAM: The Open Source CFD Toolbox           |
|  \\    /   O peration     | Version:  v1706                                 |
|   \\  /    A nd           | Web:      www.OpenFOAM.com                      |
|    \\/     M anipulation  |                                                 |
\*---------------------------------------------------------------------------*/
FoamFile
{
    version     2.0;
    format      ascii;
    class       volScalarField;
    location    "5";
    object      rhoM_Mixture;
}
// * * * * * * * * * * * * * * * * * * * * * * * * * * * * * * * * * * * * * //

dimensions      [1 -3 0 0 0 0 0];


internalField   nonuniform List<scalar> 
500
(
2.278821387e-06
2.276766728e-06
2.277797853e-06
2.278307423e-06
2.278571296e-06
2.264146338e-06
2.26327941e-06
2.263819542e-06
2.261451072e-06
2.26161387e-06
2.250777873e-06
2.251798411e-06
2.25050521e-06
2.250251125e-06
2.250019012e-06
2.238178657e-06
2.237849464e-06
2.238629499e-06
2.238920539e-06
2.239194001e-06
2.228853391e-06
2.228436107e-06
2.228049186e-06
2.227763539e-06
2.227673251e-06
2.217896943e-06
2.218407511e-06
2.218933461e-06
2.21894225e-06
2.217444702e-06
2.207640828e-06
2.208163981e-06
2.20945019e-06
2.208247678e-06
2.209000546e-06
2.198468373e-06
2.19743585e-06
2.198409846e-06
2.19896456e-06
2.197333577e-06
2.186560102e-06
2.188236629e-06
2.188142146e-06
2.189215019e-06
2.187850307e-06
2.179093338e-06
2.17968161e-06
2.179116909e-06
2.179745931e-06
2.179518013e-06
2.169040172e-06
2.168974853e-06
2.169125467e-06
2.167677857e-06
2.169549742e-06
2.159638002e-06
2.160658939e-06
2.16140162e-06
2.160288797e-06
2.160508924e-06
2.151867013e-06
2.151752555e-06
2.151423162e-06
2.152318055e-06
2.151930335e-06
2.14195747e-06
2.142348387e-06
2.141647054e-06
2.143802788e-06
2.144258224e-06
2.133729447e-06
2.133399455e-06
2.135609122e-06
2.132820172e-06
2.134079414e-06
2.123923975e-06
2.124711202e-06
2.125966649e-06
2.12646663e-06
2.126633824e-06
2.117174124e-06
2.115817402e-06
2.117826717e-06
2.118499684e-06
2.117254624e-06
2.108819058e-06
2.108223994e-06
2.108007862e-06
2.108129112e-06
2.108674038e-06
2.100283615e-06
2.101154938e-06
2.100488961e-06
2.100133601e-06
2.099297435e-06
2.093085718e-06
2.092657648e-06
2.092104732e-06
2.092648859e-06
2.092263535e-06
2.085195877e-06
2.08443382e-06
2.084825136e-06
2.084388476e-06
2.08369753e-06
2.075658673e-06
2.076546176e-06
2.076418933e-06
2.075882596e-06
2.076856791e-06
2.068667121e-06
2.068322747e-06
2.068980933e-06
2.068706073e-06
2.068501925e-06
2.060884547e-06
2.060821825e-06
2.060733534e-06
2.060201592e-06
2.060829815e-06
2.052027302e-06
2.052132772e-06
2.051702304e-06
2.052493725e-06
2.052997902e-06
2.044574121e-06
2.045659179e-06
2.044491423e-06
2.044151444e-06
2.044990007e-06
2.038489647e-06
2.037089778e-06
2.038038605e-06
2.038275512e-06
2.036688075e-06
2.030121397e-06
2.029307404e-06
2.029948811e-06
2.029728483e-06
2.030282798e-06
2.023061729e-06
2.022902726e-06
2.023271869e-06
2.023388125e-06
2.021432145e-06
2.016918527e-06
2.017452267e-06
2.01665006e-06
2.014010724e-06
2.015572193e-06
2.007305218e-06
2.008230473e-06
2.007826373e-06
2.007995964e-06
2.008397866e-06
2.001157022e-06
2.000789677e-06
2.00098883e-06
2.0006089e-06
2.002315789e-06
1.993531454e-06
1.992761806e-06
1.994548996e-06
1.99254028e-06
1.994324873e-06
1.986825748e-06
1.985780641e-06
1.986273631e-06
1.986427841e-06
1.986005962e-06
1.978381593e-06
1.979388547e-06
1.979769077e-06
1.977757964e-06
1.977829276e-06
1.973189215e-06
1.972660469e-06
1.972435547e-06
1.970845913e-06
1.970455396e-06
1.965513509e-06
1.964771826e-06
1.964381509e-06
1.965680303e-06
1.965966149e-06
1.958348971e-06
1.958636615e-06
1.959154175e-06
1.959887667e-06
1.959879677e-06
1.952267692e-06
1.952091111e-06
1.952464049e-06
1.953149801e-06
1.952539157e-06
1.945269348e-06
1.945703811e-06
1.946041793e-06
1.945739567e-06
1.945422759e-06
1.938945171e-06
1.939524454e-06
1.940517825e-06
1.938987918e-06
1.939045047e-06
1.932373898e-06
1.932731256e-06
1.932805565e-06
1.9324534e-06
1.933098003e-06
1.925679978e-06
1.926831953e-06
1.926579266e-06
1.925573709e-06
1.925936061e-06
1.919720149e-06
1.919758103e-06
1.921090455e-06
1.919269307e-06
1.919130479e-06
1.91364027e-06
1.914066343e-06
1.91421396e-06
1.912726999e-06
1.913786688e-06
1.908616284e-06
1.906689866e-06
1.907233594e-06
1.908203994e-06
1.907425357e-06
1.901065024e-06
1.900913811e-06
1.900454379e-06
1.901276762e-06
1.900827517e-06
1.894112423e-06
1.895211464e-06
1.895577211e-06
1.894764217e-06
1.895106194e-06
1.887058947e-06
1.888362735e-06
1.888943816e-06
1.889062669e-06
1.888255467e-06
1.882910478e-06
1.881188209e-06
1.882668977e-06
1.883284416e-06
1.881854584e-06
1.876213362e-06
1.876613267e-06
1.877059316e-06
1.876954845e-06
1.876456062e-06
1.871844166e-06
1.870371388e-06
1.871304833e-06
1.870782279e-06
1.871095492e-06
1.86513047e-06
1.864200021e-06
1.863658091e-06
1.86517861e-06
1.865560538e-06
1.859027419e-06
1.858041238e-06
1.858187058e-06
1.858651284e-06
1.858092175e-06
1.853724977e-06
1.853263947e-06
1.852957526e-06
1.851068862e-06
1.853444125e-06
1.847825874e-06
1.848409751e-06
1.847611539e-06
1.847985876e-06
1.846936374e-06
1.842303504e-06
1.842713996e-06
1.842130318e-06
1.841579599e-06
1.841866445e-06
1.837063385e-06
1.836729798e-06
1.837097743e-06
1.835880449e-06
1.836996268e-06
1.832374185e-06
1.831468306e-06
1.831988462e-06
1.831054018e-06
1.832422126e-06
1.825115164e-06
1.825827083e-06
1.825063228e-06
1.825253393e-06
1.825488702e-06
1.820117545e-06
1.81933791e-06
1.81948273e-06
1.819220255e-06
1.818412254e-06
1.813769197e-06
1.814618946e-06
1.814189078e-06
1.813996117e-06
1.815326471e-06
1.809201247e-06
1.810001058e-06
1.808788957e-06
1.808931581e-06
1.808529079e-06
1.804788106e-06
1.803273379e-06
1.802110418e-06
1.803899006e-06
1.802615393e-06
1.798355462e-06
1.7978399e-06
1.797336123e-06
1.797969939e-06
1.798664879e-06
1.793472702e-06
1.792739009e-06
1.793505661e-06
1.793754153e-06
1.792772967e-06
1.787583586e-06
1.788400575e-06
1.787260385e-06
1.787239811e-06
1.787576994e-06
1.782565393e-06
1.782555005e-06
1.782598352e-06
1.78250267e-06
1.783006647e-06
1.776488709e-06
1.777188643e-06
1.777740161e-06
1.776234423e-06
1.776976905e-06
1.772713778e-06
1.771536034e-06
1.773273086e-06
1.771910571e-06
1.773025792e-06
1.767304668e-06
1.767576532e-06
1.767876161e-06
1.767184816e-06
1.766853027e-06
1.762715344e-06
1.763154601e-06
1.76238735e-06
1.763263267e-06
1.761678827e-06
1.757840374e-06
1.758418259e-06
1.758459209e-06
1.758243875e-06
1.757357971e-06
1.753870285e-06
1.753504138e-06
1.752720906e-06
1.752969199e-06
1.753719871e-06
1.748878858e-06
1.747961593e-06
1.748287989e-06
1.748641752e-06
1.749010296e-06
1.742224689e-06
1.743693672e-06
1.743180307e-06
1.744219422e-06
1.743358087e-06
1.738643918e-06
1.738168905e-06
1.737756016e-06
1.738977705e-06
1.738551832e-06
1.734497846e-06
1.734738748e-06
1.733172885e-06
1.73353244e-06
1.733846052e-06
1.729841006e-06
1.729796061e-06
1.728847435e-06
1.728130322e-06
1.727974514e-06
1.724617267e-06
1.725394306e-06
1.723985648e-06
1.7230544e-06
1.723423943e-06
1.719749088e-06
1.720553294e-06
1.7199822e-06
1.719541145e-06
1.719289057e-06
1.714008389e-06
1.714595662e-06
1.715570457e-06
1.713998201e-06
1.714732094e-06
1.710747222e-06
1.709525334e-06
1.710375482e-06
1.710186516e-06
1.709465208e-06
1.705139958e-06
1.70517831e-06
1.705143354e-06
1.705350697e-06
1.704934812e-06
1.700629537e-06
1.701728378e-06
1.700889415e-06
1.701426351e-06
1.700964522e-06
1.695764155e-06
1.696535401e-06
1.695348868e-06
1.696819849e-06
1.696773107e-06
1.692817399e-06
1.691580929e-06
1.691008637e-06
1.691923705e-06
1.693056703e-06
1.688258838e-06
1.687531338e-06
1.686517991e-06
1.686934875e-06
1.688242058e-06
1.683209483e-06
1.682494767e-06
1.683096023e-06
1.682315988e-06
1.682577864e-06
1.679154898e-06
1.678994497e-06
1.676907678e-06
1.677298994e-06
1.678461356e-06
1.673310127e-06
1.673762967e-06
1.673755177e-06
1.673807312e-06
1.674172461e-06
1.669203007e-06
1.668981481e-06
1.669920919e-06
1.670168813e-06
1.668515658e-06
1.665882714e-06
1.664297075e-06
1.664878556e-06
1.665179184e-06
1.666095851e-06
1.660514554e-06
1.66078442e-06
1.65928847e-06
1.660179568e-06
1.660011776e-06
1.655878888e-06
1.656643342e-06
1.655258455e-06
1.654685763e-06
1.654739497e-06
1.651381251e-06
1.65128497e-06
1.650995128e-06
1.649835163e-06
1.650760019e-06
1.644987359e-06
1.64573883e-06
1.646925162e-06
1.646159709e-06
1.645880854e-06
1.641396401e-06
1.640773771e-06
1.641703621e-06
1.64159116e-06
1.640787753e-06
1.636223998e-06
1.635420192e-06
1.635352676e-06
1.635831084e-06
1.636906754e-06
1.628637981e-06
1.62852532e-06
1.629774575e-06
1.629845488e-06
1.630205043e-06
)
;

boundaryField
{
    upperWall
    {
        type            calculated;
        value           nonuniform List<scalar> 5(1.625930907e-06 1.624071583e-06 1.627342731e-06 1.624254944e-06 1.625849148e-06);
    }
    lowerWall
    {
        type            calculated;
        value           nonuniform List<scalar> 5(2.284026857e-06 2.285641495e-06 2.285558925e-06 2.291715083e-06 2.289105115e-06);
    }
    periodicX_half0
    {
        type            cyclic;
    }
    periodicX_half1
    {
        type            cyclic;
    }
    frontAndBack
    {
        type            empty;
    }
}


// ************************************************************************* //
