/*--------------------------------*- C++ -*----------------------------------*\
| =========                 |                                                 |
| \\      /  F ield         | OpenFOAM: The Open Source CFD Toolbox           |
|  \\    /   O peration     | Version:  v1706                                 |
|   \\  /    A nd           | Web:      www.OpenFOAM.com                      |
|    \\/     M anipulation  |                                                 |
\*---------------------------------------------------------------------------*/
FoamFile
{
    version     2.0;
    format      ascii;
    class       volScalarField;
    location    "5";
    object      rhoN_O2;
}
// * * * * * * * * * * * * * * * * * * * * * * * * * * * * * * * * * * * * * //

dimensions      [0 -3 0 0 0 0 0];


internalField   nonuniform List<scalar> 
500
(
2.451257997e+19
2.448826166e+19
2.451667383e+19
2.450968463e+19
2.450553492e+19
2.434959876e+19
2.435556557e+19
2.434610631e+19
2.432080427e+19
2.432790087e+19
2.421167473e+19
2.422536103e+19
2.420859467e+19
2.421896894e+19
2.420378771e+19
2.40777114e+19
2.408070554e+19
2.407262951e+19
2.410033288e+19
2.408126829e+19
2.396128766e+19
2.397672233e+19
2.396794179e+19
2.396856897e+19
2.394841755e+19
2.384128125e+19
2.384758313e+19
2.384897496e+19
2.385088657e+19
2.383134945e+19
2.374378893e+19
2.37331784e+19
2.376504007e+19
2.374074324e+19
2.375651298e+19
2.364645556e+19
2.362853364e+19
2.365539504e+19
2.363473242e+19
2.361146228e+19
2.349343622e+19
2.353194773e+19
2.355566463e+19
2.352647493e+19
2.352459768e+19
2.34254472e+19
2.343753547e+19
2.342587677e+19
2.343457999e+19
2.342555459e+19
2.332597883e+19
2.333041205e+19
2.333015001e+19
2.329562927e+19
2.333407634e+19
2.321822823e+19
2.324356034e+19
2.324618935e+19
2.323840972e+19
2.324786469e+19
2.314660929e+19
2.315304004e+19
2.315813482e+19
2.31608927e+19
2.313780727e+19
2.302348845e+19
2.303628553e+19
2.3019386e+19
2.303676665e+19
2.305082239e+19
2.295643591e+19
2.294141363e+19
2.299188883e+19
2.29355628e+19
2.295026719e+19
2.285272762e+19
2.285482825e+19
2.287618678e+19
2.286954123e+19
2.28742408e+19
2.277281786e+19
2.274642899e+19
2.277259448e+19
2.277483257e+19
2.277829066e+19
2.268202263e+19
2.26698871e+19
2.266528634e+19
2.26460714e+19
2.266585338e+19
2.258284638e+19
2.259773549e+19
2.258245117e+19
2.260006809e+19
2.258244687e+19
2.251880945e+19
2.250637752e+19
2.249738649e+19
2.250627871e+19
2.251807488e+19
2.241836595e+19
2.240629056e+19
2.241455131e+19
2.240914724e+19
2.242401058e+19
2.23303329e+19
2.235340543e+19
2.23219175e+19
2.231561132e+19
2.234828489e+19
2.225343017e+19
2.223960211e+19
2.225784191e+19
2.224839124e+19
2.225680663e+19
2.217073245e+19
2.217653173e+19
2.216258769e+19
2.215764327e+19
2.2162781e+19
2.206769431e+19
2.206738072e+19
2.207375992e+19
2.209159163e+19
2.20822956e+19
2.198875538e+19
2.198488061e+19
2.198871672e+19
2.198716166e+19
2.20131725e+19
2.192806056e+19
2.190780175e+19
2.193134682e+19
2.192345121e+19
2.190168459e+19
2.183937026e+19
2.182061067e+19
2.184858038e+19
2.18303105e+19
2.18253403e+19
2.176431901e+19
2.174464012e+19
2.175492417e+19
2.177160032e+19
2.174108752e+19
2.169284612e+19
2.169371816e+19
2.16791813e+19
2.165234138e+19
2.168289284e+19
2.157625055e+19
2.158578714e+19
2.158889297e+19
2.159974836e+19
2.159424549e+19
2.150936983e+19
2.151512185e+19
2.152992935e+19
2.152607175e+19
2.154134319e+19
2.144489474e+19
2.142961042e+19
2.145434112e+19
2.143522068e+19
2.143397062e+19
2.137239946e+19
2.136228294e+19
2.136388955e+19
2.13632323e+19
2.135882915e+19
2.128812091e+19
2.129157899e+19
2.129946172e+19
2.127593383e+19
2.127430573e+19
2.121578887e+19
2.121413929e+19
2.120869227e+19
2.11969047e+19
2.11931459e+19
2.113797114e+19
2.113081869e+19
2.112936673e+19
2.113331453e+19
2.113807853e+19
2.106175573e+19
2.106142496e+19
2.105764468e+19
2.108066997e+19
2.108729833e+19
2.098680327e+19
2.099765866e+19
2.099903331e+19
2.100455336e+19
2.098902848e+19
2.091901185e+19
2.092893936e+19
2.093491906e+19
2.092649937e+19
2.092270191e+19
2.083835892e+19
2.085800344e+19
2.085558923e+19
2.085065339e+19
2.086063245e+19
2.077681784e+19
2.080417755e+19
2.078513873e+19
2.078483803e+19
2.079015188e+19
2.072928523e+19
2.073008854e+19
2.071785421e+19
2.070198137e+19
2.07309434e+19
2.063258333e+19
2.064916927e+19
2.065757608e+19
2.065091765e+19
2.063926754e+19
2.057556139e+19
2.0574539e+19
2.057816462e+19
2.055660849e+19
2.058308327e+19
2.05156484e+19
2.050848307e+19
2.052819202e+19
2.050261076e+19
2.052320035e+19
2.04547302e+19
2.042841866e+19
2.044208777e+19
2.044889655e+19
2.045552491e+19
2.037277136e+19
2.036753482e+19
2.039271228e+19
2.036002153e+19
2.038271605e+19
2.028137472e+19
2.030955492e+19
2.030537515e+19
2.029790052e+19
2.030451599e+19
2.025505459e+19
2.023095107e+19
2.024417343e+19
2.02430823e+19
2.024668215e+19
2.018536015e+19
2.0182976e+19
2.019367674e+19
2.018088397e+19
2.018521839e+19
2.014125986e+19
2.012846708e+19
2.012554596e+19
2.011976816e+19
2.011830331e+19
2.007247612e+19
2.004621183e+19
2.004711823e+19
2.00577932e+19
2.005611786e+19
1.999447367e+19
1.998549553e+19
1.997485063e+19
1.998920707e+19
1.996407256e+19
1.99355573e+19
1.994056186e+19
1.992548803e+19
1.99105173e+19
1.993996045e+19
1.98843604e+19
1.987762465e+19
1.987974676e+19
1.98979479e+19
1.98809238e+19
1.982386319e+19
1.983827977e+19
1.98294262e+19
1.981628976e+19
1.982635044e+19
1.976563843e+19
1.976199992e+19
1.975822824e+19
1.974720102e+19
1.977334932e+19
1.971809723e+19
1.969181576e+19
1.970694973e+19
1.970026123e+19
1.971870723e+19
1.962685095e+19
1.963476804e+19
1.963948479e+19
1.9636336e+19
1.964518527e+19
1.959340845e+19
1.95920424e+19
1.957735948e+19
1.955932158e+19
1.955832066e+19
1.951566375e+19
1.952874864e+19
1.951197798e+19
1.952357225e+19
1.952632583e+19
1.946613791e+19
1.948186469e+19
1.946164454e+19
1.946287742e+19
1.946001215e+19
1.941774615e+19
1.940997941e+19
1.939856987e+19
1.942269057e+19
1.941052497e+19
1.934204194e+19
1.934189158e+19
1.933098894e+19
1.935215416e+19
1.934989459e+19
1.929203068e+19
1.928879597e+19
1.928747717e+19
1.930729352e+19
1.928035479e+19
1.922975501e+19
1.924469567e+19
1.92263227e+19
1.923539965e+19
1.922191955e+19
1.917907362e+19
1.918260903e+19
1.917734242e+19
1.919518702e+19
1.918118283e+19
1.913485304e+19
1.913692789e+19
1.911872246e+19
1.912375279e+19
1.912514462e+19
1.908200658e+19
1.90635348e+19
1.908817529e+19
1.906574712e+19
1.907145189e+19
1.90222826e+19
1.901089883e+19
1.902120866e+19
1.901412924e+19
1.901686135e+19
1.896151046e+19
1.897081078e+19
1.895525153e+19
1.897306176e+19
1.897091817e+19
1.891688608e+19
1.892563655e+19
1.893211026e+19
1.892869943e+19
1.892135367e+19
1.886494173e+19
1.886778123e+19
1.886630348e+19
1.887294044e+19
1.887613219e+19
1.882139988e+19
1.882247382e+19
1.881071632e+19
1.882718627e+19
1.882517586e+19
1.87526591e+19
1.877897494e+19
1.876085541e+19
1.876891426e+19
1.876184344e+19
1.870154812e+19
1.870475276e+19
1.869714497e+19
1.870093813e+19
1.870761374e+19
1.865691516e+19
1.866725076e+19
1.864753321e+19
1.864246851e+19
1.865212109e+19
1.860769002e+19
1.861241106e+19
1.860826136e+19
1.858985831e+19
1.857780011e+19
1.855815559e+19
1.857189773e+19
1.853769058e+19
1.853030187e+19
1.852577843e+19
1.849438071e+19
1.851139193e+19
1.851117714e+19
1.849274832e+19
1.850175224e+19
1.843753919e+19
1.845160781e+19
1.845663814e+19
1.84535366e+19
1.845112239e+19
1.840577203e+19
1.838756659e+19
1.839481783e+19
1.838867489e+19
1.840310006e+19
1.833113316e+19
1.83474141e+19
1.835238e+19
1.833882687e+19
1.835156381e+19
1.829575327e+19
1.830983907e+19
1.829934882e+19
1.830192628e+19
1.829433567e+19
1.824450053e+19
1.825336269e+19
1.824556588e+19
1.827168841e+19
1.825644275e+19
1.821068429e+19
1.819640088e+19
1.819600567e+19
1.820044749e+19
1.82178711e+19
1.816135176e+19
1.815686699e+19
1.814086098e+19
1.814152682e+19
1.816160521e+19
1.811585535e+19
1.811325641e+19
1.810664094e+19
1.810722516e+19
1.810784805e+19
1.806906591e+19
1.808526952e+19
1.804459295e+19
1.806273396e+19
1.806003622e+19
1.800373596e+19
1.802095338e+19
1.801822127e+19
1.801469445e+19
1.802501717e+19
1.795452801e+19
1.796469178e+19
1.798223138e+19
1.797634189e+19
1.795100978e+19
1.792770957e+19
1.791735248e+19
1.79309142e+19
1.794048087e+19
1.793570398e+19
1.787207945e+19
1.788547363e+19
1.786287793e+19
1.787798183e+19
1.787633655e+19
1.782947408e+19
1.784437608e+19
1.782243762e+19
1.781216646e+19
1.782016087e+19
1.778317436e+19
1.777967331e+19
1.777895592e+19
1.776981884e+19
1.778141739e+19
1.77115683e+19
1.771174013e+19
1.773793139e+19
1.771671033e+19
1.770763768e+19
1.766216275e+19
1.767332313e+19
1.766848611e+19
1.767867995e+19
1.765426284e+19
1.760967713e+19
1.762192864e+19
1.760966424e+19
1.760426447e+19
1.760873635e+19
1.753386552e+19
1.754120698e+19
1.753119785e+19
1.754729837e+19
1.755196786e+19
)
;

boundaryField
{
    upperWall
    {
        type            calculated;
        value           nonuniform List<scalar> 5(1.750754029e+19 1.748380788e+19 1.752710969e+19 1.750201691e+19 1.750446869e+19);
    }
    lowerWall
    {
        type            calculated;
        value           nonuniform List<scalar> 5(2.45428781e+19 2.459070086e+19 2.4556869e+19 2.470545376e+19 2.462605505e+19);
    }
    periodicX_half0
    {
        type            cyclic;
    }
    periodicX_half1
    {
        type            cyclic;
    }
    frontAndBack
    {
        type            empty;
    }
}


// ************************************************************************* //
