/*--------------------------------*- C++ -*----------------------------------*\
| =========                 |                                                 |
| \\      /  F ield         | OpenFOAM: The Open Source CFD Toolbox           |
|  \\    /   O peration     | Version:  v1706                                 |
|   \\  /    A nd           | Web:      www.OpenFOAM.com                      |
|    \\/     M anipulation  |                                                 |
\*---------------------------------------------------------------------------*/
FoamFile
{
    version     2.0;
    format      ascii;
    class       volScalarField;
    location    "5";
    object      rhoN_N2;
}
// * * * * * * * * * * * * * * * * * * * * * * * * * * * * * * * * * * * * * //

dimensions      [0 -3 0 0 0 0 0];


internalField   nonuniform List<scalar> 
500
(
2.449433157e+19
2.447446367e+19
2.446822623e+19
2.448617392e+19
2.449599833e+19
2.434172033e+19
2.431710991e+19
2.433818492e+19
2.431255211e+19
2.430895656e+19
2.419215049e+19
2.420041124e+19
2.418936684e+19
2.417352837e+19
2.418371791e+19
2.405516294e+19
2.404508938e+19
2.406994036e+19
2.404849592e+19
2.407344141e+19
2.397104333e+19
2.394663481e+19
2.394709446e+19
2.394032434e+19
2.395853407e+19
2.385542719e+19
2.386010528e+19
2.387002419e+19
2.386830159e+19
2.385563339e+19
2.373235791e+19
2.375421904e+19
2.375001779e+19
2.374845413e+19
2.374887511e+19
2.363243419e+19
2.362815132e+19
2.362223605e+19
2.3654828e+19
2.364302324e+19
2.352936168e+19
2.35269045e+19
2.35011557e+19
2.355341794e+19
2.352594655e+19
2.343677512e+19
2.343733787e+19
2.343685244e+19
2.344167658e+19
2.344580052e+19
2.332004638e+19
2.331420844e+19
2.331770949e+19
2.332109884e+19
2.332290736e+19
2.322559976e+19
2.322222329e+19
2.323556593e+19
2.321941386e+19
2.321469282e+19
2.313010067e+19
2.312120845e+19
2.310902996e+19
2.31255171e+19
2.314026445e+19
2.304011305e+19
2.303572278e+19
2.303753989e+19
2.30665191e+19
2.306225771e+19
2.293021887e+19
2.293814455e+19
2.293518907e+19
2.293153767e+19
2.294391376e+19
2.282305679e+19
2.283788576e+19
2.28435261e+19
2.286092393e+19
2.285981992e+19
2.275780846e+19
2.275502051e+19
2.27720661e+19
2.278430043e+19
2.275406686e+19
2.266892485e+19
2.266826331e+19
2.266821605e+19
2.269003852e+19
2.268197538e+19
2.25845432e+19
2.25883922e+19
2.258935445e+19
2.256409537e+19
2.256373453e+19
2.249378664e+19
2.249701276e+19
2.249411312e+19
2.249692254e+19
2.247683986e+19
2.242455614e+19
2.242024319e+19
2.242039784e+19
2.241641137e+19
2.2386689e+19
2.230748803e+19
2.230350157e+19
2.23322531e+19
2.232702516e+19
2.231530203e+19
2.22340348e+19
2.224045696e+19
2.22363717e+19
2.22399114e+19
2.222710574e+19
2.214936533e+19
2.214221718e+19
2.21542625e+19
2.214776731e+19
2.215613975e+19
2.20619251e+19
2.206450685e+19
2.204887028e+19
2.204805838e+19
2.206819691e+19
2.198058055e+19
2.200778991e+19
2.197884077e+19
2.197308444e+19
2.196510721e+19
2.191042646e+19
2.190058057e+19
2.189744037e+19
2.191043076e+19
2.189805896e+19
2.181915441e+19
2.182040877e+19
2.180623275e+19
2.18197644e+19
2.183665534e+19
2.174238484e+19
2.17586443e+19
2.175629882e+19
2.17421228e+19
2.17305715e+19
2.168174587e+19
2.169235211e+19
2.168963718e+19
2.16597172e+19
2.166274571e+19
2.15916036e+19
2.160196498e+19
2.159016882e+19
2.158296053e+19
2.159710647e+19
2.152626506e+19
2.151261313e+19
2.150208851e+19
2.149777557e+19
2.151921142e+19
2.142674944e+19
2.142548219e+19
2.143918567e+19
2.141510792e+19
2.145473633e+19
2.135503599e+19
2.134267708e+19
2.135167241e+19
2.135564599e+19
2.135097649e+19
2.12577198e+19
2.127591665e+19
2.127621735e+19
2.125649551e+19
2.125965719e+19
2.12183878e+19
2.120866649e+19
2.120927649e+19
2.118687839e+19
2.118223896e+19
2.113113658e+19
2.112233886e+19
2.111539691e+19
2.113938015e+19
2.114076338e+19
2.105327589e+19
2.105979257e+19
2.107470316e+19
2.106745191e+19
2.106065172e+19
2.099744817e+19
2.098279533e+19
2.098944087e+19
2.099866817e+19
2.100106091e+19
2.091473757e+19
2.091415335e+19
2.091544208e+19
2.091736228e+19
2.091434666e+19
2.085938668e+19
2.085219987e+19
2.087597691e+19
2.08480115e+19
2.083926103e+19
2.077961008e+19
2.075993549e+19
2.078057233e+19
2.077329961e+19
2.078184818e+19
2.068318741e+19
2.070715776e+19
2.071395795e+19
2.070820593e+19
2.068703641e+19
2.065172095e+19
2.063595121e+19
2.065619714e+19
2.062369111e+19
2.063235566e+19
2.057799279e+19
2.058817804e+19
2.058772699e+19
2.057730547e+19
2.057361971e+19
2.052986308e+19
2.049560008e+19
2.048758419e+19
2.053403426e+19
2.049669979e+19
2.042838859e+19
2.045144824e+19
2.042789887e+19
2.043877574e+19
2.042248621e+19
2.036082914e+19
2.038970095e+19
2.037238903e+19
2.038759603e+19
2.037225586e+19
2.030053812e+19
2.030039636e+19
2.031707251e+19
2.032710311e+19
2.030312846e+19
2.023764387e+19
2.022470933e+19
2.024333146e+19
2.025765782e+19
2.022330891e+19
2.01633143e+19
2.017429856e+19
2.017319026e+19
2.018373635e+19
2.016867541e+19
2.011345339e+19
2.009457352e+19
2.011756873e+19
2.011210882e+19
2.012030943e+19
2.003785657e+19
2.00441112e+19
2.003155039e+19
2.005357476e+19
2.006346361e+19
1.99846106e+19
1.997238057e+19
1.998616137e+19
1.998178829e+19
1.999489895e+19
1.992949598e+19
1.991457679e+19
1.992306092e+19
1.989741523e+19
1.991905298e+19
1.985383042e+19
1.987312269e+19
1.985383472e+19
1.984368383e+19
1.983813801e+19
1.979556701e+19
1.978997822e+19
1.978627957e+19
1.978757259e+19
1.978368063e+19
1.974110104e+19
1.973756563e+19
1.97492501e+19
1.973409895e+19
1.973194677e+19
1.968779922e+19
1.969459942e+19
1.969065161e+19
1.967724454e+19
1.968822021e+19
1.962293752e+19
1.963033052e+19
1.960918678e+19
1.961642514e+19
1.961263628e+19
1.954890435e+19
1.953350405e+19
1.955130139e+19
1.956369466e+19
1.954731922e+19
1.949012544e+19
1.949531472e+19
1.95028409e+19
1.948709693e+19
1.951295312e+19
1.94414158e+19
1.944288924e+19
1.943704271e+19
1.9438877e+19
1.943308632e+19
1.939490129e+19
1.937009326e+19
1.935649288e+19
1.937083643e+19
1.935539746e+19
1.933226908e+19
1.932133207e+19
1.93214008e+19
1.931386603e+19
1.933107056e+19
1.927727473e+19
1.926473111e+19
1.928253704e+19
1.926806462e+19
1.927390256e+19
1.921290274e+19
1.921553175e+19
1.920938451e+19
1.91998651e+19
1.922059645e+19
1.915566601e+19
1.915190722e+19
1.9158106e+19
1.913820374e+19
1.916304613e+19
1.906920521e+19
1.90821827e+19
1.911224874e+19
1.907483695e+19
1.908941247e+19
1.904087036e+19
1.903401433e+19
1.904672978e+19
1.903985656e+19
1.905813503e+19
1.89842694e+19
1.90014997e+19
1.899763352e+19
1.89898453e+19
1.897997794e+19
1.894634642e+19
1.894649247e+19
1.89455517e+19
1.894657839e+19
1.891464799e+19
1.888613272e+19
1.888980989e+19
1.888421681e+19
1.888299681e+19
1.887129086e+19
1.88526988e+19
1.884198517e+19
1.882661923e+19
1.882532191e+19
1.883827364e+19
1.878889815e+19
1.876809807e+19
1.878687484e+19
1.877801269e+19
1.878794879e+19
1.871453851e+19
1.87198137e+19
1.872689312e+19
1.874118082e+19
1.872972832e+19
1.868864366e+19
1.86752237e+19
1.867395215e+19
1.869643187e+19
1.868059769e+19
1.864411379e+19
1.863895887e+19
1.862500194e+19
1.863779902e+19
1.863489079e+19
1.859319183e+19
1.858750424e+19
1.857125337e+19
1.857423463e+19
1.858294214e+19
1.853038779e+19
1.853335616e+19
1.85372696e+19
1.852463146e+19
1.853710206e+19
1.848947065e+19
1.848975417e+19
1.847768738e+19
1.848663115e+19
1.847220599e+19
1.842285627e+19
1.842141719e+19
1.843735017e+19
1.840663977e+19
1.842483662e+19
1.838449082e+19
1.837641909e+19
1.83874506e+19
1.838952975e+19
1.835959259e+19
1.833854335e+19
1.83230872e+19
1.831736954e+19
1.833538167e+19
1.831370096e+19
1.827692494e+19
1.828647013e+19
1.827891818e+19
1.828788773e+19
1.828554654e+19
1.82235458e+19
1.823126958e+19
1.821354957e+19
1.821906103e+19
1.823330148e+19
1.819399096e+19
1.81816836e+19
1.816977146e+19
1.818500852e+19
1.819195048e+19
1.814528991e+19
1.813412952e+19
1.812834313e+19
1.813664254e+19
1.814467562e+19
1.808219805e+19
1.806942675e+19
1.808897247e+19
1.80716133e+19
1.807662215e+19
1.804179212e+19
1.802213901e+19
1.801793775e+19
1.800821215e+19
1.803590692e+19
1.798142807e+19
1.797394915e+19
1.797651372e+19
1.798116173e+19
1.797869167e+19
1.794231086e+19
1.792738309e+19
1.793004646e+19
1.794126699e+19
1.793104737e+19
1.789772515e+19
1.787398247e+19
1.787292571e+19
1.786982417e+19
1.789431431e+19
1.783791096e+19
1.783032035e+19
1.782074509e+19
1.782480459e+19
1.782284143e+19
1.778082458e+19
1.778236246e+19
1.77745184e+19
1.777247362e+19
1.776563476e+19
1.773040092e+19
1.773183141e+19
1.772631565e+19
1.771050725e+19
1.771879807e+19
1.766450394e+19
1.768049276e+19
1.767981403e+19
1.768457374e+19
1.76876495e+19
1.763668458e+19
1.76121343e+19
1.76369681e+19
1.762435574e+19
1.76314953e+19
1.757793574e+19
1.754839808e+19
1.755921051e+19
1.757489864e+19
1.759355943e+19
1.74906072e+19
1.748084293e+19
1.751771775e+19
1.750314223e+19
1.750620511e+19
)
;

boundaryField
{
    upperWall
    {
        type            calculated;
        value           nonuniform List<scalar> 5(1.745871577e+19 1.744246272e+19 1.746950819e+19 1.742819693e+19 1.746002912e+19);
    }
    lowerWall
    {
        type            calculated;
        value           nonuniform List<scalar> 5(2.457597904e+19 2.456287967e+19 2.459493584e+19 2.457874157e+19 2.460201195e+19);
    }
    periodicX_half0
    {
        type            cyclic;
    }
    periodicX_half1
    {
        type            cyclic;
    }
    frontAndBack
    {
        type            empty;
    }
}


// ************************************************************************* //
