/*--------------------------------*- C++ -*----------------------------------*\
| =========                 |                                                 |
| \\      /  F ield         | OpenFOAM: The Open Source CFD Toolbox           |
|  \\    /   O peration     | Version:  v1706                                 |
|   \\  /    A nd           | Web:      www.OpenFOAM.com                      |
|    \\/     M anipulation  |                                                 |
\*---------------------------------------------------------------------------*/
FoamFile
{
    version     2.0;
    format      ascii;
    class       volScalarField;
    location    "5";
    object      rhoN_Mixture;
}
// * * * * * * * * * * * * * * * * * * * * * * * * * * * * * * * * * * * * * //

dimensions      [0 -3 0 0 0 0 0];


internalField   nonuniform List<scalar> 
500
(
4.900691154e+19
4.896272533e+19
4.898490006e+19
4.899585854e+19
4.900153325e+19
4.869131909e+19
4.867267549e+19
4.868429123e+19
4.863335638e+19
4.863685742e+19
4.840382522e+19
4.842577227e+19
4.839796151e+19
4.83924973e+19
4.838750562e+19
4.813287434e+19
4.812579492e+19
4.814256987e+19
4.814882879e+19
4.815470969e+19
4.793233098e+19
4.792335714e+19
4.791503625e+19
4.790889331e+19
4.790695162e+19
4.769670844e+19
4.770768841e+19
4.771899915e+19
4.771918816e+19
4.768698284e+19
4.747614684e+19
4.748739744e+19
4.751505785e+19
4.748919736e+19
4.750538809e+19
4.727888975e+19
4.725668495e+19
4.727763109e+19
4.728956042e+19
4.725448552e+19
4.70227979e+19
4.705885223e+19
4.705682033e+19
4.707989287e+19
4.705054422e+19
4.686222232e+19
4.687487334e+19
4.686272922e+19
4.687625657e+19
4.687135511e+19
4.664602521e+19
4.664462049e+19
4.66478595e+19
4.661672811e+19
4.66569837e+19
4.644382799e+19
4.646578363e+19
4.648175527e+19
4.645782358e+19
4.646255751e+19
4.627670996e+19
4.627424849e+19
4.626716478e+19
4.628640979e+19
4.627807172e+19
4.606360151e+19
4.607200831e+19
4.605692589e+19
4.610328576e+19
4.611308009e+19
4.588665478e+19
4.587955818e+19
4.59270779e+19
4.586710047e+19
4.589418095e+19
4.567578441e+19
4.569271401e+19
4.571971288e+19
4.573046517e+19
4.573406072e+19
4.553062632e+19
4.550144951e+19
4.554466058e+19
4.5559133e+19
4.553235751e+19
4.535094749e+19
4.533815041e+19
4.53335024e+19
4.533610992e+19
4.534782876e+19
4.516738958e+19
4.518612769e+19
4.517180562e+19
4.516416346e+19
4.51461814e+19
4.501259609e+19
4.500339027e+19
4.49914996e+19
4.500320126e+19
4.499491474e+19
4.484292209e+19
4.482653375e+19
4.483494915e+19
4.482555862e+19
4.481069958e+19
4.463782093e+19
4.4656907e+19
4.46541706e+19
4.464263648e+19
4.466358691e+19
4.448746497e+19
4.448005907e+19
4.449421361e+19
4.448830264e+19
4.448391237e+19
4.432009779e+19
4.431874892e+19
4.431685019e+19
4.430541058e+19
4.431892075e+19
4.41296194e+19
4.413188757e+19
4.41226302e+19
4.413965001e+19
4.415049251e+19
4.396933593e+19
4.399267051e+19
4.396755749e+19
4.39602461e+19
4.397827971e+19
4.383848703e+19
4.380838233e+19
4.382878719e+19
4.383388197e+19
4.379974355e+19
4.365852467e+19
4.364101944e+19
4.365481313e+19
4.365007491e+19
4.366199565e+19
4.350670385e+19
4.350328442e+19
4.351122299e+19
4.351372313e+19
4.347165902e+19
4.337459199e+19
4.338607026e+19
4.336881848e+19
4.331205858e+19
4.334563855e+19
4.316785415e+19
4.318775212e+19
4.317906179e+19
4.318270889e+19
4.319135197e+19
4.303563489e+19
4.302773498e+19
4.303201786e+19
4.302384732e+19
4.306055461e+19
4.287164418e+19
4.285509261e+19
4.289352679e+19
4.285032861e+19
4.288870694e+19
4.272743545e+19
4.270496002e+19
4.271556196e+19
4.271887829e+19
4.270980564e+19
4.25458407e+19
4.256749564e+19
4.257567907e+19
4.253242933e+19
4.253396292e+19
4.243417667e+19
4.242280579e+19
4.241796876e+19
4.238378308e+19
4.237538487e+19
4.226910772e+19
4.225315755e+19
4.224476364e+19
4.227269468e+19
4.227884192e+19
4.211503162e+19
4.212121752e+19
4.213234784e+19
4.214812188e+19
4.214795005e+19
4.198425145e+19
4.198045399e+19
4.198847418e+19
4.200322153e+19
4.199008939e+19
4.183374943e+19
4.184309271e+19
4.185036114e+19
4.184386165e+19
4.183704857e+19
4.16977456e+19
4.171020331e+19
4.173156614e+19
4.16986649e+19
4.169989348e+19
4.155642792e+19
4.156411304e+19
4.156571106e+19
4.155813764e+19
4.157200006e+19
4.141247264e+19
4.14372463e+19
4.143181216e+19
4.14101873e+19
4.141797981e+19
4.128430429e+19
4.128512048e+19
4.131377322e+19
4.127460876e+19
4.12716232e+19
4.115355418e+19
4.116271704e+19
4.116589161e+19
4.113391396e+19
4.115670298e+19
4.104551147e+19
4.100408315e+19
4.101577621e+19
4.103664502e+19
4.101990014e+19
4.088311879e+19
4.087986689e+19
4.086998664e+19
4.088767229e+19
4.087801112e+19
4.073360049e+19
4.075723578e+19
4.076510132e+19
4.074761757e+19
4.075497191e+19
4.058191284e+19
4.060995128e+19
4.062244765e+19
4.062500363e+19
4.060764446e+19
4.049269846e+19
4.04556604e+19
4.048750488e+19
4.050074013e+19
4.046999106e+19
4.034867445e+19
4.035727456e+19
4.0366867e+19
4.036462032e+19
4.03538938e+19
4.025471325e+19
4.022304059e+19
4.024311469e+19
4.023187698e+19
4.023861273e+19
4.011033269e+19
4.009032303e+19
4.007866863e+19
4.011136797e+19
4.011958146e+19
3.997908427e+19
3.99578761e+19
3.9961012e+19
3.997099535e+19
3.995897152e+19
3.986505327e+19
3.985513865e+19
3.984854895e+19
3.980793253e+19
3.985901343e+19
3.973819083e+19
3.975074734e+19
3.973358148e+19
3.974163174e+19
3.97190618e+19
3.96194302e+19
3.962825799e+19
3.961570577e+19
3.960386235e+19
3.961003107e+19
3.950673947e+19
3.949956555e+19
3.950747834e+19
3.948129997e+19
3.95052961e+19
3.940589646e+19
3.938641518e+19
3.939760134e+19
3.937750577e+19
3.940692744e+19
3.924978847e+19
3.926509857e+19
3.924867157e+19
3.925276114e+19
3.925782155e+19
3.91423128e+19
3.912554644e+19
3.912866087e+19
3.912301624e+19
3.910563988e+19
3.900578919e+19
3.902406336e+19
3.901481888e+19
3.901066918e+19
3.903927895e+19
3.890755371e+19
3.892475394e+19
3.889868725e+19
3.890175443e+19
3.889309847e+19
3.881264744e+19
3.878007268e+19
3.875506275e+19
3.8793527e+19
3.876592244e+19
3.867431102e+19
3.866322365e+19
3.865238974e+19
3.86660202e+19
3.868096515e+19
3.856930541e+19
3.855352708e+19
3.857001421e+19
3.857535814e+19
3.855425736e+19
3.844265776e+19
3.846022742e+19
3.843570721e+19
3.843526475e+19
3.8442516e+19
3.833473962e+19
3.833451624e+19
3.833544843e+19
3.833339076e+19
3.834422896e+19
3.820405825e+19
3.82191106e+19
3.82309712e+19
3.819858975e+19
3.821455709e+19
3.812287694e+19
3.809754913e+19
3.813490507e+19
3.810560368e+19
3.812958692e+19
3.8006552e+19
3.801239853e+19
3.801884218e+19
3.800397455e+19
3.799683928e+19
3.790785687e+19
3.791730325e+19
3.790080323e+19
3.791964015e+19
3.788556616e+19
3.78030188e+19
3.781544644e+19
3.781632707e+19
3.781169624e+19
3.779264454e+19
3.771764053e+19
3.77097664e+19
3.769292272e+19
3.769826235e+19
3.771440582e+19
3.761029803e+19
3.759057189e+19
3.759759117e+19
3.760519896e+19
3.761312464e+19
3.746719761e+19
3.749878864e+19
3.748774854e+19
3.751009509e+19
3.749157176e+19
3.739019178e+19
3.737997646e+19
3.737109712e+19
3.739737e+19
3.738821144e+19
3.730102895e+19
3.730620964e+19
3.727253516e+19
3.728026753e+19
3.728701188e+19
3.720088185e+19
3.71999153e+19
3.717951473e+19
3.716409294e+19
3.716074225e+19
3.708854338e+19
3.710525389e+19
3.707496018e+19
3.705493334e+19
3.70628805e+19
3.698385136e+19
3.70011461e+19
3.698886452e+19
3.697937947e+19
3.697395822e+19
3.686039546e+19
3.6873025e+19
3.689398832e+19
3.686017638e+19
3.687595901e+19
3.679026285e+19
3.676398567e+19
3.678226844e+19
3.677820465e+19
3.676269265e+19
3.666967652e+19
3.66705013e+19
3.666974954e+19
3.667420854e+19
3.666526477e+19
3.657267821e+19
3.65963092e+19
3.6578267e+19
3.658981401e+19
3.65798822e+19
3.646804634e+19
3.648463227e+19
3.645911545e+19
3.649074944e+19
3.648974423e+19
3.640467526e+19
3.637808449e+19
3.636577713e+19
3.638545602e+19
3.640982158e+19
3.630664167e+19
3.629099651e+19
3.626920411e+19
3.627816936e+19
3.630628083e+19
3.61980534e+19
3.618268317e+19
3.619561341e+19
3.617883846e+19
3.61844702e+19
3.611085803e+19
3.610740853e+19
3.60625307e+19
3.60709461e+19
3.609594314e+19
3.598516403e+19
3.599490252e+19
3.599473499e+19
3.599585618e+19
3.600370884e+19
3.589683887e+19
3.589207487e+19
3.591227784e+19
3.591760888e+19
3.588205715e+19
3.582543471e+19
3.579133496e+19
3.580383992e+19
3.581030504e+19
3.583001829e+19
3.570999041e+19
3.571579398e+19
3.568362302e+19
3.570278641e+19
3.569917797e+19
3.561029866e+19
3.562673854e+19
3.559695602e+19
3.558464007e+19
3.558579563e+19
3.551357528e+19
3.551150473e+19
3.550527158e+19
3.548032609e+19
3.550021546e+19
3.537607224e+19
3.53922329e+19
3.541774543e+19
3.540128407e+19
3.539528718e+19
3.529884733e+19
3.528545744e+19
3.530545421e+19
3.530303569e+19
3.528575814e+19
3.518761287e+19
3.517032672e+19
3.516887475e+19
3.51791631e+19
3.520229578e+19
3.502447271e+19
3.502204991e+19
3.50489156e+19
3.50504406e+19
3.505817297e+19
)
;

boundaryField
{
    upperWall
    {
        type            calculated;
        value           nonuniform List<scalar> 5(3.496625606e+19 3.49262706e+19 3.499661788e+19 3.493021384e+19 3.496449781e+19);
    }
    lowerWall
    {
        type            calculated;
        value           nonuniform List<scalar> 5(4.911885714e+19 4.915358053e+19 4.915180484e+19 4.928419533e+19 4.9228067e+19);
    }
    periodicX_half0
    {
        type            cyclic;
    }
    periodicX_half1
    {
        type            cyclic;
    }
    frontAndBack
    {
        type            empty;
    }
}


// ************************************************************************* //
