/*--------------------------------*- C++ -*----------------------------------*\
| =========                 |                                                 |
| \\      /  F ield         | OpenFOAM: The Open Source CFD Toolbox           |
|  \\    /   O peration     | Version:  v1706                                 |
|   \\  /    A nd           | Web:      www.OpenFOAM.com                      |
|    \\/     M anipulation  |                                                 |
\*---------------------------------------------------------------------------*/
FoamFile
{
    version     2.0;
    format      ascii;
    class       volScalarField;
    location    "5";
    object      rotationalT_N2;
}
// * * * * * * * * * * * * * * * * * * * * * * * * * * * * * * * * * * * * * //

dimensions      [0 0 0 1 0 0 0];


internalField   nonuniform List<scalar> 
500
(
2062.893217
2064.170068
2065.456469
2064.279785
2063.894689
2080.607633
2079.297441
2079.938702
2080.445696
2078.957116
2092.277953
2093.585103
2092.784706
2094.042527
2092.999047
2104.688853
2105.386659
2106.443951
2106.224087
2104.87262
2117.657342
2117.397118
2118.578409
2118.163078
2117.114228
2125.885075
2126.642416
2127.663617
2129.294156
2126.135014
2138.12796
2138.460585
2138.670581
2139.161303
2138.920532
2148.336642
2149.390477
2147.54816
2148.548702
2147.037608
2159.646448
2159.689574
2160.638705
2159.32596
2158.171092
2168.536288
2169.745932
2169.52397
2169.279746
2167.927335
2177.357851
2179.133243
2179.657024
2179.254164
2179.429768
2190.003086
2190.651427
2190.35775
2189.171875
2188.880944
2200.11692
2199.526729
2198.944618
2197.992493
2195.639201
2207.678982
2208.70814
2205.913156
2209.022926
2207.173342
2215.802205
2218.135574
2218.50627
2218.368198
2218.523578
2224.594489
2225.799154
2227.262105
2226.466552
2227.303491
2235.856648
2237.04958
2235.471224
2235.823833
2236.933237
2247.582671
2245.052166
2245.659234
2245.651294
2244.747036
2255.980258
2254.23108
2254.640858
2255.465514
2255.009387
2262.374694
2262.617832
2261.141442
2263.078076
2263.509169
2273.836063
2272.929924
2270.387335
2271.66142
2273.285951
2282.476092
2281.631435
2280.127023
2278.797593
2283.101883
2289.860587
2290.105114
2289.877399
2289.719723
2289.382546
2299.169664
2298.349289
2299.74752
2298.561794
2297.436248
2306.032255
2308.23852
2307.909368
2307.134779
2307.658074
2318.502577
2318.019863
2317.979263
2318.466644
2317.333938
2327.577927
2326.351864
2325.606215
2324.976217
2325.426188
2335.115875
2333.273953
2334.656024
2332.90104
2333.00706
2344.341295
2343.203058
2342.192329
2340.433383
2341.44848
2352.997692
2350.885175
2350.782304
2351.095417
2351.76141
2361.358069
2359.114454
2359.586372
2360.549821
2362.465801
2367.912594
2368.863088
2367.761757
2368.424429
2368.697731
2376.343803
2377.584329
2376.709746
2377.212678
2376.745395
2385.249419
2386.868097
2386.762737
2384.635307
2385.559272
2393.939649
2396.214594
2396.99995
2395.708846
2394.239342
2402.78774
2403.229237
2403.579165
2403.591468
2403.26371
2412.757005
2411.063579
2410.850591
2412.667442
2413.956453
2421.588754
2420.25765
2419.835392
2421.151653
2419.602
2427.734297
2429.411087
2428.669075
2428.460636
2429.900985
2437.510181
2437.227501
2437.775934
2436.748819
2436.252039
2445.105116
2444.721874
2445.922059
2444.317322
2443.800933
2452.280054
2454.724901
2454.295898
2452.389095
2451.575708
2462.99166
2463.596982
2460.98998
2461.748848
2460.99563
2469.395931
2469.215939
2472.782558
2472.285221
2471.470322
2476.027336
2476.632747
2478.944434
2477.78312
2479.019847
2484.161622
2486.90577
2486.76676
2486.569835
2484.955085
2495.78455
2494.928223
2495.605
2494.115469
2496.048143
2503.257511
2500.7477
2502.469891
2501.356606
2502.710218
2510.182236
2512.57996
2509.81158
2509.815665
2512.298693
2517.027618
2518.133079
2519.338026
2518.854336
2519.63182
2525.857177
2528.277685
2528.460675
2526.843733
2524.678376
2533.874397
2533.615713
2535.261319
2536.917159
2535.935663
2544.402197
2540.762611
2543.034489
2543.526839
2544.020249
2552.416539
2551.109773
2547.819888
2550.676605
2550.124574
2559.079009
2559.58493
2557.506593
2556.957594
2560.238031
2567.265755
2566.86718
2565.863708
2565.76238
2565.855298
2573.708192
2570.730861
2573.454647
2575.404958
2573.482336
2580.535442
2580.078167
2579.278634
2581.166436
2582.608833
2591.831291
2590.91393
2586.75814
2586.918586
2587.981907
2595.541658
2597.784299
2596.417931
2594.907758
2596.353278
2603.64213
2604.912119
2601.104463
2601.096207
2603.224495
2612.562794
2611.730819
2613.540831
2611.289202
2614.167665
2620.906277
2622.04796
2620.989921
2622.456319
2625.665395
2628.025849
2628.716984
2627.750744
2628.49735
2627.584004
2635.797292
2634.871801
2635.465478
2634.545986
2637.526878
2643.212345
2643.849653
2644.579937
2641.889747
2643.172164
2649.116087
2650.670853
2651.120513
2651.580904
2653.044018
2658.990407
2659.152568
2658.461353
2658.195329
2657.423653
2664.51826
2662.935709
2666.009238
2666.439533
2666.881012
2675.852623
2674.033737
2674.445018
2674.555787
2675.568367
2683.232086
2683.235416
2681.026655
2681.539891
2682.387169
2690.077814
2689.414761
2687.048384
2689.778179
2688.746432
2696.404535
2696.65666
2696.573761
2698.300027
2698.324204
2703.145062
2706.517813
2701.991851
2706.326624
2704.689898
2713.030736
2713.618264
2714.275137
2713.669802
2713.293498
2720.778064
2722.519111
2721.672988
2718.86824
2722.114445
2728.172299
2729.994464
2727.320454
2726.524912
2729.005204
2736.358918
2736.601255
2736.412328
2735.418262
2736.350337
2741.697571
2743.261949
2745.582097
2743.074107
2743.954463
2750.884468
2751.147049
2751.55773
2751.287628
2750.468421
2756.451163
2761.226466
2758.661426
2760.12046
2757.792406
2767.280851
2765.501906
2766.471229
2767.638683
2766.167862
2774.408139
2773.504473
2773.630394
2776.251707
2772.366422
2779.242682
2781.934194
2783.566371
2783.474312
2782.15585
2789.805711
2789.991287
2788.140512
2793.504118
2791.736631
2798.139086
2799.225604
2798.353609
2798.536018
2796.034983
2807.625072
2806.917255
2806.0014
2808.540425
2806.310967
2813.446479
2815.722949
2815.405968
2815.630614
2815.008944
2820.653904
2822.919559
2824.133027
2824.290885
2820.923451
2826.502527
2830.952192
2832.240144
2831.396496
2829.795515
2839.20779
2840.365174
2840.07158
2840.526588
2839.266009
2846.331144
2848.953721
2849.646733
2849.164318
2848.159591
2859.259214
2856.162547
2859.110135
2861.806848
2857.376627
2866.400814
2868.248635
2868.291187
2864.32767
2866.858703
2876.831421
2873.737544
2873.188474
2875.638047
2873.01336
2884.803374
2881.491407
2883.854829
2883.683372
2886.620137
2894.387381
2891.487221
2893.100882
2892.631852
2893.388386
2904.339387
2902.171455
2902.963261
2903.494294
2901.839118
2913.960644
2912.024063
2914.377328
2912.438398
2910.362403
2928.191691
2928.902898
2927.35255
2928.305585
2924.413384
)
;

boundaryField
{
    upperWall
    {
        type            calculated;
        value           nonuniform List<scalar> 5(2935.2393 2947.957659 2938.889354 2940.975321 2935.825761);
    }
    lowerWall
    {
        type            calculated;
        value           nonuniform List<scalar> 5(2056.556794 2052.955059 2049.973203 2055.928116 2052.555949);
    }
    periodicX_half0
    {
        type            cyclic;
    }
    periodicX_half1
    {
        type            cyclic;
    }
    frontAndBack
    {
        type            empty;
    }
}


// ************************************************************************* //
