/*--------------------------------*- C++ -*----------------------------------*\
| =========                 |                                                 |
| \\      /  F ield         | OpenFOAM: The Open Source CFD Toolbox           |
|  \\    /   O peration     | Version:  v1706                                 |
|   \\  /    A nd           | Web:      www.OpenFOAM.com                      |
|    \\/     M anipulation  |                                                 |
\*---------------------------------------------------------------------------*/
FoamFile
{
    version     2.0;
    format      ascii;
    class       volScalarField;
    location    "5";
    object      rotationalT_Mixture;
}
// * * * * * * * * * * * * * * * * * * * * * * * * * * * * * * * * * * * * * //

dimensions      [0 0 0 1 0 0 0];


internalField   nonuniform List<scalar> 
500
(
2063.481027
2064.029172
2065.819974
2064.916677
2063.545311
2079.796198
2080.181087
2080.073465
2079.481283
2079.13769
2091.452322
2093.565925
2093.260037
2094.060009
2092.12951
2104.258749
2105.817909
2106.217999
2105.720628
2105.079543
2116.583549
2117.258917
2117.450299
2116.935961
2117.141284
2127.06391
2127.610715
2127.767437
2128.469643
2126.631333
2138.804918
2138.572219
2138.870078
2138.77229
2138.668498
2148.789384
2148.675854
2147.606706
2148.511266
2148.072728
2160.156549
2158.939641
2159.758451
2158.830747
2158.520718
2169.041723
2169.795653
2169.222701
2169.568534
2169.631664
2177.889518
2178.373638
2179.095908
2179.825408
2178.887216
2189.674303
2189.068027
2189.829763
2189.302243
2188.908266
2199.02886
2199.524855
2199.430696
2198.046608
2196.78639
2207.887248
2207.229866
2206.853113
2208.17979
2207.698383
2216.371863
2216.614145
2217.23523
2218.523556
2217.677358
2225.614327
2226.317387
2226.518863
2226.693401
2226.210597
2235.261751
2235.601196
2234.99499
2236.063227
2236.04895
2246.659633
2243.975537
2244.094601
2245.024819
2245.068849
2256.317739
2253.769981
2253.526949
2255.584774
2255.69213
2263.411741
2263.045787
2261.772684
2262.605385
2264.673512
2271.745478
2272.715993
2271.712269
2271.874278
2272.670159
2280.915566
2281.43079
2281.234956
2280.146815
2281.842344
2290.395366
2290.067653
2289.707531
2289.973122
2289.422748
2299.332857
2299.048172
2299.954119
2298.546202
2298.734759
2307.125999
2308.881589
2308.364438
2308.6142
2308.279479
2318.57446
2318.498045
2317.839057
2317.860644
2317.309822
2327.615064
2327.422737
2326.054445
2326.270402
2325.312649
2335.259456
2334.379638
2333.23854
2333.323938
2333.635458
2343.412726
2343.526631
2343.216195
2341.542231
2340.816515
2352.486231
2352.019868
2351.489115
2351.858561
2351.417524
2361.513028
2360.793646
2359.604189
2359.970837
2362.198662
2367.837663
2368.802851
2368.414531
2367.521613
2368.613476
2375.710942
2377.906103
2377.855923
2377.603029
2377.829133
2385.762168
2386.738091
2387.844764
2384.832372
2384.608312
2393.776339
2395.201781
2395.448874
2396.239171
2393.072828
2403.201407
2402.710853
2402.917385
2403.784868
2403.459368
2412.403699
2410.61564
2410.429775
2411.44671
2411.792823
2419.668677
2420.131845
2421.07099
2420.541562
2421.039433
2427.498641
2429.319808
2429.551622
2428.726351
2429.693025
2437.123599
2437.037545
2436.689714
2437.261419
2436.846065
2445.44823
2444.430192
2445.898238
2445.772471
2445.834926
2453.612149
2455.351055
2454.927628
2455.194582
2453.500707
2463.158963
2463.544931
2462.40407
2462.654508
2461.996386
2470.844544
2470.713793
2472.434314
2471.417921
2471.288542
2478.093322
2478.64851
2479.09117
2478.23497
2479.740407
2486.346585
2488.36038
2486.899895
2487.513629
2487.077679
2496.063419
2495.97678
2495.502895
2494.818291
2495.348905
2503.68055
2500.51358
2501.976041
2502.59526
2502.725325
2509.856711
2510.23371
2509.537442
2510.322415
2512.692288
2517.744202
2518.397117
2518.640368
2518.768071
2520.191472
2526.579934
2528.000856
2527.206192
2527.319719
2526.73424
2534.355948
2534.191246
2534.54189
2535.800065
2535.747174
2544.00427
2543.812424
2542.738162
2541.946803
2544.408063
2551.584287
2550.443311
2549.902061
2552.095654
2548.686605
2559.828166
2559.102272
2559.88117
2558.602887
2560.193615
2567.476008
2567.280431
2567.190404
2566.626358
2567.505124
2574.263049
2573.539806
2575.156356
2575.390694
2575.371436
2581.79917
2582.646068
2581.767523
2583.072359
2583.98608
2591.881959
2591.790443
2589.158145
2589.207789
2590.540146
2598.503789
2597.720548
2597.904046
2596.860987
2596.736698
2605.180467
2606.036605
2603.7144
2603.636433
2604.480134
2614.358807
2612.824019
2613.627838
2612.788928
2614.477533
2623.06004
2622.808826
2621.018189
2622.364643
2623.236867
2628.463675
2629.530133
2630.043952
2628.052859
2628.978595
2636.341132
2636.83189
2637.4031
2634.873204
2636.692679
2644.061933
2645.216024
2644.812757
2643.691439
2644.587827
2651.762052
2651.909691
2651.623311
2651.297624
2652.877765
2659.435418
2660.007783
2659.085096
2659.250263
2658.398355
2666.456112
2666.217112
2667.765902
2667.66373
2666.060266
2675.349908
2675.019068
2673.982878
2675.409181
2675.714295
2683.880165
2683.702684
2682.382211
2681.625866
2682.12546
2691.635493
2691.495846
2688.845479
2691.433303
2690.673175
2698.718779
2698.10199
2697.335608
2697.788726
2698.878976
2706.522987
2706.092065
2703.487701
2706.858487
2705.808263
2713.260472
2714.092084
2713.815667
2713.288666
2713.78432
2721.947838
2721.936972
2721.661231
2719.164017
2721.209578
2728.972372
2728.065067
2729.126583
2728.420209
2729.276251
2736.477112
2735.847414
2737.431984
2736.602206
2738.403558
2742.450554
2744.767218
2744.880108
2743.206762
2743.653321
2750.692793
2751.672909
2751.563923
2751.934778
2752.163461
2759.151456
2762.351994
2758.755428
2760.073786
2758.465847
2767.537188
2766.289866
2767.072489
2768.26393
2767.200939
2775.20047
2773.711404
2774.97352
2777.06905
2774.745934
2782.338684
2783.487634
2784.558163
2783.744718
2783.436707
2790.848358
2792.458682
2790.351353
2792.083252
2790.986407
2800.618253
2801.118305
2798.757605
2798.865632
2798.105105
2809.601342
2807.604306
2807.415363
2807.919558
2806.349612
2815.603717
2815.953914
2815.008335
2816.168425
2815.321669
2821.356336
2822.552365
2823.280441
2823.642234
2822.546782
2829.300908
2831.237935
2831.098267
2831.387177
2830.122176
2838.65786
2839.304014
2839.870291
2839.942224
2839.299865
2847.782757
2847.629583
2848.230469
2848.82738
2847.210146
2856.435509
2855.733329
2857.915651
2860.68665
2856.649563
2865.873464
2866.56585
2866.467895
2865.903989
2865.757692
2876.333906
2873.780792
2872.427803
2874.38456
2872.77007
2882.517873
2880.624819
2882.482546
2883.444157
2884.94168
2893.830751
2890.121169
2891.490439
2890.984404
2892.749439
2902.883653
2900.847725
2902.474998
2903.571147
2901.477749
2914.655643
2913.258034
2912.701607
2913.45776
2911.505794
2929.285217
2928.414293
2928.250173
2928.511502
2927.393639
)
;

boundaryField
{
    upperWall
    {
        type            calculated;
        value           nonuniform List<scalar> 5(2935.536232 2944.050779 2936.362729 2939.671195 2946.276882);
    }
    lowerWall
    {
        type            calculated;
        value           nonuniform List<scalar> 5(2053.101899 2053.732181 2052.666545 2054.116111 2051.294498);
    }
    periodicX_half0
    {
        type            cyclic;
    }
    periodicX_half1
    {
        type            cyclic;
    }
    frontAndBack
    {
        type            empty;
    }
}


// ************************************************************************* //
