/*--------------------------------*- C++ -*----------------------------------*\
| =========                 |                                                 |
| \\      /  F ield         | OpenFOAM: The Open Source CFD Toolbox           |
|  \\    /   O peration     | Version:  v1706                                 |
|   \\  /    A nd           | Web:      www.OpenFOAM.com                      |
|    \\/     M anipulation  |                                                 |
\*---------------------------------------------------------------------------*/
FoamFile
{
    version     2.0;
    format      ascii;
    class       volScalarField;
    location    "5";
    object      rotationalT_O2;
}
// * * * * * * * * * * * * * * * * * * * * * * * * * * * * * * * * * * * * * //

dimensions      [0 0 0 1 0 0 0];


internalField   nonuniform List<scalar> 
500
(
2064.068399
2063.888355
2066.182762
2065.552957
2063.196069
2078.985026
2081.063338
2080.208185
2078.517198
2079.318124
2090.627357
2093.546766
2093.734991
2094.077458
2091.260694
2103.829049
2106.24852
2105.992071
2105.218252
2105.286399
2115.509319
2117.12089
2116.32317
2115.710291
2117.168352
2128.243445
2128.579524
2127.871348
2127.644528
2127.128158
2139.481551
2138.683952
2139.069449
2138.38315
2138.416546
2149.241858
2147.961242
2147.66517
2148.473797
2149.109232
2160.667431
2158.189869
2158.880234
2158.334967
2158.870364
2169.547403
2169.845373
2168.92129
2169.857411
2171.337466
2178.421049
2177.61456
2178.535091
2180.397277
2178.344925
2189.345416
2187.48608
2189.302017
2189.432504
2188.935549
2197.941576
2199.522984
2199.915744
2198.100642
2197.9337
2208.095664
2205.751628
2207.79381
2207.335564
2208.223684
2216.940871
2215.092934
2215.967324
2218.678887
2216.831372
2226.632841
2226.835236
2225.776681
2226.920165
2225.118392
2234.667246
2234.152265
2234.518768
2236.302721
2235.165603
2245.737128
2242.898985
2242.529767
2244.397128
2245.390891
2256.655245
2253.309072
2252.4127
2255.703845
2256.374307
2264.447635
2263.473563
2262.403833
2262.132891
2265.835723
2269.654314
2272.501929
2273.037549
2272.087206
2272.055392
2279.356636
2281.230593
2282.343403
2281.496727
2280.584664
2290.929679
2290.03019
2289.537825
2290.226426
2289.462897
2299.495893
2299.745974
2300.160641
2298.530616
2300.032881
2308.219458
2309.524574
2308.818995
2310.090706
2308.900487
2318.646315
2318.976726
2317.698915
2317.255032
2317.285759
2327.652171
2328.493256
2326.501982
2327.563819
2325.199129
2335.402904
2335.485313
2331.823804
2333.746632
2334.264181
2342.485093
2343.850412
2344.240125
2342.649577
2340.184857
2351.975031
2353.15449
2352.196267
2352.621966
2351.073957
2361.668097
2362.474096
2359.622006
2359.392304
2361.931488
2367.762674
2368.742621
2369.06646
2366.619983
2368.529307
2375.078616
2378.227816
2379.00129
2377.993014
2378.913921
2386.274501
2386.608204
2388.926172
2385.029367
2383.657702
2393.613261
2394.189713
2393.89949
2396.769012
2391.907118
2403.615125
2402.192603
2402.255587
2403.978177
2403.654925
2412.050507
2410.16788
2410.009237
2410.225627
2409.628918
2417.749372
2420.00605
2422.307589
2419.931854
2422.47505
2427.262866
2429.228595
2430.433767
2428.991992
2429.484946
2436.737097
2436.847724
2435.604504
2437.773795
2437.439854
2445.791689
2444.13859
2445.874395
2447.227436
2447.866836
2454.944423
2455.975878
2455.559219
2457.998511
2455.424938
2463.325894
2463.492937
2463.817894
2463.560441
2462.995022
2472.294501
2472.210688
2472.086092
2470.551765
2471.106823
2480.159553
2480.66561
2479.237973
2478.687274
2480.460635
2488.533062
2489.814076
2487.032766
2488.458869
2489.197532
2496.341929
2497.02652
2495.400861
2495.520764
2494.650797
2504.10334
2500.279205
2501.482682
2503.835592
2502.740424
2509.530878
2507.888518
2509.263146
2510.829894
2513.085857
2518.46017
2518.661074
2517.94274
2518.681744
2520.750478
2527.301902
2527.724146
2525.952982
2527.795772
2528.788419
2534.836835
2534.76581
2533.822746
2534.683395
2535.558667
2543.607029
2546.861916
2542.442066
2540.367099
2544.79602
2550.752446
2549.777285
2551.985413
2553.514176
2547.246415
2560.577095
2558.620244
2562.255457
2560.247099
2560.149247
2567.685938
2567.693588
2568.51537
2567.48798
2569.151399
2574.817113
2576.341912
2576.854363
2575.376451
2577.256469
2583.061329
2585.210794
2584.25528
2584.977019
2585.360443
2591.932549
2592.667081
2591.556164
2591.494318
2593.09443
2601.46533
2597.656812
2599.387867
2598.812236
2597.119483
2606.715311
2607.157731
2606.320863
2606.177227
2605.735066
2616.152469
2613.915348
2613.714806
2614.285852
2614.787188
2625.211068
2623.56817
2621.046421
2622.27308
2620.811699
2628.900985
2630.341612
2632.332185
2627.609554
2630.369224
2636.884697
2638.789897
2639.339762
2635.199775
2635.859291
2644.910871
2646.58069
2645.045519
2645.48947
2646.003016
2654.405699
2653.146652
2652.125665
2651.014868
2652.711524
2659.879886
2660.861629
2659.708212
2660.302066
2659.372135
2668.387315
2669.489127
2669.521971
2668.884796
2665.241053
2674.848276
2676.002873
2673.521741
2676.261416
2675.860122
2684.526949
2684.169721
2683.736087
2681.711733
2681.864257
2693.191926
2693.574263
2690.641655
2693.086115
2692.594202
2701.029261
2699.544584
2698.095527
2697.278659
2699.432281
2709.89872
2705.666899
2704.980405
2707.389007
2706.924384
2713.489811
2714.564535
2713.35678
2712.908525
2714.274172
2723.115234
2721.356668
2721.649495
2719.459356
2720.30626
2729.771892
2726.138716
2730.930472
2730.315049
2729.546906
2736.595225
2735.094716
2738.450408
2737.785853
2740.454882
2743.202951
2746.270473
2744.179516
2743.339306
2743.352096
2750.501405
2752.197677
2751.570116
2752.581729
2753.859537
2761.851032
2763.476206
2758.849259
2760.027128
2759.138213
2767.793321
2767.076537
2767.673121
2768.887588
2768.232544
2775.991886
2773.91821
2776.316107
2777.886432
2777.11982
2785.435938
2785.039014
2785.548062
2784.015073
2784.714921
2791.889932
2794.922928
2792.559725
2790.663477
2790.236544
2803.094572
2803.008715
2799.160892
2799.194295
2800.172603
2811.5758
2808.290801
2808.827288
2807.299219
2806.388202
2817.759048
2816.18459
2814.610976
2816.70609
2815.634103
2822.057463
2822.186059
2822.428687
2822.994859
2824.167314
2832.095064
2831.52268
2829.958077
2831.377888
2830.448401
2838.108611
2838.245623
2839.669468
2839.358947
2839.333634
2849.233383
2846.308194
2846.818316
2848.4911
2846.261756
2853.616525
2855.30515
2856.72503
2859.570865
2855.924178
2865.347123
2864.888255
2864.648903
2867.47562
2864.659975
2875.837749
2873.823891
2871.669177
2873.133866
2872.527524
2880.239155
2879.760562
2881.114327
2883.205742
2883.269135
2893.2756
2888.757527
2889.885274
2889.339945
2892.111214
2901.430018
2899.528577
2901.987605
2903.647765
2901.116846
2915.349389
2914.486856
2911.030687
2914.475423
2912.6482
2930.376046
2927.927369
2929.147106
2928.7169
2930.366124
)
;

boundaryField
{
    upperWall
    {
        type            calculated;
        value           nonuniform List<scalar> 5(2935.832336 2940.153138 2933.844407 2938.372569 2956.701471);
    }
    lowerWall
    {
        type            calculated;
        value           nonuniform List<scalar> 5(2049.642345 2054.508424 2055.364062 2052.313399 2050.034278);
    }
    periodicX_half0
    {
        type            cyclic;
    }
    periodicX_half1
    {
        type            cyclic;
    }
    frontAndBack
    {
        type            empty;
    }
}


// ************************************************************************* //
