/*--------------------------------*- C++ -*----------------------------------*\
| =========                 |                                                 |
| \\      /  F ield         | OpenFOAM: The Open Source CFD Toolbox           |
|  \\    /   O peration     | Version:  v1706                                 |
|   \\  /    A nd           | Web:      www.OpenFOAM.com                      |
|    \\/     M anipulation  |                                                 |
\*---------------------------------------------------------------------------*/
FoamFile
{
    version     2.0;
    format      ascii;
    class       volScalarField;
    location    "5";
    object      SOF_Mixture;
}
// * * * * * * * * * * * * * * * * * * * * * * * * * * * * * * * * * * * * * //

dimensions      [0 0 0 0 0 0 0];


internalField   nonuniform List<scalar> 
500
(
0.06071440643
0.0606321774
0.06064638453
0.06067284043
0.06065483145
0.06021607417
0.06016822055
0.06018484953
0.06009868499
0.06013714832
0.05971459743
0.0597827294
0.05971255765
0.05972369093
0.05972735331
0.05933867397
0.05933500622
0.05933918827
0.05932782152
0.05936323861
0.05898789455
0.05901116499
0.05896927971
0.05901727648
0.05899256289
0.0586421866
0.05868949272
0.05865346109
0.05862644621
0.05858894848
0.05827784524
0.05829858086
0.0583156966
0.05832518271
0.05835642111
0.05799199073
0.05796756354
0.05801481568
0.05801839469
0.05796105052
0.05760384797
0.05766526004
0.05771070183
0.05769414534
0.0576797601
0.05737894859
0.05739220184
0.05739610356
0.05738985175
0.05739449931
0.05702117064
0.05699500065
0.05703909066
0.05699926667
0.05705803442
0.0567057583
0.05683507584
0.05680001468
0.05675399314
0.05674027455
0.05650145261
0.05649275091
0.056486341
0.05647173849
0.05649447067
0.05615014691
0.0561657398
0.05612272425
0.05621494817
0.05620246346
0.0558944121
0.05589406512
0.05597860766
0.05582867114
0.05585703294
0.05554741179
0.05555279365
0.05562615681
0.05563642148
0.05567759701
0.0553115516
0.05535574449
0.05536177106
0.05542279566
0.05536298778
0.05507936609
0.05506996156
0.05507453582
0.05504104439
0.05509474197
0.05484025282
0.05484527916
0.05482404763
0.05482745916
0.05472683818
0.05455067816
0.05454411162
0.05456954077
0.05453111892
0.05450886176
0.05428284482
0.05428515878
0.05430262638
0.05425424434
0.05426902537
0.05399774503
0.05399564893
0.05400597693
0.05398665062
0.05405129434
0.0537942512
0.05381096819
0.05375831504
0.05379830492
0.0537743393
0.05358284223
0.0535320401
0.05353781715
0.05350257044
0.05349936249
0.05326284305
0.05324943917
0.05321466811
0.05321499679
0.05325129439
0.05303737401
0.05302997848
0.05302586133
0.0529632484
0.05302997494
0.05282415255
0.05273916768
0.05278279965
0.05276305946
0.05268993022
0.052527065
0.05248912918
0.05254474633
0.05253531744
0.05255000194
0.05229633899
0.05228662846
0.05231024331
0.05231611759
0.05233032023
0.0520746321
0.05212461135
0.05210453927
0.05202338423
0.05207056536
0.05179241359
0.05181708918
0.05184073573
0.05180544803
0.05183420081
0.05160162067
0.05158217911
0.05160755509
0.05159354336
0.05163813502
0.05137547218
0.05132798323
0.05142151557
0.05137354942
0.05140504169
0.05112333036
0.0511253647
0.05114933235
0.0511232366
0.05113029421
0.05088318846
0.05092850702
0.05093111149
0.05089016725
0.0509098396
0.05071303415
0.05068699539
0.05073821746
0.05066356922
0.05065358996
0.05045343057
0.05046104099
0.05046100116
0.05046444756
0.050493264
0.05024540896
0.05027368758
0.05020714337
0.05031004658
0.05025819777
0.05000568064
0.05004960192
0.05002452607
0.05008891029
0.05005900905
0.0498323457
0.04984079339
0.0498968461
0.04981584925
0.04983743551
0.04961457618
0.04963635751
0.04967089016
0.04964485953
0.049625442
0.04942818766
0.04941498574
0.04943155731
0.04943277847
0.04941998516
0.04920067129
0.049237321
0.04925972689
0.04915078702
0.04924187245
0.04900168659
0.04898301966
0.04904535954
0.04901129994
0.04899551296
0.04884530082
0.04882862084
0.0488554989
0.04878743825
0.0488104767
0.04870927143
0.04859438318
0.04862565475
0.04863624749
0.04863049707
0.0484539339
0.0483727586
0.04839104906
0.04845412855
0.04843536339
0.04818836378
0.04825236535
0.04824058555
0.04822732375
0.04822731069
0.04797182886
0.04802612002
0.04803652571
0.04801970047
0.04804664381
0.04785864298
0.04780362648
0.0478110583
0.04784785888
0.04776591006
0.04764323464
0.04764693731
0.04767838503
0.04766465194
0.04765796472
0.04749955971
0.04750282164
0.04745927079
0.04748473255
0.04751849561
0.04729853311
0.04724990097
0.04724316903
0.04729952789
0.04732481206
0.04709409357
0.04708519713
0.04701930017
0.04708792929
0.04709140467
0.04692876731
0.04691768888
0.04691435942
0.04685653981
0.04693459318
0.0467310393
0.04677479353
0.0467367604
0.04673389497
0.04672808224
0.0465965432
0.04657348694
0.04655946637
0.04655469665
0.04656264456
0.04643546955
0.04640458746
0.04639194422
0.04638853029
0.04642476668
0.04629722059
0.0462258653
0.04625621016
0.04623965699
0.04623644287
0.0460441251
0.04604844778
0.04599016908
0.04604684653
0.0460405839
0.04591894411
0.04589100145
0.045844342
0.04587295512
0.04581954214
0.04569660033
0.04573661648
0.04570409758
0.04571317667
0.04573427496
0.04555368466
0.04553521332
0.04555720668
0.04552548436
0.04551457215
0.04538948086
0.04532706443
0.04531858602
0.04538314678
0.04536694672
0.04520022448
0.04518259827
0.04518283427
0.0452048182
0.04521605401
0.04500912268
0.04507273151
0.04506693077
0.04499844549
0.04505841885
0.04486687431
0.04488475167
0.04487323552
0.04489107442
0.0448794878
0.04473474347
0.04470439636
0.04466555114
0.04468212798
0.0447079208
0.04453084484
0.0445532995
0.04453023059
0.04451208363
0.04455667783
0.0443776389
0.04436769253
0.04442163295
0.04438709455
0.04439647236
0.04422406514
0.04423967513
0.04427044654
0.04424158396
0.04420463003
0.0441019733
0.04410451011
0.04405872226
0.04411359325
0.04405654346
0.04393967101
0.04391621516
0.04395945627
0.04395862671
0.04390153112
0.0438135788
0.04381277219
0.04376081386
0.04381148755
0.04384579557
0.04363955525
0.0436271162
0.04363451802
0.04364092566
0.04365294926
0.04343266377
0.04349905983
0.04349614332
0.0435073198
0.04347364022
0.04336608032
0.04332536291
0.04332728421
0.04335299869
0.04331640212
0.04323236343
0.04321298614
0.04320187599
0.04321065723
0.04315519424
0.04306806792
0.04308560292
0.04302187577
0.0429874966
0.04306054272
0.04291630893
0.04290623981
0.04291125677
0.0428383721
0.04285389309
0.04276358054
0.04277778869
0.04273994632
0.04269542107
0.04274438032
0.04258432486
0.0426455337
0.04261644294
0.04259169922
0.04258029402
0.04244387749
0.04245056872
0.04244886651
0.04245926455
0.04243907063
0.04231034865
0.04231218397
0.0423242992
0.0423046994
0.0422881488
0.04216521728
0.04222338055
0.04216357232
0.04218876919
0.04216105736
0.04204864854
0.04203563746
0.04201509108
0.04204757683
0.04204588427
0.0419169662
0.04189431625
0.04190300725
0.04189549138
0.04194096359
0.04183049009
0.04174417985
0.0417319914
0.04172275105
0.04177393347
0.04162010865
0.0416189418
0.04163097772
0.04158847069
0.04162242805
0.04150132401
0.04150331262
0.04142905156
0.04144349134
0.04148963402
0.04129816117
0.04128733508
0.04133252877
0.04132782603
0.04135828849
0.04122304819
0.04120404304
0.04119305884
0.04122522883
0.04115290565
0.04110132696
0.04106762283
0.04108376502
0.04103801757
0.04109973585
0.04095095561
0.04092219503
0.04088647831
0.04094981719
0.040901298
0.04080284846
0.04079424727
0.04077976091
0.04074315078
0.0407451073
0.04064833956
0.04065558126
0.04065140044
0.04060333092
0.0406239007
0.04041914211
0.04043722792
0.04050853532
0.04047975077
0.04044432622
0.04036744538
0.04033076928
0.04035093471
0.04031285959
0.04034942041
0.04020347099
0.04015262947
0.04014880782
0.0401639374
0.04020295838
0.03991721881
0.03991864179
0.03998287635
0.03995962601
0.03995735961
)
;

boundaryField
{
    upperWall
    {
        type            calculated;
        value           nonuniform List<scalar> 5(0.03991721881 0.03991864179 0.03998287635 0.03995962601 0.03995735961);
    }
    lowerWall
    {
        type            calculated;
        value           nonuniform List<scalar> 5(0.06071440643 0.0606321774 0.06064638453 0.06067284043 0.06065483145);
    }
    periodicX_half0
    {
        type            cyclic;
    }
    periodicX_half1
    {
        type            cyclic;
    }
    frontAndBack
    {
        type            empty;
    }
}


// ************************************************************************* //
