/*--------------------------------*- C++ -*----------------------------------*\
| =========                 |                                                 |
| \\      /  F ield         | OpenFOAM: The Open Source CFD Toolbox           |
|  \\    /   O peration     | Version:  v1706                                 |
|   \\  /    A nd           | Web:      www.OpenFOAM.com                      |
|    \\/     M anipulation  |                                                 |
\*---------------------------------------------------------------------------*/
FoamFile
{
    version     2.0;
    format      ascii;
    class       volScalarField;
    location    "5";
    object      SOF_N2;
}
// * * * * * * * * * * * * * * * * * * * * * * * * * * * * * * * * * * * * * //

dimensions      [0 0 0 0 0 0 0];


internalField   nonuniform List<scalar> 
500
(
0.03034966794
0.03030741421
0.03029276201
0.0303181592
0.03032253933
0.03010420959
0.03006265217
0.03008680379
0.03004108934
0.03005719617
0.02984385544
0.02987383848
0.0298438961
0.02983294201
0.02984986401
0.02965651266
0.02964510337
0.02966957627
0.02963276057
0.02967706458
0.02950357604
0.02948828733
0.0294689868
0.02949303057
0.02950352042
0.02933045709
0.02935661922
0.02934239951
0.02932128609
0.02930835333
0.02913238581
0.02916362183
0.0291517083
0.02916496124
0.02917462903
0.02898989812
0.02898110846
0.02898983651
0.02902231286
0.02900258378
0.02882302825
0.02883163726
0.02882390269
0.02886604111
0.02884111027
0.02869527085
0.0286953634
0.02870688757
0.0287003441
0.02871381193
0.02850704966
0.02848784963
0.02851404523
0.02851728108
0.02852314951
0.02835740087
0.02840503817
0.02839538094
0.02836594548
0.02835309749
0.02824244169
0.02822846284
0.02821634133
0.02821538488
0.02824839209
0.028083665
0.02808514954
0.02807000894
0.0281281244
0.02811413456
0.02792965581
0.02794566262
0.02795646206
0.0279116145
0.02792253635
0.02775839719
0.02776714253
0.02779261276
0.02781583
0.02783164244
0.02765079025
0.02768390527
0.0276788937
0.02771619145
0.02766360983
0.0275330826
0.02753572591
0.0275419481
0.02755111648
0.02756316208
0.0274203873
0.02741575952
0.0274182118
0.0273913912
0.02735173837
0.0272599619
0.02726681307
0.0272837923
0.0272612131
0.02723183961
0.02714815226
0.02715546956
0.02715536495
0.02713265015
0.02711074319
0.0269869264
0.02696844171
0.02701011715
0.02700335496
0.02701099018
0.02688485475
0.02690751711
0.02686773287
0.02689129416
0.02686758604
0.02678006939
0.02674441079
0.02676478108
0.02674890544
0.02674983446
0.02662894517
0.0266251499
0.02658918791
0.02658421851
0.02661809932
0.02651992715
0.02652870833
0.02650921092
0.02646980562
0.0264863202
0.02639969908
0.02636481167
0.02637125532
0.02637444951
0.02634186221
0.02624755613
0.02624494226
0.02624626301
0.02626057991
0.02628246074
0.02613526754
0.02615092326
0.02615708087
0.02614063283
0.02615984359
0.02602702916
0.02606267916
0.02606184493
0.02601577765
0.02602276314
0.02590816713
0.0259192256
0.02592313986
0.02589457635
0.02592050615
0.0258084596
0.02579315149
0.0257854796
0.02577911483
0.02580678979
0.02567242407
0.02566094802
0.02570025488
0.02567502154
0.02571364112
0.02555147323
0.0255489872
0.02556425405
0.0255553678
0.02556355391
0.02542223997
0.02545301417
0.0254474621
0.0254343252
0.02544948928
0.02535658337
0.0253363158
0.02536964822
0.02532442524
0.02531803345
0.02522357883
0.02522516063
0.02522142461
0.02523579473
0.02524941855
0.02511519567
0.02513640413
0.02511145517
0.02514743533
0.02511124621
0.02500873527
0.02501410534
0.02500560355
0.02503958225
0.02503675178
0.02491320835
0.02491175767
0.0249371265
0.0249025545
0.02491100614
0.02482044782
0.02481284498
0.02484961691
0.02482397531
0.02479997492
0.02471655939
0.02468216825
0.02471487962
0.02470942384
0.02470331791
0.02457209087
0.02460743054
0.02462946811
0.02457938679
0.02459543991
0.02451488758
0.02448556615
0.0245211679
0.02449104866
0.02449575576
0.02442758744
0.02442489455
0.02443402216
0.02440631524
0.02440225637
0.02436197868
0.02429111865
0.02428770798
0.02433863298
0.02429874116
0.02420865256
0.02419774505
0.02418645445
0.02422211521
0.02419715482
0.02408575952
0.02414003875
0.02410781298
0.0241316913
0.02410676501
0.02399804325
0.02400617301
0.02402537211
0.02402908526
0.02402531021
0.02391903752
0.02389712437
0.0239094992
0.02393109612
0.02386740357
0.02381108647
0.02381851034
0.02382740531
0.02383425256
0.0238189825
0.02373387456
0.02373071606
0.02372614417
0.02374090601
0.02376068789
0.0236285647
0.02362450726
0.02361256323
0.02365000522
0.02366797839
0.02353672154
0.02353567315
0.02351870665
0.02353834737
0.02356851663
0.02346251562
0.02344394414
0.02345518375
0.02341977133
0.02345836952
0.02334763124
0.02338949796
0.02335207793
0.02333459792
0.02333598911
0.02327944272
0.02325679959
0.02325526089
0.02326140367
0.02325819477
0.02320607024
0.02318866838
0.02319191575
0.02318504463
0.02318679569
0.02313197329
0.02311683641
0.02312038202
0.02310979958
0.02310077077
0.02302013021
0.02302534416
0.02297738641
0.02301410685
0.02300374596
0.02293507
0.02291156425
0.02290992303
0.02294014174
0.02290405474
0.02283399796
0.02284930318
0.02284794918
0.02283397021
0.02286091047
0.02276414422
0.02274584139
0.0227634007
0.02274862963
0.02274506615
0.02268203412
0.02263950106
0.02263365249
0.02266134326
0.02265045959
0.02259678119
0.02258028066
0.02258712599
0.02258359762
0.02259559622
0.02249726963
0.02252200981
0.0225341239
0.02247764531
0.02252702528
0.02242538915
0.0224255401
0.02242779089
0.02242874509
0.02244048223
0.02235291353
0.02233612035
0.02232317188
0.0223086423
0.02234264401
0.0222263473
0.02224452402
0.02226043521
0.02222695592
0.02225697426
0.02216675562
0.02216621044
0.02218694563
0.02217601026
0.02219342815
0.0220906743
0.02211816896
0.02212361161
0.02210807394
0.02208040291
0.02204348518
0.02203923457
0.02202640913
0.02204034521
0.02199654798
0.02195228545
0.02193754736
0.0219532747
0.02195201143
0.02192327309
0.02189666388
0.02189148545
0.0218538542
0.02187766364
0.02190180079
0.02180015655
0.02178023027
0.02180285887
0.02178942319
0.02180571897
0.02169427236
0.02171341044
0.02172624854
0.02173915626
0.021721132
0.02167575279
0.02164291212
0.02165302749
0.02167349421
0.02164259141
0.02160886149
0.02159044065
0.02158692402
0.02160433881
0.02156974937
0.02152496343
0.02153019971
0.02149155614
0.02148387502
0.0215350906
0.02144360531
0.02143183732
0.02145675431
0.02141794722
0.02143618044
0.02138225409
0.02138011178
0.02135282134
0.0213474233
0.02136275665
0.02128578245
0.02130515697
0.02129708426
0.02126744108
0.02127510011
0.0212092034
0.0212191228
0.0212210827
0.02123113857
0.02119345247
0.02116050061
0.02114547614
0.02114360549
0.02115101259
0.02112293512
0.02107162282
0.02109792311
0.0210701875
0.02108701317
0.02107802433
0.02101463361
0.0210070552
0.02099046209
0.02099394448
0.02101075941
0.02095110562
0.02094056799
0.02093473471
0.02093993693
0.02095491995
0.02090761812
0.02086030448
0.02085854958
0.02085740982
0.02087895415
0.02079219535
0.02078222752
0.02080582846
0.02077367772
0.02079462827
0.02073323009
0.020710879
0.02070066983
0.02069252097
0.02073311501
0.02063682609
0.02061375816
0.02064142298
0.02064630508
0.02065831862
0.02060812921
0.0205811959
0.02056714572
0.02059307668
0.02056733013
0.02053696259
0.02050856871
0.02050758689
0.02047817562
0.02053018447
0.02045759756
0.02043132912
0.02041855543
0.02044547604
0.02042007391
0.02037624318
0.02036232523
0.02036325517
0.02034910023
0.02034494879
0.02029327092
0.0203005621
0.02029624504
0.02026838808
0.02027713917
0.02018558397
0.0201998784
0.02022216313
0.02022271532
0.02021169175
0.02017154212
0.02013257211
0.02015631904
0.02012648528
0.02016141512
0.02008378762
0.02003458622
0.02004517203
0.02006632457
0.02009361287
0.01993504977
0.01992507501
0.01998421453
0.01995526236
0.0199524295
)
;

boundaryField
{
    upperWall
    {
        type            calculated;
        value           nonuniform List<scalar> 5(0.01993504977 0.01992507501 0.01998421453 0.01995526236 0.0199524295);
    }
    lowerWall
    {
        type            calculated;
        value           nonuniform List<scalar> 5(0.03034966794 0.03030741421 0.03029276201 0.0303181592 0.03032253933);
    }
    periodicX_half0
    {
        type            cyclic;
    }
    periodicX_half1
    {
        type            cyclic;
    }
    frontAndBack
    {
        type            empty;
    }
}


// ************************************************************************* //
