/*--------------------------------*- C++ -*----------------------------------*\
| =========                 |                                                 |
| \\      /  F ield         | OpenFOAM: The Open Source CFD Toolbox           |
|  \\    /   O peration     | Version:  v1706                                 |
|   \\  /    A nd           | Web:      www.OpenFOAM.com                      |
|    \\/     M anipulation  |                                                 |
\*---------------------------------------------------------------------------*/
FoamFile
{
    version     2.0;
    format      ascii;
    class       volScalarField;
    location    "5";
    object      SOF_O2;
}
// * * * * * * * * * * * * * * * * * * * * * * * * * * * * * * * * * * * * * //

dimensions      [0 0 0 0 0 0 0];


internalField   nonuniform List<scalar> 
500
(
0.03036474245
0.03032476458
0.03035362278
0.03035468639
0.03033229501
0.03011187048
0.0301055708
0.03009804712
0.0300575979
0.03007995283
0.02987074321
0.02990889274
0.02986866303
0.0298907508
0.02987749028
0.02968216303
0.02968990476
0.02966961495
0.02969506276
0.02968617484
0.02948432164
0.02952287963
0.02950029466
0.02952424711
0.02948904479
0.02931173058
0.02933287759
0.02931106428
0.02930516154
0.02928059583
0.02914546236
0.02913496817
0.02916399085
0.02916022263
0.02918179497
0.02900209568
0.02898645866
0.02902498113
0.02899608231
0.02895846843
0.02878082013
0.02883362698
0.02888680406
0.02882810604
0.0288386509
0.02868367954
0.02869683942
0.02868921732
0.02868950885
0.02868069056
0.02851412291
0.02850715118
0.02852504687
0.02848198699
0.02853488963
0.02834835963
0.02843003851
0.02840463567
0.02838804939
0.02838717996
0.02825901332
0.0282642908
0.02827000332
0.02825635475
0.0282460787
0.0280664828
0.02808059434
0.028052717
0.02808682541
0.02808833583
0.02796475742
0.02794840447
0.02802214758
0.02791705802
0.02793449903
0.02778901963
0.02778566098
0.02783354424
0.0278205942
0.02784595576
0.02766076529
0.02767184035
0.02768287894
0.02770660468
0.02769938163
0.02754628457
0.02753423799
0.02753259084
0.02748993248
0.02753158796
0.02741986937
0.02742952245
0.02740583669
0.02743606878
0.02737509999
0.02729071648
0.02727729875
0.02728574927
0.02726990815
0.02727702416
0.02713469522
0.02712969434
0.02714726417
0.02712159543
0.02715828279
0.02701082122
0.02702720773
0.02699586112
0.02698330021
0.0270403103
0.02690939748
0.02690345389
0.0268905838
0.02690701221
0.02690675612
0.02680277387
0.02678763027
0.02677303862
0.02675366792
0.0267495319
0.02663389882
0.02662429069
0.026625483
0.02663078021
0.0266331989
0.02651745433
0.02650127044
0.02651665479
0.0264934459
0.0265436579
0.02642445505
0.02637435735
0.02641154567
0.02638861164
0.02634806833
0.02627951413
0.02624418973
0.0262984847
0.02627473945
0.02626754274
0.0261610717
0.0261357066
0.02615316338
0.02617548514
0.0261704772
0.02604760721
0.02606193287
0.02604269674
0.02600760748
0.02604780249
0.02588424989
0.02589786469
0.02591759951
0.02591087462
0.02591369616
0.02579316398
0.02578903178
0.0258220768
0.0258144307
0.02583134561
0.02570305241
0.02566703544
0.02572126341
0.02569852961
0.02569140125
0.02557185879
0.02557637932
0.02558508168
0.02556787144
0.02556674241
0.02546094941
0.02547549427
0.02548365336
0.02545584478
0.02546035668
0.02535645304
0.02535068539
0.02536856927
0.02533914578
0.02533555842
0.02522985229
0.025235883
0.02523957892
0.02522865288
0.0252438481
0.02513021628
0.0251372838
0.02509569127
0.02516261187
0.02514695471
0.02499694622
0.02503549745
0.02501892281
0.02504932868
0.02502225854
0.02491913823
0.02492903852
0.02495972022
0.02491329588
0.02492643302
0.02479413006
0.02482351352
0.02482127482
0.02482088771
0.02482546713
0.02471163179
0.02473281793
0.02471668215
0.02472335597
0.02471666898
0.02462858144
0.02462989204
0.02463026007
0.02457140227
0.02464643473
0.024486802
0.02449745643
0.0245241924
0.02452025404
0.02449975828
0.02441771637
0.02440372866
0.02442147789
0.02438112367
0.02440822218
0.0243472943
0.02430326737
0.02433794708
0.02429761608
0.02433175702
0.02424528427
0.0241750215
0.02420459728
0.02423201835
0.02423821089
0.02410260875
0.02411232792
0.02413277474
0.02409563488
0.02412054662
0.02397378683
0.02401994943
0.02401115509
0.02399061737
0.0240213366
0.02393960606
0.02390650266
0.02390156812
0.02391676477
0.02389850838
0.02383215007
0.02382842793
0.02385098561
0.02383040264
0.02383898646
0.02376568683
0.02377210669
0.02373312852
0.02374383348
0.02375781025
0.02366996956
0.023625395
0.02363060604
0.02364952434
0.0236568357
0.02355737934
0.02354952868
0.02350059551
0.02354958246
0.02352289341
0.02346625248
0.0234737455
0.02345917826
0.02343676885
0.02347622708
0.02338340952
0.02338530173
0.02338468328
0.02339929782
0.02339209579
0.02331710167
0.02331668839
0.02330420867
0.02329329468
0.02330445142
0.02322940111
0.02321592033
0.02320002911
0.02320348846
0.02323797584
0.02316524993
0.02310903088
0.02313583058
0.02312986171
0.02313567253
0.02302399586
0.02302310728
0.02301278462
0.02303274106
0.02303684092
0.02298387676
0.02297944008
0.0229344211
0.02293281463
0.02291549451
0.02286260271
0.02288731638
0.02285615025
0.02287920748
0.02287336627
0.02278954225
0.02278937243
0.02279380879
0.02277685571
0.02276951111
0.02270744718
0.02268756459
0.02268493402
0.02272180577
0.02271648876
0.02260344735
0.02260231855
0.02259570947
0.02262122471
0.0226204624
0.02251185374
0.0225507222
0.02253281051
0.0225208011
0.02253139571
0.02244148615
0.02245921322
0.0224454477
0.02246233457
0.02243900695
0.0223818318
0.02236828227
0.02234238177
0.02237348901
0.02236527734
0.0223044988
0.02230877705
0.02226979843
0.02228512821
0.02229970404
0.02221088469
0.02220148386
0.02223469024
0.02221108585
0.02220304631
0.02213339211
0.02212150997
0.02214683619
0.02213351121
0.02212422882
0.02205848864
0.02206527618
0.02203231609
0.02207325184
0.02205999757
0.02198738649
0.02197866863
0.02200618409
0.02200661717
0.02197825919
0.02191692128
0.02192128752
0.02190696383
0.02193382693
0.02194399577
0.0218393992
0.02184688776
0.0218316602
0.02185150492
0.02184723119
0.02173839498
0.02178565114
0.02176989678
0.02176816519
0.02175251114
0.02169032825
0.02168245376
0.02167425974
0.02167950538
0.02167381181
0.02162350331
0.02162254656
0.02161495274
0.02160632093
0.0215854484
0.02154310725
0.02155540419
0.02153032108
0.02150362252
0.0215254542
0.0214727068
0.02147440295
0.02145450317
0.0214204303
0.02141771617
0.02138132946
0.02139768164
0.02138712799
0.0213480029
0.02138163944
0.02129854506
0.02134037791
0.02131935964
0.02132426093
0.02130519593
0.02123467719
0.02123145009
0.02122778482
0.02122813084
0.02124561925
0.02114984926
0.02116671256
0.02118069612
0.0211536914
0.0211652167
0.02109359604
0.02112545951
0.02109339005
0.02110175665
0.02108303682
0.02103401734
0.02102858544
0.02102463155
0.02105363346
0.02103512808
0.02096586348
0.02095375006
0.02096827671
0.02095555511
0.02098604611
0.02092287274
0.02088387608
0.02087344188
0.02086534348
0.02089498239
0.02082791407
0.02083671585
0.02082515053
0.02081479378
0.02082780136
0.02076809817
0.02079244088
0.02072838316
0.02075097394
0.02075652165
0.02066133579
0.02067357986
0.02069110623
0.02068152296
0.02069997866
0.02061492382
0.02062284731
0.02062591338
0.02063215362
0.02058557692
0.02056437181
0.02055905582
0.02057617989
0.02055984294
0.02056955607
0.02049336201
0.02049086719
0.02046792349
0.02050434218
0.02048122467
0.02042660783
0.02043192397
0.02041650769
0.02039405268
0.02040016247
0.02035507041
0.02035502018
0.02035515911
0.02033494647
0.02034676226
0.02023356229
0.02023735153
0.02028637437
0.0202570381
0.02023263635
0.02019590585
0.02019820331
0.02019461644
0.02018638049
0.02018800763
0.02011968439
0.02011804715
0.02010363746
0.02009761526
0.02010934911
0.0199821712
0.01999356705
0.01999866289
0.02000436429
0.0200049312
)
;

boundaryField
{
    upperWall
    {
        type            calculated;
        value           nonuniform List<scalar> 5(0.0199821712 0.01999356705 0.01999866289 0.02000436429 0.0200049312);
    }
    lowerWall
    {
        type            calculated;
        value           nonuniform List<scalar> 5(0.03036474245 0.03032476458 0.03035362278 0.03035468639 0.03033229501);
    }
    periodicX_half0
    {
        type            cyclic;
    }
    periodicX_half1
    {
        type            cyclic;
    }
    frontAndBack
    {
        type            empty;
    }
}


// ************************************************************************* //
