/*--------------------------------*- C++ -*----------------------------------*\
| =========                 |                                                 |
| \\      /  F ield         | OpenFOAM: The Open Source CFD Toolbox           |
|  \\    /   O peration     | Version:  v1706                                 |
|   \\  /    A nd           | Web:      www.OpenFOAM.com                      |
|    \\/     M anipulation  |                                                 |
\*---------------------------------------------------------------------------*/
FoamFile
{
    version     2.0;
    format      ascii;
    class       volScalarField;
    location    "5";
    object      translationalT_Mixture;
}
// * * * * * * * * * * * * * * * * * * * * * * * * * * * * * * * * * * * * * //

dimensions      [0 0 0 1 0 0 0];


internalField   nonuniform List<scalar> 
500
(
2072.886329
2072.478928
2073.217536
2072.565228
2073.257137
2087.788672
2088.178972
2087.275677
2088.301227
2089.359501
2100.578486
2100.059775
2100.692603
2100.633887
2100.927299
2112.989694
2112.772082
2112.441544
2113.383064
2112.088485
2123.172476
2124.045531
2124.498125
2123.849009
2122.557137
2133.27334
2134.216336
2133.811587
2132.656661
2133.43826
2144.75458
2144.012777
2144.044409
2144.141804
2143.62281
2154.716182
2154.70768
2153.318654
2154.131466
2154.689643
2163.745155
2164.597599
2163.433078
2163.603509
2163.47342
2173.103776
2173.533411
2172.884732
2173.381037
2173.662365
2183.547759
2182.316418
2183.874889
2182.740802
2182.159747
2192.675275
2192.407416
2192.361517
2192.122318
2191.916156
2200.659598
2201.555339
2200.638723
2201.134317
2201.279752
2211.242787
2211.642309
2211.316908
2211.514117
2210.582129
2219.859349
2219.524345
2218.614688
2219.807508
2219.445928
2229.857266
2229.4999
2228.404525
2229.648383
2227.938647
2239.357687
2238.925525
2237.523996
2237.675849
2238.602713
2247.911131
2247.35138
2247.782271
2247.668559
2247.079037
2255.781729
2256.077819
2256.456252
2256.296599
2257.104219
2265.058397
2265.097299
2264.601484
2265.278208
2265.486305
2273.982363
2273.799096
2273.908503
2273.472976
2274.352274
2283.305444
2283.170415
2282.659692
2283.950359
2284.392511
2290.125477
2290.46996
2291.021909
2291.650728
2290.708633
2300.265868
2300.004415
2299.260925
2300.21346
2300.387734
2309.61452
2309.249114
2308.225795
2309.45895
2308.33091
2317.503122
2317.112938
2317.605834
2318.936123
2316.997579
2325.504561
2327.052085
2325.953818
2326.077735
2327.109401
2336.070831
2335.290631
2335.743282
2335.12878
2334.085237
2343.569323
2343.340178
2344.226805
2342.854962
2342.743666
2352.377588
2351.901554
2351.758579
2352.349035
2352.174872
2361.095999
2360.493179
2360.109866
2359.948048
2359.495509
2369.565775
2368.188109
2369.411345
2369.495218
2367.568936
2377.420512
2378.004434
2376.543832
2377.272108
2377.281141
2386.43674
2385.609562
2386.19245
2386.732215
2386.182895
2394.563571
2394.233088
2393.941008
2393.879013
2394.453456
2402.926834
2402.011147
2402.84878
2403.773392
2404.188567
2411.514695
2412.005736
2412.124829
2411.029297
2412.31614
2419.872619
2420.838997
2420.633965
2419.436923
2419.291577
2428.636041
2428.988492
2428.866714
2427.965309
2428.055684
2435.397283
2435.494185
2435.276955
2436.597123
2436.693949
2445.030312
2443.932402
2445.371672
2444.036565
2444.26144
2452.682259
2451.444708
2452.3263
2451.810621
2452.447
2461.817847
2457.897121
2460.032443
2460.632481
2460.580338
2469.779833
2468.177127
2468.133185
2469.527826
2468.795726
2478.50702
2476.19264
2477.019743
2477.152786
2478.141408
2485.899605
2484.758448
2484.609824
2486.262668
2485.637777
2493.707083
2494.705576
2492.946498
2494.785028
2493.04069
2502.773304
2500.532784
2501.152129
2502.041154
2501.012868
2509.314776
2509.798243
2509.208635
2509.053603
2509.272583
2517.368012
2519.11061
2517.643884
2517.520645
2517.995733
2526.231952
2525.649496
2523.432774
2524.920285
2524.927395
2533.739347
2532.522334
2532.158092
2531.907642
2533.56704
2541.558145
2542.04714
2540.914324
2541.248263
2541.116065
2549.008766
2550.30535
2549.8091
2550.279712
2548.940865
2557.239502
2557.674266
2557.164493
2559.255621
2558.167654
2566.090615
2564.260545
2563.554486
2564.335686
2566.172711
2573.610667
2573.173176
2573.988353
2572.491723
2573.640739
2580.092091
2581.135985
2581.032722
2580.904047
2580.654207
2588.594512
2588.523131
2587.749717
2587.688652
2590.482582
2596.22997
2596.072048
2596.588136
2599.058453
2596.838073
2604.463087
2603.75392
2605.46757
2605.238309
2604.343411
2612.703568
2612.173831
2612.937685
2613.526105
2612.565051
2621.204334
2621.504646
2621.274139
2619.878924
2621.05351
2628.080617
2628.001544
2628.632719
2628.592567
2629.102597
2637.819594
2637.083615
2636.232976
2636.566154
2637.803426
2644.130509
2643.18046
2642.804705
2643.743704
2642.624715
2651.699574
2652.480169
2651.160948
2651.79827
2651.699412
2660.345203
2659.282846
2658.807379
2660.043695
2658.794726
2667.425567
2666.519079
2667.740643
2667.278559
2668.008953
2674.78668
2675.894987
2673.623695
2674.412059
2675.500878
2682.241638
2681.502365
2682.710712
2681.53745
2681.104946
2688.945782
2689.051041
2690.452618
2689.134207
2688.083402
2695.824218
2696.321989
2697.260594
2697.953031
2696.712559
2704.111428
2704.07188
2705.105418
2704.208535
2705.067917
2712.366718
2712.765217
2711.935877
2711.510777
2712.617825
2721.137433
2718.985998
2721.527219
2719.430388
2720.823455
2727.215203
2727.469303
2726.287595
2729.979784
2727.035903
2734.612548
2734.92044
2736.65322
2735.964833
2735.963462
2741.949684
2743.06901
2744.154266
2742.800988
2743.849557
2751.827911
2750.188224
2750.89633
2750.526562
2750.641035
2757.376487
2757.297106
2756.460529
2758.92714
2757.634737
2765.464934
2764.819654
2764.534928
2765.20695
2766.197887
2773.543629
2772.795747
2773.15968
2773.865495
2774.391009
2781.22187
2780.756985
2780.874941
2781.689013
2780.512562
2787.858201
2788.105424
2787.529193
2787.558677
2787.532211
2795.604517
2796.138143
2795.738915
2794.857756
2795.522275
2804.668529
2802.98195
2802.555378
2804.068514
2803.301431
2810.815052
2812.733331
2811.74395
2810.885948
2810.498602
2820.253087
2820.247514
2819.41208
2819.348309
2820.183444
2826.85817
2825.764298
2828.062358
2827.838602
2826.560125
2834.350048
2835.847402
2835.344925
2836.394349
2834.673546
2843.19912
2841.966739
2842.560812
2842.838206
2842.226734
2850.616066
2849.991146
2851.687396
2848.603192
2851.004002
2859.160264
2859.684055
2859.753965
2858.638559
2858.780536
2868.021737
2866.560507
2867.367104
2868.165161
2868.416411
2876.993774
2877.520161
2875.662523
2875.879516
2878.619176
2885.839379
2884.891602
2885.850202
2884.872374
2886.328366
2894.784726
2894.652361
2896.346864
2894.576284
2893.346826
2905.11961
2904.805635
2905.438611
2906.563035
2904.125545
2918.510761
2918.049085
2919.226549
2918.05772
2918.190996
)
;

boundaryField
{
    upperWall
    {
        type            calculated;
        value           nonuniform List<scalar> 5(2932.214427 2926.983709 2927.694984 2927.009494 2933.580971);
    }
    lowerWall
    {
        type            calculated;
        value           nonuniform List<scalar> 5(2063.799075 2063.800524 2062.821705 2060.061414 2063.59841);
    }
    periodicX_half0
    {
        type            cyclic;
    }
    periodicX_half1
    {
        type            cyclic;
    }
    frontAndBack
    {
        type            empty;
    }
}


// ************************************************************************* //
