/*--------------------------------*- C++ -*----------------------------------*\
| =========                 |                                                 |
| \\      /  F ield         | OpenFOAM: The Open Source CFD Toolbox           |
|  \\    /   O peration     | Version:  v1706                                 |
|   \\  /    A nd           | Web:      www.OpenFOAM.com                      |
|    \\/     M anipulation  |                                                 |
\*---------------------------------------------------------------------------*/
FoamFile
{
    version     2.0;
    format      ascii;
    class       volScalarField;
    location    "5";
    object      translationalT_O2;
}
// * * * * * * * * * * * * * * * * * * * * * * * * * * * * * * * * * * * * * //

dimensions      [0 0 0 1 0 0 0];


internalField   nonuniform List<scalar> 
500
(
2073.957376
2072.441163
2073.09234
2071.510188
2073.548497
2088.088616
2088.846242
2087.065893
2087.387586
2089.455936
2100.167949
2099.437417
2100.539426
2100.380592
2100.509231
2113.307959
2112.639902
2112.927064
2113.615597
2112.168171
2124.25966
2124.413447
2123.65016
2124.384956
2122.859438
2133.475502
2135.479726
2134.639799
2131.857402
2133.122724
2144.90058
2144.444175
2144.986789
2143.41688
2143.961602
2155.48987
2153.951301
2154.175523
2154.375288
2155.527124
2163.462981
2165.25236
2164.048473
2164.37225
2163.599193
2172.743837
2173.338533
2173.551662
2173.719716
2174.977411
2183.575961
2182.395756
2184.546253
2183.403539
2182.464702
2192.681519
2192.583736
2192.960552
2192.299313
2192.94978
2201.240817
2202.04709
2201.658193
2201.489588
2201.168318
2210.736702
2212.501773
2210.52362
2212.337612
2212.526444
2219.335511
2219.729314
2219.179099
2219.717133
2218.745435
2230.769483
2229.845988
2228.205351
2230.603088
2228.479054
2240.75028
2239.197192
2236.960863
2237.350899
2237.538527
2248.37094
2247.939432
2248.768064
2248.997583
2249.116598
2255.516747
2255.662281
2257.141746
2256.123735
2256.987685
2264.9841
2265.24681
2264.949473
2265.73506
2266.311324
2275.023293
2275.348866
2274.085963
2273.867923
2273.943864
2283.963765
2283.447324
2282.96878
2285.05222
2286.256803
2289.932067
2291.006762
2291.570057
2290.681177
2290.128877
2300.825061
2299.687399
2299.582511
2301.496348
2301.877941
2309.977424
2310.030798
2307.091886
2310.528757
2308.67427
2319.748211
2317.080532
2318.418486
2317.717675
2317.109841
2324.86128
2326.895159
2326.053203
2326.354854
2326.769952
2334.656113
2335.47464
2335.511678
2334.856867
2334.325549
2343.674039
2343.038264
2344.649597
2342.964577
2343.121311
2351.012768
2352.350318
2352.997457
2352.219007
2352.017385
2362.140112
2360.863381
2360.869744
2360.676546
2360.135788
2368.615581
2369.551124
2368.797865
2369.230246
2367.947832
2375.708247
2377.783779
2375.996697
2377.388421
2376.770339
2386.512205
2384.847474
2384.987676
2386.065722
2387.39065
2394.102807
2393.50035
2392.299598
2394.219086
2395.758502
2402.338961
2400.464618
2402.923785
2403.232444
2403.301191
2411.88985
2411.886677
2411.832189
2411.009539
2412.786273
2418.888429
2421.053346
2419.716367
2419.557225
2418.502463
2428.4558
2428.246212
2428.484227
2427.414292
2428.085472
2435.226412
2435.561048
2435.404499
2436.624703
2435.578608
2445.296562
2443.160649
2446.207988
2445.314723
2444.249346
2453.013719
2451.847113
2453.075383
2451.767503
2451.727406
2461.458763
2458.891909
2460.83139
2460.75649
2460.830776
2470.907899
2468.972633
2467.842122
2470.182919
2469.677949
2479.983873
2477.246471
2477.272169
2477.288887
2479.253302
2485.434666
2485.422264
2484.163778
2487.066979
2485.297347
2492.546968
2493.730741
2492.657803
2495.232387
2492.631083
2502.183658
2500.849762
2500.954823
2502.78062
2500.709483
2509.664164
2509.156632
2509.292076
2509.913835
2510.494192
2517.369925
2518.670834
2519.60111
2516.88688
2517.223224
2527.328795
2525.721546
2523.567439
2525.02589
2524.823479
2533.960796
2532.219629
2532.696361
2533.264335
2533.679468
2541.427895
2542.402849
2540.983258
2542.469349
2541.67012
2546.970019
2550.66501
2550.894409
2549.716649
2551.038543
2558.010972
2557.853062
2556.905702
2558.89713
2559.702162
2566.118666
2566.428604
2563.068736
2564.132672
2564.853484
2572.603442
2572.455242
2574.392978
2572.920758
2574.538423
2581.366888
2581.47244
2581.595665
2580.196808
2580.06876
2589.134017
2589.581941
2588.608375
2589.311548
2590.685173
2596.400115
2597.819646
2596.612098
2600.168609
2598.030044
2605.265745
2603.938496
2606.895093
2605.758623
2604.685176
2613.016396
2612.451711
2613.53334
2612.932135
2613.328607
2622.053958
2621.999072
2620.891348
2619.845344
2622.746995
2628.394674
2627.65288
2628.130891
2628.640174
2628.737033
2638.975045
2637.566731
2636.870686
2638.298321
2637.107115
2644.775325
2643.039128
2644.535608
2644.380634
2643.398934
2652.578628
2652.568943
2651.6815
2653.743876
2652.442639
2659.947877
2660.183333
2659.600926
2660.432783
2658.426421
2667.018654
2666.410436
2667.284988
2666.986305
2667.742767
2675.728865
2675.669958
2673.756588
2673.178418
2676.97867
2682.62357
2683.420668
2683.777311
2682.252129
2680.873113
2689.615756
2689.620876
2691.817984
2688.600957
2688.587109
2695.988634
2696.445813
2697.965854
2697.576245
2697.522421
2702.558689
2704.11507
2703.294535
2703.996413
2705.534688
2711.970577
2711.846581
2711.642742
2710.213747
2713.055472
2721.154098
2718.046257
2720.421906
2720.252125
2722.3501
2727.31756
2726.07568
2727.76954
2729.773015
2727.056388
2734.663597
2735.095526
2736.148422
2736.869195
2737.083112
2741.588609
2744.034717
2745.23169
2742.35549
2744.825874
2752.635998
2750.722156
2751.627708
2751.614686
2752.07753
2759.149879
2759.295318
2757.638703
2760.6717
2761.736995
2766.600619
2764.737295
2764.535819
2764.495526
2766.266613
2773.291836
2772.942763
2773.649359
2774.414339
2773.862556
2781.797253
2782.626364
2781.782094
2782.042631
2780.891587
2787.784593
2787.946972
2787.623494
2787.95572
2788.941101
2796.926984
2797.224505
2796.493413
2795.120888
2796.157195
2805.911773
2804.031378
2801.631759
2804.670191
2802.947932
2811.724822
2813.457826
2811.606694
2810.235273
2811.464888
2821.09363
2819.09861
2819.693678
2819.297474
2820.957585
2825.858073
2823.215744
2828.888746
2829.02721
2827.787499
2834.661892
2834.159059
2834.83361
2837.331613
2837.969093
2845.27723
2842.305169
2842.873955
2843.176823
2843.563528
2852.633361
2849.781689
2851.094153
2848.402035
2853.343883
2860.15294
2860.746538
2859.435926
2859.255878
2858.820999
2869.594664
2866.972004
2867.847461
2868.309413
2870.530155
2876.582285
2877.612349
2876.060515
2876.266563
2879.218511
2887.560554
2884.364903
2886.519301
2885.590828
2886.890997
2896.209473
2895.936601
2895.666883
2895.213212
2893.179601
2905.230373
2904.950691
2905.176943
2907.236117
2904.604871
2919.173455
2918.143806
2919.508867
2918.433992
2918.086169
)
;

boundaryField
{
    upperWall
    {
        type            calculated;
        value           nonuniform List<scalar> 5(2932.901642 2926.075317 2929.800143 2927.697178 2938.035982);
    }
    lowerWall
    {
        type            calculated;
        value           nonuniform List<scalar> 5(2065.111188 2063.315727 2062.062694 2057.183789 2061.994873);
    }
    periodicX_half0
    {
        type            cyclic;
    }
    periodicX_half1
    {
        type            cyclic;
    }
    frontAndBack
    {
        type            empty;
    }
}


// ************************************************************************* //
