/*--------------------------------*- C++ -*----------------------------------*\
| =========                 |                                                 |
| \\      /  F ield         | OpenFOAM: The Open Source CFD Toolbox           |
|  \\    /   O peration     | Version:  v1706                                 |
|   \\  /    A nd           | Web:      www.OpenFOAM.com                      |
|    \\/     M anipulation  |                                                 |
\*---------------------------------------------------------------------------*/
FoamFile
{
    version     2.0;
    format      ascii;
    class       volScalarField;
    location    "5";
    object      translationalT_N2;
}
// * * * * * * * * * * * * * * * * * * * * * * * * * * * * * * * * * * * * * //

dimensions      [0 0 0 1 0 0 0];


internalField   nonuniform List<scalar> 
500
(
2071.814045
2072.51632
2073.342916
2073.62048
2072.964892
2087.486982
2087.510214
2087.485158
2089.215021
2089.262802
2100.989097
2100.682471
2100.845483
2100.887144
2101.34553
2112.670683
2112.903902
2111.955234
2113.149525
2112.008536
2122.085486
2123.676642
2125.346722
2123.312236
2122.254324
2133.070997
2132.953297
2132.983687
2133.455279
2133.753326
2144.607622
2143.579068
2143.101164
2144.866444
2143.283092
2153.941431
2155.463294
2152.460397
2153.887736
2153.85316
2164.026816
2163.94163
2162.814936
2162.835418
2163.347328
2173.463044
2173.728005
2172.217946
2173.042148
2172.348439
2183.518934
2182.236976
2183.202963
2182.078594
2181.853196
2192.668325
2192.230685
2191.761788
2191.944641
2190.880731
2200.077375
2201.062159
2199.616488
2200.778204
2201.391143
2211.74836
2210.781902
2212.109366
2210.691529
2208.638626
2220.383563
2219.31872
2218.048406
2219.897447
2220.146082
2228.942642
2229.150323
2228.603939
2228.692917
2227.397664
2237.963922
2238.653623
2238.086785
2238.000562
2239.667422
2247.450806
2246.762681
2246.796081
2246.341528
2245.042473
2256.04541
2256.49266
2255.770929
2256.469473
2257.220798
2265.132707
2264.947667
2264.253235
2264.820475
2264.65945
2272.941382
2272.249811
2273.730148
2273.077808
2274.761243
2282.645774
2282.892748
2282.350323
2282.848117
2282.525188
2290.318707
2289.932337
2290.472814
2292.620642
2291.28833
2299.705934
2300.321631
2298.938364
2298.929841
2298.896892
2309.251255
2308.467141
2309.36066
2308.386952
2307.986013
2315.257176
2317.145205
2316.791577
2320.155005
2316.883927
2326.148003
2327.208583
2325.853793
2325.799872
2327.448855
2337.485975
2335.105598
2335.974848
2335.40015
2333.84451
2343.464409
2343.641419
2343.803785
2342.745062
2342.365705
2353.742482
2351.45261
2350.520205
2352.478687
2352.332416
2360.0519
2360.122903
2359.348953
2359.218145
2358.854962
2370.514581
2366.824317
2370.025314
2369.759745
2367.189581
2379.1341
2378.22507
2377.090463
2377.155023
2377.791322
2386.36057
2386.37194
2387.397354
2387.398144
2384.974635
2395.024746
2394.966088
2395.584052
2393.537621
2393.1459
2403.513918
2403.557016
2402.773769
2404.314034
2405.076048
2411.139268
2412.123799
2412.41676
2411.04903
2411.845126
2420.856502
2420.624516
2421.550019
2419.316303
2420.080746
2428.815861
2429.731225
2429.249333
2428.51638
2428.025399
2435.567845
2435.426137
2435.149052
2436.569072
2437.80888
2444.763666
2444.704268
2444.535884
2442.757641
2444.273527
2452.349441
2451.041343
2451.57549
2451.853211
2453.166429
2462.177369
2456.901072
2459.233131
2460.507664
2460.328489
2468.652197
2467.380201
2468.42399
2468.870923
2467.913144
2477.030169
2475.139059
2476.766978
2477.016555
2477.028841
2486.363668
2484.093221
2485.056724
2485.459241
2485.978233
2494.868107
2495.676371
2493.234289
2494.335397
2493.450045
2503.361524
2500.215629
2501.348713
2501.301906
2501.31605
2508.965244
2510.439294
2509.124594
2508.194033
2508.05032
2517.365834
2519.550374
2515.684509
2518.15327
2518.768596
2525.13366
2525.576994
2523.29538
2524.813259
2525.029524
2533.516866
2532.825102
2531.618909
2530.548251
2533.453503
2541.688114
2541.690879
2540.845234
2540.026899
2540.561456
2551.04724
2549.94339
2548.724079
2550.842893
2546.846136
2556.467729
2557.494906
2557.422174
2559.614243
2556.631123
2566.061851
2562.091457
2564.040615
2564.538923
2567.494407
2574.619272
2573.892633
2573.581453
2572.061376
2572.740753
2578.81566
2580.798589
2580.469376
2581.6107
2581.238799
2588.053089
2587.464079
2586.889569
2586.063118
2590.279497
2596.059349
2594.323796
2596.563215
2597.947111
2595.643398
2603.657657
2603.567444
2604.038108
2604.717649
2603.998144
2612.390214
2611.894043
2612.341038
2614.120864
2611.800401
2620.353104
2621.009105
2621.656134
2619.912075
2619.356579
2627.766024
2628.350391
2629.13552
2628.543746
2629.468479
2636.662213
2636.599639
2635.594562
2634.829966
2638.4984
2643.485059
2643.321732
2641.072983
2643.105219
2641.849474
2650.819623
2652.390452
2650.638556
2649.848256
2650.955709
2660.742164
2658.378188
2658.012086
2659.651869
2659.163167
2667.833326
2666.627255
2668.195024
2667.571348
2668.275437
2673.842156
2676.119493
2673.489053
2675.647304
2674.022013
2681.858363
2679.582899
2681.642676
2680.821495
2681.336397
2688.275215
2688.480297
2689.085905
2689.6664
2687.577247
2695.659071
2696.197511
2696.552483
2698.329825
2695.900261
2705.663014
2704.028229
2706.919472
2704.419661
2704.5998
2712.763355
2713.685952
2712.228878
2712.810705
2712.178934
2721.118869
2719.928203
2722.634047
2718.606877
2719.293736
2727.112403
2728.86445
2724.803222
2730.18615
2727.01481
2734.560739
2734.744536
2737.158339
2735.059295
2734.841478
2742.309633
2742.10191
2743.074448
2743.24645
2742.872835
2751.017212
2749.653069
2750.164799
2749.43574
2749.204465
2755.602422
2755.295811
2755.279224
2757.180607
2753.525019
2764.327487
2764.901516
2764.533517
2765.918899
2766.127975
2773.794054
2772.646384
2772.669364
2773.31417
2774.920244
2780.646203
2778.884094
2779.9651
2781.332867
2780.131163
2787.931016
2788.262952
2787.431908
2787.161053
2786.121439
2794.279973
2795.04922
2794.981924
2794.593277
2794.884945
2803.423206
2801.931151
2803.478387
2803.46612
2803.654108
2809.904409
2812.007766
2811.881275
2811.535724
2809.530108
2819.410852
2821.398902
2819.12953
2819.398785
2819.407339
2827.857803
2828.320517
2827.234236
2826.644984
2825.330268
2834.037449
2837.539723
2835.85729
2835.45457
2831.369249
2841.118699
2841.627562
2842.246648
2842.498126
2840.888423
2848.592861
2850.200142
2852.2817
2848.804587
2848.658382
2858.163809
2858.618027
2860.072444
2858.018961
2858.73961
2866.44408
2866.14652
2866.884402
2868.01935
2866.295795
2877.405516
2877.427122
2875.26123
2875.489093
2878.017446
2884.112421
2885.418153
2885.177801
2884.151264
2885.764116
2893.357247
2893.36069
2897.027798
2893.933861
2893.512879
2905.008037
2904.657623
2905.700048
2905.887553
2903.643733
2917.845297
2917.953879
2918.943395
2917.680165
2918.295438
)
;

boundaryField
{
    upperWall
    {
        type            calculated;
        value           nonuniform List<scalar> 5(2931.522843 2927.886867 2925.579122 2926.313646 2929.108053);
    }
    lowerWall
    {
        type            calculated;
        value           nonuniform List<scalar> 5(2062.488397 2064.285869 2063.578013 2062.945733 2065.201703);
    }
    periodicX_half0
    {
        type            cyclic;
    }
    periodicX_half1
    {
        type            cyclic;
    }
    frontAndBack
    {
        type            empty;
    }
}


// ************************************************************************* //
