/*--------------------------------*- C++ -*----------------------------------*\
| =========                 |                                                 |
| \\      /  F ield         | OpenFOAM: The Open Source CFD Toolbox           |
|  \\    /   O peration     | Version:  v1706                                 |
|   \\  /    A nd           | Web:      www.OpenFOAM.com                      |
|    \\/     M anipulation  |                                                 |
\*---------------------------------------------------------------------------*/
FoamFile
{
    version     2.0;
    format      ascii;
    class       volVectorField;
    location    "5";
    object      UMean_N2;
}
// * * * * * * * * * * * * * * * * * * * * * * * * * * * * * * * * * * * * * //

dimensions      [0 1 -1 0 0 0 0];


internalField   nonuniform List<vector> 
500
(
(14.70778698 -0.05573719176 0.4558251049)
(14.78828069 -0.02091034949 0.686303738)
(15.23239083 -0.436522645 0.2917698282)
(15.05024132 0.9427646688 -0.09099696406)
(15.20140592 0.1303556283 -0.1173480548)
(18.94008625 0.4931457108 -0.3072277914)
(19.75795807 -0.2650091043 0.5360777915)
(19.23786877 0.1551100013 0.8408466717)
(19.97232875 -0.1270468214 -0.2262859303)
(19.20796004 -0.2113731716 0.5172501096)
(22.93149607 -0.2045025972 -0.4937292299)
(22.72891243 0.0616544636 -0.03163879283)
(22.50098293 -0.3844622573 0.8552167429)
(22.19354343 0.499141641 -0.158053492)
(22.70848563 0.2057551422 0.03622223963)
(25.67579919 -0.07236792511 -0.07416829089)
(26.12880447 -0.6489168454 0.5238805899)
(25.91781609 0.9669830953 0.7047937756)
(25.9504345 -0.3764358715 -0.04137421664)
(25.87230932 0.1140058806 -0.005893850435)
(29.52688009 -0.2728142998 0.7908533914)
(29.55151049 0.07551726655 0.8506207758)
(29.5766079 0.055094795 -0.08385064606)
(29.64653666 0.03144426207 -0.01261920273)
(29.27136941 0.1229549372 0.362754272)
(33.12237322 0.001115306465 0.6129531103)
(32.92306601 -0.4537329481 0.1480754637)
(32.97688572 0.6840617982 -0.6136222666)
(32.85937743 -0.1626582359 -0.1048545947)
(32.8922366 0.2392270127 0.06292370677)
(36.03921474 0.289535897 0.25680761)
(35.52937545 0.1312435135 0.8972688261)
(35.44794132 0.2549860128 -0.6510491654)
(35.93849461 -0.01868733626 -0.1479921528)
(35.08715684 -0.4583936467 -0.1329704417)
(38.70405204 -0.02244980169 -1.072135989)
(38.76786976 -0.1610386158 0.4202358486)
(39.01543887 0.225444084 0.3508337627)
(38.58521264 -0.1379041828 0.1044707829)
(38.95521473 -0.2584545478 -0.6231413777)
(42.05727686 -0.4557610788 -0.1575298727)
(42.63788862 0.07989015558 0.4353612431)
(42.73776661 -0.1959895892 0.1819184226)
(42.22696858 0.3874761983 -0.3804848576)
(42.68274081 -0.07587919594 -0.4022190206)
(44.73186811 -0.5558181904 0.1159731972)
(45.00967936 -0.005747680475 0.2006823327)
(44.41696734 0.23008512 0.1932118427)
(45.15906235 0.3878081377 0.1325962921)
(45.03452054 0.05580079081 0.07569024313)
(47.93136859 0.2818004361 0.601822456)
(47.63546815 -0.02489971675 0.8617741964)
(47.28440877 0.03135830899 0.1811662381)
(47.68401701 0.4913266814 -0.3658567643)
(47.2156691 -1.394676439 -0.172097853)
(50.04110366 -0.2707808037 0.2240127915)
(50.89608357 0.1488921168 0.6448048135)
(50.02755874 0.5351758138 0.3471229406)
(50.09797273 -0.4647208169 0.3707463024)
(50.37191493 -0.07006227614 0.5253941582)
(54.01782023 -0.7134844945 0.2697404716)
(54.15559454 0.33684331 -0.832972552)
(53.74156821 0.6779428251 1.258719604)
(54.16974871 0.2832712331 1.035684409)
(53.72589581 0.1270169057 0.1205107726)
(56.17850829 -0.188109568 -0.07546229731)
(56.07423887 -0.04025971732 -0.3398729785)
(56.52951546 0.05239921905 0.520027712)
(57.01334359 0.1470760768 0.8659569362)
(56.55543988 -0.4586265537 -0.092067817)
(59.47881079 0.154189019 0.8260709138)
(59.17556556 -0.7405844914 0.1854076327)
(59.49996869 0.7355065718 1.110639752)
(59.26135826 0.3228858056 0.1842240971)
(58.96982848 -0.2048660133 0.829558752)
(61.48462965 -0.04274056377 0.9560376255)
(61.37091858 -1.030843887 1.583374134)
(61.54528304 0.1484004593 0.2504964836)
(61.86580532 0.2693047973 0.9890860479)
(61.66018183 0.1407591405 -0.2061680645)
(65.10216339 -0.05690887005 -0.01513689229)
(64.98991595 0.3790910774 0.2307613087)
(64.75520359 0.05222822974 0.3791689378)
(64.8161206 -0.03783138511 -0.1416789077)
(65.23664227 0.3858489665 0.503895685)
(67.56736134 -0.1929340516 0.008704867241)
(67.5353908 -0.1128462534 -0.04891968744)
(67.83661344 -0.6608902512 0.1133361153)
(67.4914602 0.2372351599 -0.4223231882)
(67.49259144 0.6048395565 -0.05601952195)
(70.81710699 -0.3170547148 -0.4423660077)
(70.13386523 -0.1421485744 -0.4441489349)
(70.24733972 -0.1763753839 -0.1809907418)
(70.41798996 0.3561878027 0.1162592888)
(70.64987933 0.1658150331 0.2599793048)
(73.439633 0.2218092511 0.27109449)
(73.27003659 -0.2094735965 0.3744766013)
(73.47064185 -0.3610996547 -0.08577301711)
(73.81176389 0.2027010116 0.9264470325)
(73.69214267 0.3775812894 -0.1426088267)
(76.27370226 0.4197404477 0.5197130886)
(76.31080544 -0.3026789331 0.5471840725)
(76.97548036 -0.2355347375 0.7815730088)
(76.11193321 0.4044159509 0.4744700963)
(76.22541121 -0.2663182268 0.3641414587)
(79.75322886 0.3346680947 -0.2416587107)
(79.28655175 -0.1317182115 0.8564425182)
(78.78590212 -0.2873977242 0.3915184933)
(79.91037784 0.0923440066 0.8536278706)
(78.90147867 -0.002432776842 0.8140849689)
(82.2584023 0.3700758742 0.6270736609)
(81.79064537 0.04499063761 -0.3586961849)
(81.96659021 0.2168144465 0.0165134721)
(81.91307438 0.1232189713 0.3946107253)
(82.1138985 -0.4519965983 1.284811114)
(84.07591884 -0.09786427045 -0.4748641171)
(84.7024107 -0.129925401 0.5241002865)
(84.79786686 -0.03454384105 0.3023767589)
(84.74187703 -0.1784469407 0.4279884743)
(84.53750963 0.4752195566 0.2770740329)
(87.10232262 0.4703975206 0.8235004979)
(86.90859313 0.1618983587 0.9908686389)
(86.90922622 -0.1315692784 0.08400763401)
(87.52440837 -0.3029935827 0.2528745553)
(87.02667033 -0.1478927982 -0.6658973597)
(89.94333891 0.5461469667 0.4120852122)
(89.78645431 -0.2127242924 0.1649634414)
(89.95186571 -0.3197755288 1.546421127)
(90.54385573 -0.2445372513 0.2350907444)
(90.12688014 0.5443623513 0.432557828)
(92.62550156 0.6023481061 0.363789814)
(93.29950425 -0.2005922701 -0.3623042076)
(92.73711822 -0.7387026292 0.5080557783)
(92.349871 -0.7608776965 1.151701872)
(93.15851029 0.03706246772 0.3757449827)
(95.12803417 0.5874298192 0.1896851041)
(95.22968076 -0.1722555837 -0.5546037493)
(94.95985066 -0.4833323506 0.1369593593)
(95.38252185 0.2816598763 0.2070124338)
(94.95134848 1.049350846 0.591746179)
(98.46327208 0.0769231964 0.1748606827)
(98.0848807 -0.1814535805 0.1952528813)
(98.22887299 -0.02279907144 0.2478320061)
(98.03808519 -0.5975843549 0.1893179583)
(98.4522205 0.1018890003 0.3851734681)
(101.2172034 0.1672903151 0.7939787393)
(100.9512221 0.1513203223 0.1650511042)
(100.8323907 0.2273885121 0.2276118928)
(101.1502919 0.1806343257 1.073962429)
(100.887339 -0.3285553743 0.4062615031)
(104.054441 -0.2103903978 0.9548994452)
(104.1288434 0.1700150975 0.1074350962)
(104.0410909 -0.0003334930209 0.8542264072)
(104.1775287 -0.2567863111 0.6997889691)
(103.6677203 0.2255305057 0.3731010759)
(106.8170168 0.1032679049 0.2809321151)
(106.4111706 0.3648996748 0.2379576432)
(106.7084776 -0.05701523629 0.3336492966)
(106.2012297 -0.8963511791 0.9366543221)
(106.4700316 -0.2955309347 0.8106095231)
(109.3524573 0.1969102247 0.3643544463)
(109.3154965 0.334114863 0.6088013673)
(109.4188049 0.2318849872 0.894961143)
(109.566666 0.03465906142 1.053710005)
(109.5885747 -0.1597704544 1.169511973)
(112.4255716 0.4248620435 0.5595085217)
(112.3392919 -0.2986733175 0.3327616188)
(112.56489 0.205833051 1.197012973)
(111.9508416 0.1781494543 0.2630779953)
(112.1790328 -0.2875321289 1.412725096)
(114.229908 0.9560404976 0.6432052323)
(114.2966518 -0.2553274635 0.1517619135)
(114.3293777 0.1333847339 0.3522048517)
(115.2102514 -0.1537543958 0.5423021223)
(115.144001 -0.9799312661 0.4480776419)
(118.1338071 0.359235378 1.541530717)
(117.0792786 0.3076957965 1.619332273)
(117.2991239 -0.01558253308 0.9182369366)
(118.0322287 -0.1814766638 1.219168537)
(117.2421104 0.08839029148 0.797001502)
(119.7460116 0.1455191565 1.06648333)
(120.3731881 0.2493695211 1.324331268)
(120.7159911 -0.2510560959 1.220678359)
(119.9548192 -0.2343624324 1.942640826)
(119.3193589 0.248344536 1.285179855)
(122.627845 -0.07528862948 0.8225115355)
(122.4790703 -0.1570234936 1.089917148)
(122.1468223 0.7232863009 1.364133222)
(122.035375 -0.3728033226 0.5746799946)
(122.533262 0.2279449367 1.515409482)
(125.4763225 -0.5689979054 0.2726688392)
(125.7475562 0.01399427523 0.6746174974)
(124.7810208 0.4559086416 0.5355941735)
(125.4821427 0.0547813378 0.7601657837)
(125.6889192 -0.07227889762 1.531939981)
(127.4102607 -0.2533519383 0.5061402814)
(128.0632911 0.9116818953 0.2047446858)
(127.882756 0.2529621769 1.076931319)
(128.0602434 -0.2000573992 0.8705897542)
(127.5658072 -0.7288889993 0.4153698412)
(130.5133329 -0.5277015334 0.5623894129)
(130.4099543 0.3722650577 0.6278376197)
(130.0438815 0.2032483553 1.40960336)
(131.212801 -0.02509299864 1.234177837)
(130.5754508 0.002113823862 1.070875214)
(133.7896285 -0.9565560619 0.7218761143)
(133.3969078 0.4056836894 0.8154578777)
(133.9235696 0.1925921266 0.8326817515)
(133.7696305 0.4832632679 1.000579538)
(133.3915823 0.1793883204 1.153280079)
(135.6003467 0.2510336044 0.4296151103)
(135.8574744 -0.3102990053 0.730152092)
(136.3636692 -0.1203034412 1.284765556)
(136.1963025 0.9237727656 0.3863960205)
(136.2102349 -0.6547581233 0.2302883081)
(138.6401028 -0.1719413327 0.6141973752)
(138.3777896 -0.577158999 0.5433113032)
(138.6328508 -0.1056169426 0.01644203916)
(138.1554901 0.8095903535 0.6742884785)
(138.5183754 -0.4505087447 0.5148584597)
(141.2775791 -0.3750581986 0.09663841706)
(140.8798079 0.137595951 -0.1707744552)
(140.4862508 0.3114522988 0.8154731176)
(140.6588913 0.3360062658 0.8053609411)
(140.9144042 -0.5226506682 1.097733862)
(143.1731225 0.04645204615 0.4310786309)
(142.9768654 0.2085893787 -0.1724158358)
(143.0922952 0.02071694927 0.7912145643)
(143.5400656 0.3895890279 0.6919238426)
(143.1277455 -0.4566955441 0.9241687586)
(145.2110204 -0.137075304 0.5137059088)
(144.8699209 0.4969391687 -0.1004022513)
(145.4546697 0.09891996336 0.6616857245)
(145.2108253 -0.5277700994 0.9371519263)
(145.5958494 0.3129394791 0.1012073131)
(147.3285066 0.1157165669 0.2737684553)
(147.9068623 0.4674568877 1.177446196)
(147.8844001 -0.5518036409 1.091969125)
(147.8709588 0.002848825714 1.539732954)
(148.0132854 0.2490321328 0.743403434)
(150.6020737 -0.3900013278 1.331479302)
(150.6048028 -0.07346468688 1.202827269)
(150.4036886 -0.2949048488 1.074228779)
(149.6232477 -0.2150654683 0.7155754798)
(150.4010629 0.5263133026 1.290967748)
(153.3457663 -0.1656840427 0.7732867899)
(152.9160772 0.2472025832 0.6117382317)
(152.7360128 -0.4431847275 1.215271454)
(153.1246227 0.1553126304 1.323309459)
(153.1080392 -0.4736887676 1.434822099)
(156.0636472 0.1850870368 1.318602471)
(156.7240109 0.3525877292 0.6969426757)
(155.7948735 0.2324419692 1.958403698)
(155.9963438 -0.6457332553 1.810335654)
(156.0116964 0.2639901957 2.122299607)
(158.8163412 0.06013334568 1.429331413)
(159.0106562 0.3950969219 1.653678836)
(158.4448661 0.07980444026 0.7536425863)
(158.2975324 -0.2333509248 1.482813146)
(158.7091038 -0.2589938546 1.433656)
(161.0999111 -0.2874507226 0.6620535472)
(161.5823302 -0.09917814328 1.400609349)
(161.7772579 0.08430707193 0.7623465146)
(161.7751287 -0.2409523377 0.4756931884)
(160.9726946 0.03352479935 1.333646409)
(163.9520206 0.3937803852 1.711613514)
(163.4198839 0.06066197993 2.102130885)
(164.4356979 -0.356802662 1.44690838)
(164.0697812 0.6031497195 0.9617190264)
(164.4640981 -0.3585101431 0.4192167887)
(166.6707096 0.5282053589 0.928945156)
(166.9071382 -0.0904880883 0.7443081119)
(165.8500137 -0.080598946 0.2173079934)
(166.8098804 -0.1955293553 0.771960227)
(166.6213504 -0.1744754238 0.5384113165)
(169.2446734 0.3760912986 1.347669747)
(169.0416702 -0.2094100823 1.078778069)
(169.2792022 0.08144774754 0.4723819306)
(169.4007634 0.06518815076 1.445732311)
(169.4488895 -0.5641632212 1.739330754)
(171.3062311 -0.1053948267 0.9426107441)
(171.7933355 0.3826495397 1.036848519)
(171.3438353 -0.7881207706 0.8331497673)
(171.8291526 -0.1368823912 0.7041270381)
(171.803406 0.3246342329 1.306830613)
(174.3803822 -0.2099776229 1.443521305)
(173.9715843 -0.1973535038 0.8836076752)
(174.5828697 0.4131010939 1.038042023)
(173.4744833 -0.6142927551 0.5894042036)
(173.7143417 0.4293448018 1.013320476)
(176.1915351 0.3048765388 0.04973136047)
(176.5195576 0.3508683014 1.858999019)
(176.1179594 -0.4946572926 1.494198001)
(176.0149448 -0.3628994505 0.9097818738)
(176.6064033 0.02089804779 0.5636799608)
(178.8067071 -0.1067146766 -0.09434727482)
(178.968712 -0.2588976695 0.7161631975)
(178.3094794 0.06266360079 0.7204304806)
(179.3300655 -0.3593673535 0.5183002472)
(179.2370026 0.4213564953 0.2781629466)
(182.4457609 0.8428590185 -0.2543194968)
(182.0195094 0.4314499148 1.302460291)
(181.8361237 -0.2134404262 1.026275353)
(181.9623777 -0.07777280687 0.003337746647)
(181.3437309 -0.3694040949 -0.3311610968)
(184.9979633 -0.4678616173 0.5021852702)
(184.9623261 0.5336497944 0.03856225711)
(184.7197231 -0.1024219771 0.9160439027)
(184.5424814 -0.2793097088 0.2281530374)
(184.6608079 -0.1624937999 0.6484180548)
(187.0675653 -0.02836873779 1.03532507)
(187.0762287 -0.1585136941 0.6387238834)
(187.3980884 0.405020498 -0.5352096041)
(187.0834616 -0.1710395964 0.1815172704)
(186.6611049 0.6585173081 -0.01129760837)
(189.5460467 0.04900934968 0.2965186156)
(189.1892254 -0.4855885996 0.8113690667)
(189.5145911 0.4190094058 0.08877190278)
(189.3820339 -0.1332534543 -0.0152304047)
(189.1896136 0.15772447 -0.3174209027)
(192.1809085 0.07264917888 0.05018095971)
(192.0444175 0.1911323737 -0.6117046576)
(191.7247608 -0.2744149661 0.4257432076)
(191.6667093 0.1795246595 0.7240047705)
(191.8324054 -0.2594553704 0.7323919648)
(193.9220625 -0.1848012443 -0.6980720032)
(193.6255306 -0.08985464897 0.1546528086)
(193.984255 0.5777590467 0.6613800496)
(194.3667413 -0.1214564554 0.5504642103)
(194.9309343 -0.6379221004 0.1722527149)
(196.1691493 -0.07968862993 0.5082491783)
(197.2567713 0.6788875929 -0.1612024421)
(196.7847687 -0.1241524599 0.2262743655)
(196.1942729 0.08285737761 0.2770175448)
(196.3124863 -0.1440760728 0.7504880207)
(197.9633968 0.1287723952 0.6204493683)
(199.5354871 -0.7468571168 0.4629785239)
(198.700778 0.3972884047 -0.4402387506)
(199.2676786 -0.1399372658 1.152178118)
(199.0424889 -0.2206180143 0.4900632759)
(201.7483186 -0.1230218438 -0.3647913164)
(201.1449816 0.1726446365 0.5898215474)
(202.5994719 0.1151572428 -0.724521058)
(201.7763646 0.1455008725 -0.3691353732)
(201.9501992 0.1024474011 0.4494884877)
(204.1583476 -0.201103466 0.1522010107)
(204.5435323 0.3108002232 -0.4702607577)
(203.508297 -0.3075471505 -0.8715457534)
(204.2711448 0.2654741106 0.1456533701)
(204.1028495 -0.3764395128 0.4016684253)
(207.3015274 -0.1583787439 0.1325110466)
(207.0279631 0.3707058833 0.8279055105)
(206.6952503 0.1258853476 0.1625942689)
(206.6949539 -0.4737753551 0.3521462686)
(207.129887 0.7405954671 -0.0760265322)
(208.9304028 0.3375990961 0.3310381298)
(208.3700757 0.2652303392 0.7319942654)
(209.5008231 0.4182375006 0.9060400589)
(208.9115966 -0.5334282654 -0.9299777504)
(208.4713699 -0.3742324776 -0.9872587629)
(211.6699373 0.4010935218 0.6029451465)
(211.7466154 0.3253904023 0.3562903671)
(211.7979409 -0.9676147281 -0.01035487215)
(211.0103257 -0.3647289489 -0.5762916179)
(211.7187836 0.2506275027 -0.124780507)
(214.2183612 -0.4904557888 -0.900903065)
(214.8513559 0.2698517164 0.4662279749)
(214.4164606 0.7901787604 0.2038854408)
(215.2056219 0.2279683029 -0.2124790736)
(214.6096335 -0.2248289101 -0.1783452941)
(217.147496 -0.3744269216 0.6320732587)
(216.9869812 0.11029946 0.4114751365)
(217.1545143 0.1717605114 0.7295369017)
(217.3318259 0.2516427511 0.4972524279)
(216.8482277 -0.3269494759 -0.188489006)
(218.7415022 0.6417542197 0.1509318692)
(219.2235083 -0.4223431065 -0.03659335013)
(219.1121513 0.04017278493 0.4420316061)
(218.951979 0.3143907235 0.1089469945)
(218.8823151 -0.2447217747 -0.6575018166)
(222.5015147 -0.4050313348 0.4375892236)
(221.9339796 -0.1224485261 -0.05745339112)
(221.2667142 -0.009488566416 0.05993090334)
(222.9686251 0.0198266686 -0.6455244765)
(221.7407945 -0.1275713063 0.3102238509)
(224.0408929 -0.3438280716 0.7649901181)
(224.375 0.02889215545 0.8763851479)
(224.0995942 0.3656086341 -0.23313169)
(224.9853362 0.7820276541 0.3787193673)
(224.0950329 -0.02286873236 0.304852233)
(227.3338055 -0.012163656 0.4715269802)
(226.730227 -0.1720263842 0.1040141106)
(227.300522 -0.2179959307 0.1424391808)
(226.8932951 -0.4056493853 0.06272417456)
(227.5608654 0.7207867163 0.4231462942)
(229.0858216 -0.5256659776 0.4688138705)
(230.3071106 0.2292348166 0.0845840562)
(229.5296035 -0.2422109909 0.294020781)
(229.1353467 0.1617265289 0.8625468662)
(230.0421392 -0.5098976083 0.9219301372)
(231.2539965 -0.1127053787 0.6116808772)
(231.5149116 0.7681988096 0.5523438208)
(231.0092846 0.1030039663 1.035154563)
(230.935442 0.4137592325 1.06132654)
(231.6691155 -0.510051697 1.013563948)
(233.207559 -0.1309862714 0.9085060687)
(233.7197359 -0.04507310442 1.0215343)
(234.1963445 -0.03241263907 0.5350820401)
(234.5080757 -0.01638394022 1.249638102)
(234.8225371 -0.202337113 1.348535177)
(235.5994553 0.2574313686 0.7513597896)
(236.6125529 -0.1626821992 1.367769052)
(236.0928341 -0.1254206627 0.660668287)
(235.6706294 0.3431179167 0.8472079523)
(236.9551537 -0.09235489353 1.046065284)
(239.3924357 0.3034837917 1.173754737)
(238.7987148 0.1056546224 0.8090766496)
(239.5750336 -0.9444107709 -0.2461607194)
(239.0101811 0.9618791994 0.368073649)
(238.717499 -0.5091234698 1.323888533)
(241.6204749 0.03791109343 1.064191355)
(241.1674583 -0.2524929462 0.7076206979)
(241.160357 0.2540748783 0.7771843353)
(241.6636672 -0.02775411199 0.9166328908)
(241.0608701 0.3097909132 1.285152156)
(244.1272992 -0.241843298 0.6245676596)
(243.7633403 -0.9793656019 0.6694428382)
(244.1167444 0.7720480731 0.7271139607)
(243.3716499 0.3912773563 -0.2259517966)
(243.5653298 0.1543616757 0.5496536184)
(246.0492904 0.2031698352 0.3320195397)
(246.7673232 0.04477058661 0.4100580901)
(246.0742192 0.1533857196 1.089213219)
(246.2074126 -0.3239172613 0.03487669377)
(246.5311136 -0.2134897508 0.9272360044)
(249.4862782 -0.1159404991 0.2691130522)
(248.4894997 -0.03656786394 0.5304232662)
(249.4805735 0.1093942179 0.3463473701)
(248.8117556 0.0695006247 1.280887552)
(249.2340527 0.2785141424 1.015732395)
(252.0221339 0.1896152893 0.5010159241)
(252.3145147 0.2866648743 0.1340297741)
(252.0922216 0.3008689727 -0.4797303887)
(252.5549153 -0.9119992569 0.6275561946)
(251.8481053 -0.2381115958 -0.09338385837)
(253.5738467 -0.3899383461 -0.2363623982)
(254.8132072 0.1266201477 -0.1278553025)
(254.7342579 0.08933559591 0.5940386428)
(254.229352 -0.2304516567 0.3991705483)
(254.198415 -0.1514216048 -0.07655999587)
(256.3103603 -0.2048224641 -0.1553879679)
(257.4514246 -0.1671403563 0.2875803343)
(257.4132486 0.08398091367 0.3037015412)
(256.9661122 0.7813562351 0.2059700688)
(257.270879 -0.2554029459 0.566409425)
(258.6141616 -0.02998015914 -0.7740892828)
(259.6686216 -0.1615582775 0.2304465634)
(259.2062168 -0.1783912754 0.7569298447)
(259.7114458 0.68973659 -0.1001713326)
(260.1261407 0.7542592916 0.4872672498)
(261.5524655 -1.135347623 -0.08828505113)
(262.1211552 -0.05941252584 0.7050076472)
(262.504111 0.5901773366 0.2968830036)
(261.4051412 0.09990287412 0.5309639702)
(261.512566 -0.03061016068 0.07147477831)
(265.6770086 -0.6418832466 0.5516308268)
(264.8231942 -0.2697975061 0.8928416617)
(264.7658771 0.2593293997 -0.498677211)
(264.7240024 -0.3082551594 -0.4334370064)
(265.1842949 -0.101278576 0.1006837205)
(267.4549698 -0.4408880854 0.5193890652)
(266.8091308 0.3942897572 -0.1302881267)
(267.3724474 0.2668876604 -0.1131406173)
(267.6714665 0.3260334628 0.01366605143)
(267.1949046 -0.6105286188 0.180807871)
(270.5184591 0.5959595862 -0.456935507)
(269.1390178 0.3590878495 -0.5886399587)
(270.8641644 -0.2891160939 -0.6759767053)
(270.8565743 8.7700149e-05 0.3632808076)
(270.5561482 -0.171592962 -0.3163095413)
(273.1344526 0.3331617229 0.545785373)
(272.9189404 0.2393580661 -0.7337223082)
(272.8249731 -0.3177093263 -0.24895962)
(273.1411894 0.2755809969 -0.5369866192)
(272.6634224 -0.2459682492 -0.3479630559)
(274.993146 0.7904222494 0.1549813713)
(276.5528399 -0.3989902995 1.094522982)
(275.5747901 -0.4852582533 -0.1910194394)
(275.2143609 -0.6923172912 -0.9929718281)
(275.892404 0.8855799881 0.08598529229)
(277.9920503 0.1603122714 -0.04556845071)
(279.2939407 0.6551657663 0.04487350108)
(278.6335739 -0.3705403826 -0.4892100082)
(278.7974061 -0.6139982747 0.5661426395)
(278.2740163 -0.2799577442 -0.4338882115)
(282.853565 0.1291130066 0.1405852891)
(282.5948155 -0.2981785868 -0.165597798)
(282.334103 -0.1441960049 -0.07724772665)
(281.617692 -0.3751982839 -0.02702154291)
(282.1659704 0.8075419386 0.3418054848)
)
;

boundaryField
{
    upperWall
    {
        type            calculated;
        value           nonuniform List<vector> 5((283.7563857 0 -2.950114376) (285.0657282 0 -2.501075307) (283.76925 0 -0.8683026534) (286.6044223 0 -0.6656275515) (283.3536389 0 -2.42676525));
    }
    lowerWall
    {
        type            calculated;
        value           nonuniform List<vector> 5((11.55181898 0 0.4287962044) (12.16670845 0 0.7859957043) (12.64742213 0 -1.591458048) (12.93616758 0 -1.982096343) (12.09946209 0 -0.7895539517));
    }
    periodicX_half0
    {
        type            cyclic;
    }
    periodicX_half1
    {
        type            cyclic;
    }
    frontAndBack
    {
        type            empty;
    }
}


// ************************************************************************* //
