/*--------------------------------*- C++ -*----------------------------------*\
| =========                 |                                                 |
| \\      /  F ield         | OpenFOAM: The Open Source CFD Toolbox           |
|  \\    /   O peration     | Version:  v1706                                 |
|   \\  /    A nd           | Web:      www.OpenFOAM.com                      |
|    \\/     M anipulation  |                                                 |
\*---------------------------------------------------------------------------*/
FoamFile
{
    version     2.0;
    format      ascii;
    class       volScalarField;
    location    "5";
    object      variableHardSphereMeanFreePath_O2;
}
// * * * * * * * * * * * * * * * * * * * * * * * * * * * * * * * * * * * * * //

dimensions      [0 1 0 0 0 0 0];


internalField   nonuniform List<scalar> 
500
(
0.08590667678
0.08597689512
0.08588373244
0.08589248323
0.08592730771
0.08662274005
0.08660905875
0.08662498029
0.08671830784
0.08671362038
0.08723687898
0.08718031425
0.08725168167
0.08721272436
0.08726870908
0.08785365798
0.08783606912
0.08786840312
0.08777426153
0.08782930913
0.08839010622
0.08833474109
0.08835948112
0.08836450538
0.08842361374
0.08892736658
0.08892390407
0.08891031957
0.08887536833
0.08896089662
0.08940703266
0.08944243607
0.0893279449
0.08940365385
0.08934975591
0.08988122208
0.08993398236
0.0898341039
0.08991464221
0.09001480358
0.09054684324
0.09041659631
0.09031350517
0.09042880549
0.09042826827
0.09090298412
0.09086206718
0.09090942732
0.09087735132
0.09092498603
0.09139964317
0.09137041912
0.09139304591
0.09151698423
0.09135676335
0.09191556091
0.09181440358
0.09180780624
0.09183189433
0.09180108193
0.09228621134
0.09226868812
0.09224447879
0.09223179955
0.09232058882
0.09287562343
0.0928418107
0.09289002658
0.09283821842
0.09278350889
0.09323372422
0.09329874744
0.09308838552
0.09332242489
0.09325283261
0.09377240782
0.09375447163
0.09365039243
0.09370178913
0.09366112052
0.09420232939
0.094295924
0.09416499428
0.09415968045
0.09414728038
0.09465651613
0.09470282455
0.09473042674
0.09481312682
0.09473158025
0.09514464664
0.09508343046
0.09516275892
0.09507828429
0.09516121811
0.09551117679
0.09556659477
0.0956017758
0.09557195753
0.09552772209
0.0960409912
0.09609605062
0.09604783616
0.09606878774
0.09600587984
0.09651041809
0.09640557037
0.0965367067
0.09658512957
0.09645611994
0.09690461152
0.09697578422
0.09690203198
0.0969341679
0.09689190909
0.09737691397
0.09733989454
0.0974000717
0.09744125926
0.09742254691
0.09792484245
0.09792677706
0.09786857018
0.09782451613
0.09784683991
0.09837599544
0.09836616584
0.09836263159
0.09836245114
0.09824004138
0.09870043186
0.09881243871
0.09869778266
0.09873640095
0.09883876067
0.0992013023
0.09929494077
0.09916820467
0.09924451971
0.0992616984
0.09963552916
0.09971920589
0.09968851296
0.09959496988
0.09973634887
0.1000388397
0.1000484743
0.1001221707
0.1002383201
0.1000950239
0.1006934833
0.1006359382
0.1006215255
0.1005689808
0.100589078
0.1010729629
0.1010555184
0.1009783105
0.1010008305
0.1009161133
0.1014496167
0.1015432536
0.1014079031
0.1015126253
0.1015122107
0.1019046449
0.1019358309
0.1019296032
0.1019437952
0.1019783967
0.1023860827
0.1023632705
0.1023130644
0.1024459246
0.1024695708
0.1028198646
0.1028085993
0.1028602778
0.1029206508
0.1029396114
0.1032967069
0.1033316386
0.103338179
0.103310416
0.1033053949
0.1037426204
0.1037665265
0.1037713966
0.1036564165
0.1036129909
0.1042118106
0.1041557776
0.1041514093
0.1041130262
0.1041969485
0.1046194087
0.1045732317
0.1045417493
0.1045963847
0.1046045879
0.1051283962
0.1050073589
0.1050509372
0.1050665951
0.105005352
0.1055195539
0.1053687542
0.1054779478
0.1054659741
0.1054386036
0.1058487838
0.1058181811
0.1059007065
0.1059811296
0.1058338362
0.1064427167
0.1063372209
0.106282263
0.106340725
0.1063955298
0.1068316698
0.1068086642
0.1067901117
0.1069022674
0.106785078
0.1072001273
0.1072374529
0.1071214732
0.1072851995
0.1071592598
0.1075931526
0.1077440085
0.1076608426
0.1076516637
0.1075898439
0.1081260847
0.1081400438
0.1080076198
0.1081999897
0.1080580455
0.1086911894
0.1085351082
0.1085588561
0.10860529
0.1085759294
0.1089125323
0.109055814
0.1089942444
0.108971927
0.108956046
0.1093921859
0.1093884058
0.1093080543
0.109392513
0.1093669187
0.1097006815
0.1097522953
0.1097731847
0.1098106177
0.109822932
0.1101543633
0.1103088398
0.1102890676
0.1102458396
0.1102467296
0.1106419262
0.1107301493
0.1107915503
0.1106997087
0.1108528669
0.1110841715
0.1110546468
0.1111287803
0.11123312
0.1110772594
0.1114547994
0.1114957989
0.1114488515
0.1113579976
0.1114608725
0.1118626686
0.1117798319
0.1118499512
0.111908733
0.1118688199
0.1122837928
0.1123055682
0.1123282932
0.1123764005
0.1122264571
0.1126357014
0.112790712
0.1126939236
0.1127395334
0.1126484081
0.113235486
0.1132046766
0.1131648604
0.1132201933
0.1131468469
0.1135215937
0.1135156253
0.1136317047
0.1137245956
0.1137191695
0.1140551158
0.1139727832
0.1140820765
0.1140080327
0.1139961063
0.1144400867
0.1143471302
0.114454326
0.1144361119
0.114483372
0.11479181
0.1148299638
0.1149025187
0.1147651601
0.114838105
0.1153522664
0.1153383858
0.1153961266
0.1152848942
0.1152858605
0.1157122527
0.1157134193
0.115737053
0.1156166383
0.1157678621
0.1161690979
0.116078808
0.1161804042
0.11614725
0.1162150221
0.1165536581
0.1165346525
0.1165605305
0.1164609119
0.1165248396
0.1168974684
0.1168783963
0.1169988994
0.1169649802
0.1169644289
0.1173129749
0.1174260258
0.1172543107
0.1173861511
0.1173910551
0.1177540062
0.1178329189
0.1177728078
0.1178005848
0.1177691245
0.1182052354
0.1181473399
0.118267495
0.1181225701
0.1181357711
0.1185513952
0.118501404
0.1184769067
0.1184941484
0.1185395832
0.118947289
0.1189458222
0.1189464749
0.1189120542
0.1189081767
0.1193219813
0.1193138639
0.1193862864
0.1192667583
0.1193094995
0.1198565791
0.1196557971
0.1197964783
0.1197432474
0.1198105414
0.1202494213
0.120215678
0.1202825235
0.1202793187
0.1202076697
0.1206149347
0.1205527225
0.1206913406
0.1207317612
0.1206715454
0.1210074392
0.121002642
0.1210422946
0.1211316421
0.1212364609
0.1214475844
0.1213374643
0.1215709686
0.1216193053
0.1216539117
0.1219355274
0.1218250147
0.1218088703
0.1219624299
0.1219143646
0.1223906329
0.1222775415
0.1222420768
0.1222621947
0.1222969886
0.1226729709
0.1227907192
0.1227498208
0.1227989537
0.1226968411
0.1232630148
0.1231624434
0.1231201503
0.1232139104
0.1231161653
0.1235651215
0.1234717886
0.1235391294
0.1235252643
0.123586998
0.1240096486
0.1239526051
0.123997794
0.12380593
0.1239203424
0.1243355963
0.1244131759
0.1243903166
0.1243923149
0.1242550266
0.1247352752
0.1247845366
0.1248749092
0.1248557053
0.1247307669
0.1251484111
0.1251451184
0.1251971833
0.1251889217
0.1252023027
0.1255233049
0.1253826877
0.1257258854
0.1256010901
0.1256066382
0.1260728739
0.12594706
0.1259733521
0.1260246521
0.1259592703
0.1265318601
0.1264285575
0.1263113067
0.1263559199
0.1265383611
0.1267996942
0.1268425396
0.1267606116
0.126664296
0.126750752
0.1272747696
0.1271857895
0.1273326691
0.1272231716
0.1272302361
0.1276798562
0.127545237
0.127711596
0.1277901791
0.1277565782
0.1280870224
0.128123253
0.1281118362
0.128179914
0.1281278439
0.1287224894
0.1286870369
0.1285200498
0.1286640565
0.1287438967
0.1291752453
0.1290907542
0.1291232084
0.129043901
0.1292005882
0.1296569882
0.1295638515
0.1296565108
0.1297183373
0.1296572147
0.1303673055
0.1303017105
0.1303907384
0.130259586
0.1302212069
)
;

boundaryField
{
    upperWall
    {
        type            calculated;
        value           nonuniform List<scalar> 5(0.1303673055 0.1303017105 0.1303907384 0.130259586 0.1302212069);
    }
    lowerWall
    {
        type            calculated;
        value           nonuniform List<scalar> 5(0.08590667678 0.08597689512 0.08588373244 0.08589248323 0.08592730771);
    }
    periodicX_half0
    {
        type            cyclic;
    }
    periodicX_half1
    {
        type            cyclic;
    }
    frontAndBack
    {
        type            empty;
    }
}


// ************************************************************************* //
