/*--------------------------------*- C++ -*----------------------------------*\
| =========                 |                                                 |
| \\      /  F ield         | OpenFOAM: The Open Source CFD Toolbox           |
|  \\    /   O peration     | Version:  v1706                                 |
|   \\  /    A nd           | Web:      www.OpenFOAM.com                      |
|    \\/     M anipulation  |                                                 |
\*---------------------------------------------------------------------------*/
FoamFile
{
    version     2.0;
    format      ascii;
    class       volScalarField;
    location    "1e-06";
    object      rhoM_Ar;
}
// * * * * * * * * * * * * * * * * * * * * * * * * * * * * * * * * * * * * * //

dimensions      [1 -3 0 0 0 0 0];


internalField   uniform 2.141261265e-05;

boundaryField
{
    stickingWall
    {
        type            calculated;
        value           uniform 2.141261265e-05;
    }
    defaultFaces
    {
        type            calculated;
        value           nonuniform List<scalar> 5(9.8991204e-07 1.10381544e-06 1.10280768e-06 1.0910991e-06 1.08834102e-06);
    }
}


// ************************************************************************* //
