# Probe 0 (5e-06 5e-06 5e-06)
#           Probe                 0
#            Time
            1e-08       11.89214086
            2e-08       20.84575125
            3e-08       30.17791312
            4e-08        37.7602619
            5e-08       44.85105753
            6e-08       49.64628303
            7e-08       59.65723155
            8e-08       70.17183573
            9e-08       80.58795245
            1e-07       89.82082201
          1.1e-07       99.34541795
          1.2e-07       114.7796057
          1.3e-07       123.5682067
          1.4e-07       133.7880726
          1.5e-07       143.8052097
          1.6e-07       152.5295403
          1.7e-07       164.4656432
          1.8e-07       174.3979664
          1.9e-07       184.8848181
            2e-07       193.5362414
          2.1e-07       203.3145538
          2.2e-07       212.5263486
          2.3e-07       220.2033143
          2.4e-07       231.7562662
          2.5e-07       237.6793777
          2.6e-07       247.8309752
          2.7e-07        257.005482
          2.8e-07       268.3247643
          2.9e-07       273.9769245
            3e-07       286.7414901
          3.1e-07       293.3804227
          3.2e-07        309.262412
          3.3e-07       322.1308719
          3.4e-07       333.2156397
          3.5e-07       345.4015793
          3.6e-07       355.4994422
          3.7e-07       369.4898977
          3.8e-07       379.0347738
          3.9e-07       396.5427634
            4e-07       404.0328018
          4.1e-07       415.0125341
          4.2e-07       423.4694527
          4.3e-07       432.4622365
          4.4e-07       443.1618947
          4.5e-07       451.4152388
          4.6e-07       458.2700944
          4.7e-07       465.5783841
          4.8e-07       473.6310757
          4.9e-07       483.5452192
            5e-07       492.8278247
          5.1e-07       499.9203581
          5.2e-07       510.9106333
          5.3e-07       520.4675985
          5.4e-07       531.7251849
          5.5e-07       540.5107819
          5.6e-07       550.0136278
          5.7e-07       557.4750748
          5.8e-07       566.6550064
          5.9e-07       578.6937229
            6e-07       585.5813716
          6.1e-07       592.4543678
          6.2e-07       601.0416593
          6.3e-07       612.2956025
          6.4e-07       619.2711688
          6.5e-07       628.1087166
          6.6e-07       635.8758143
          6.7e-07       645.3615727
          6.8e-07       653.6127934
          6.9e-07       661.3149616
            7e-07       674.5606012
          7.1e-07       680.2724282
          7.2e-07       687.8441789
          7.3e-07       702.4425993
          7.4e-07       709.2618198
          7.5e-07       717.9965727
          7.6e-07       726.0287762
          7.7e-07       735.7832296
          7.8e-07       743.5407778
          7.9e-07       753.1533844
            8e-07       762.5674974
          8.1e-07       772.3415651
          8.2e-07       781.7174983
          8.3e-07       791.6896178
          8.4e-07       798.2146274
          8.5e-07       805.9352425
          8.6e-07       815.0133626
          8.7e-07       820.4790358
          8.8e-07       837.1108806
          8.9e-07       845.7359956
            9e-07        850.322832
          9.1e-07       859.2848091
          9.2e-07       867.3674286
          9.3e-07       877.0367278
          9.4e-07       882.0095287
          9.5e-07       886.5157468
          9.6e-07       891.7538764
          9.7e-07       901.2836556
          9.8e-07       912.8247116
          9.9e-07       922.5147321
            1e-06       929.0694511
         1.01e-06       938.0250181
         1.02e-06       944.7162586
         1.03e-06       952.9265982
         1.04e-06       958.9197422
         1.05e-06       970.2072494
         1.06e-06        976.434121
         1.07e-06       984.4089294
         1.08e-06       997.6139144
         1.09e-06       1006.076753
          1.1e-06       1017.139139
         1.11e-06       1025.728897
         1.12e-06       1034.481902
         1.13e-06       1046.765586
         1.14e-06       1052.333972
         1.15e-06       1061.849598
         1.16e-06       1070.337935
         1.17e-06       1078.599247
         1.18e-06       1086.570895
         1.19e-06       1097.279129
          1.2e-06       1105.662957
         1.21e-06       1114.943983
         1.22e-06       1122.295193
         1.23e-06       1130.440104
         1.24e-06        1144.91728
         1.25e-06       1151.052981
         1.26e-06       1157.945359
         1.27e-06       1166.680485
         1.28e-06       1177.982148
         1.29e-06       1183.194193
          1.3e-06       1192.110631
         1.31e-06       1198.795328
         1.32e-06       1208.300592
         1.33e-06       1215.604112
         1.34e-06       1222.835369
         1.35e-06       1233.785639
         1.36e-06       1240.345427
         1.37e-06       1250.396224
         1.38e-06       1260.433615
         1.39e-06       1270.091684
          1.4e-06       1278.703985
         1.41e-06       1286.566712
         1.42e-06       1294.251943
         1.43e-06         1301.9617
         1.44e-06       1311.561382
         1.45e-06       1319.332726
         1.46e-06       1331.012701
         1.47e-06       1338.973252
         1.48e-06       1347.561189
         1.49e-06       1355.320974
          1.5e-06       1367.613789
         1.51e-06       1378.562327
         1.52e-06       1390.865936
         1.53e-06       1396.914255
         1.54e-06       1403.607662
         1.55e-06       1415.485483
         1.56e-06       1421.843101
         1.57e-06       1428.935825
         1.58e-06       1434.759669
         1.59e-06       1440.504497
          1.6e-06       1449.745861
         1.61e-06       1457.012952
         1.62e-06       1462.321051
         1.63e-06       1468.755816
         1.64e-06       1478.897384
         1.65e-06        1489.71573
         1.66e-06       1497.907479
         1.67e-06       1506.053544
         1.68e-06       1519.208649
         1.69e-06       1526.683655
          1.7e-06       1531.539238
         1.71e-06       1541.550623
         1.72e-06       1551.089136
         1.73e-06       1561.721594
         1.74e-06       1565.712351
         1.75e-06        1575.89848
         1.76e-06       1578.625827
         1.77e-06        1585.35043
         1.78e-06       1592.777727
         1.79e-06       1599.722855
          1.8e-06       1608.458397
         1.81e-06       1620.860999
         1.82e-06       1632.676676
         1.83e-06       1638.548209
         1.84e-06       1649.698388
         1.85e-06       1659.822636
         1.86e-06       1668.841324
         1.87e-06       1676.416598
         1.88e-06        1679.64611
         1.89e-06       1688.393515
          1.9e-06       1700.320916
         1.91e-06        1710.15641
         1.92e-06        1717.57103
         1.93e-06       1729.779243
         1.94e-06        1739.50153
         1.95e-06       1746.819702
         1.96e-06       1760.326138
         1.97e-06       1768.323797
         1.98e-06       1778.124408
         1.99e-06       1782.090687
            2e-06       1787.122008
         2.01e-06       1799.860717
         2.02e-06       1809.960527
         2.03e-06       1819.579778
         2.04e-06       1830.520423
         2.05e-06       1840.568636
         2.06e-06       1843.483049
         2.07e-06       1851.032621
         2.08e-06       1858.529783
         2.09e-06       1866.583349
          2.1e-06       1871.915903
         2.11e-06       1879.567477
         2.12e-06       1885.415116
         2.13e-06       1891.558156
         2.14e-06       1902.174595
         2.15e-06       1908.241387
         2.16e-06       1918.208448
         2.17e-06       1925.280692
         2.18e-06       1930.934714
         2.19e-06        1939.48541
          2.2e-06       1947.857492
         2.21e-06       1958.141807
         2.22e-06       1965.499283
         2.23e-06       1969.527402
         2.24e-06       1975.732297
         2.25e-06       1989.858164
         2.26e-06       1999.018366
         2.27e-06       2005.786803
         2.28e-06       2015.662386
         2.29e-06       2023.621019
          2.3e-06        2028.65709
         2.31e-06       2036.868053
         2.32e-06       2045.955009
         2.33e-06       2049.019561
         2.34e-06       2063.050694
         2.35e-06       2068.478955
         2.36e-06       2070.666985
         2.37e-06       2084.007832
         2.38e-06        2096.34773
         2.39e-06       2099.517907
          2.4e-06       2105.067225
         2.41e-06       2112.453351
         2.42e-06       2120.117771
         2.43e-06       2126.890159
         2.44e-06        2134.25255
         2.45e-06       2140.098258
         2.46e-06       2150.357556
         2.47e-06       2160.544375
         2.48e-06       2169.104485
         2.49e-06       2174.094226
          2.5e-06       2178.238946
         2.51e-06       2188.673436
         2.52e-06       2199.875198
         2.53e-06       2206.604237
         2.54e-06       2213.840897
         2.55e-06        2219.57968
         2.56e-06       2226.426702
         2.57e-06       2234.144328
         2.58e-06       2245.300499
         2.59e-06       2250.672756
          2.6e-06       2256.895068
         2.61e-06       2264.583342
         2.62e-06       2270.122049
         2.63e-06       2277.565172
         2.64e-06       2285.864105
         2.65e-06       2291.976248
         2.66e-06       2299.439713
         2.67e-06       2310.710916
         2.68e-06       2318.343067
         2.69e-06       2326.141394
          2.7e-06       2342.040946
         2.71e-06       2348.751958
         2.72e-06       2354.514523
         2.73e-06       2362.156043
         2.74e-06       2367.949794
         2.75e-06       2376.698838
         2.76e-06       2386.352185
         2.77e-06       2397.867184
         2.78e-06       2406.610133
         2.79e-06       2411.133702
          2.8e-06       2418.190852
         2.81e-06       2422.864248
         2.82e-06       2429.252506
         2.83e-06       2435.472903
         2.84e-06       2440.662607
         2.85e-06       2449.036101
         2.86e-06       2453.998514
         2.87e-06       2453.634496
         2.88e-06       2463.548704
         2.89e-06       2472.783111
          2.9e-06       2484.806885
         2.91e-06       2498.238468
         2.92e-06       2501.438568
         2.93e-06       2503.627572
         2.94e-06       2510.100443
         2.95e-06       2517.767746
         2.96e-06        2528.03999
         2.97e-06       2538.027239
         2.98e-06       2547.212307
         2.99e-06       2556.123831
            3e-06       2560.737664
         3.01e-06       2570.607213
         3.02e-06       2581.216863
         3.03e-06       2584.432479
         3.04e-06       2587.171724
         3.05e-06        2590.25066
         3.06e-06       2596.247339
         3.07e-06       2601.241171
         3.08e-06       2603.428115
         3.09e-06       2614.613071
          3.1e-06       2621.120394
         3.11e-06       2628.571728
         3.12e-06       2631.373935
         3.13e-06       2642.892788
         3.14e-06       2650.899602
         3.15e-06       2659.481844
         3.16e-06       2661.588218
         3.17e-06       2670.422494
         3.18e-06        2677.13375
         3.19e-06       2682.479909
          3.2e-06       2688.031802
         3.21e-06       2694.587668
         3.22e-06       2700.019427
         3.23e-06       2706.632757
         3.24e-06       2708.579823
         3.25e-06        2715.23122
         3.26e-06       2716.979614
         3.27e-06        2719.11415
         3.28e-06       2725.380222
         3.29e-06       2736.077718
          3.3e-06       2742.048297
         3.31e-06       2740.414435
         3.32e-06        2745.50335
         3.33e-06       2748.196247
         3.34e-06       2753.136437
         3.35e-06        2763.31837
         3.36e-06       2774.949399
         3.37e-06       2788.771843
         3.38e-06       2794.448406
         3.39e-06       2800.837186
          3.4e-06       2810.636695
         3.41e-06       2818.173077
         3.42e-06        2820.64485
         3.43e-06       2820.840149
         3.44e-06       2833.934294
         3.45e-06       2839.746888
         3.46e-06       2848.384632
         3.47e-06       2860.875806
         3.48e-06        2870.55912
         3.49e-06       2879.363416
          3.5e-06       2887.272129
         3.51e-06       2893.974333
         3.52e-06       2900.551817
         3.53e-06       2911.215922
         3.54e-06       2917.654168
         3.55e-06       2920.410041
         3.56e-06       2923.537473
         3.57e-06        2928.36392
         3.58e-06       2933.563518
         3.59e-06       2937.113559
          3.6e-06       2942.435941
         3.61e-06       2952.115138
         3.62e-06       2961.321254
         3.63e-06        2968.77259
         3.64e-06       2980.302914
         3.65e-06       2983.377577
         3.66e-06       2987.391786
         3.67e-06       2995.408719
         3.68e-06       3007.939314
         3.69e-06       3015.552648
          3.7e-06       3022.959024
         3.71e-06       3023.955079
         3.72e-06       3031.986641
         3.73e-06       3041.204335
         3.74e-06       3044.274798
         3.75e-06          3057.054
         3.76e-06       3066.555422
         3.77e-06       3073.682601
         3.78e-06       3080.308301
         3.79e-06       3086.985129
          3.8e-06       3090.968152
         3.81e-06       3091.064126
         3.82e-06       3095.599507
         3.83e-06       3097.621562
         3.84e-06       3102.462541
         3.85e-06       3106.808572
         3.86e-06       3110.017375
         3.87e-06       3118.660756
         3.88e-06       3118.982811
         3.89e-06       3125.981255
          3.9e-06       3127.796617
         3.91e-06       3137.166684
         3.92e-06       3144.511418
         3.93e-06       3149.973013
         3.94e-06       3158.986243
         3.95e-06       3168.076462
         3.96e-06        3172.75762
         3.97e-06       3177.981178
         3.98e-06        3189.84972
         3.99e-06       3192.046931
            4e-06       3200.438521
         4.01e-06       3201.831188
         4.02e-06       3211.401591
         4.03e-06       3217.920498
         4.04e-06       3225.394304
         4.05e-06       3231.753011
         4.06e-06       3233.193482
         4.07e-06       3241.066491
         4.08e-06       3238.349425
         4.09e-06       3249.421456
          4.1e-06        3255.98103
         4.11e-06       3263.038502
         4.12e-06       3263.386404
         4.13e-06       3266.767304
         4.14e-06       3268.929642
         4.15e-06       3274.026878
         4.16e-06       3278.186241
         4.17e-06       3289.257247
         4.18e-06       3292.181438
         4.19e-06       3293.052813
          4.2e-06       3302.961691
         4.21e-06       3302.123273
         4.22e-06        3316.58909
         4.23e-06       3321.573112
         4.24e-06       3334.932226
         4.25e-06       3343.283341
         4.26e-06       3349.202308
         4.27e-06       3358.099561
         4.28e-06       3357.524652
         4.29e-06       3360.128248
          4.3e-06       3367.081814
         4.31e-06       3374.611888
         4.32e-06       3377.116409
         4.33e-06       3372.666583
         4.34e-06       3366.413532
         4.35e-06       3363.547928
         4.36e-06       3372.230893
         4.37e-06       3378.566573
         4.38e-06       3386.921195
         4.39e-06       3395.497787
          4.4e-06       3402.728309
         4.41e-06         3408.0657
         4.42e-06       3417.188632
         4.43e-06       3425.263696
         4.44e-06       3428.716769
         4.45e-06       3438.006629
         4.46e-06        3442.99881
         4.47e-06       3450.827322
         4.48e-06       3457.013312
         4.49e-06       3466.181671
          4.5e-06       3477.322029
         4.51e-06       3481.810072
         4.52e-06       3483.482745
         4.53e-06        3491.74015
         4.54e-06       3494.424735
         4.55e-06       3500.625609
         4.56e-06       3511.243181
         4.57e-06       3515.928332
         4.58e-06       3520.309416
         4.59e-06       3524.815877
          4.6e-06       3529.424513
         4.61e-06       3534.231461
         4.62e-06       3537.913367
         4.63e-06       3542.940369
         4.64e-06       3551.144941
         4.65e-06       3554.428359
         4.66e-06       3561.508863
         4.67e-06       3567.465746
         4.68e-06       3569.235067
         4.69e-06       3570.656637
          4.7e-06       3576.519488
         4.71e-06       3580.974618
         4.72e-06       3591.981283
         4.73e-06       3592.375374
         4.74e-06       3591.986139
         4.75e-06       3599.217233
         4.76e-06       3605.300322
         4.77e-06       3608.944847
         4.78e-06       3615.348532
         4.79e-06       3614.385861
          4.8e-06       3612.089924
         4.81e-06       3613.008543
         4.82e-06       3616.143608
         4.83e-06       3621.969811
         4.84e-06       3627.305123
         4.85e-06       3627.620928
         4.86e-06       3632.368257
         4.87e-06       3636.963884
         4.88e-06       3642.006037
         4.89e-06       3636.902258
          4.9e-06       3647.845309
         4.91e-06       3652.252063
         4.92e-06       3651.360101
         4.93e-06       3652.534225
         4.94e-06       3660.808306
         4.95e-06       3665.790665
         4.96e-06        3671.80578
         4.97e-06       3671.151513
         4.98e-06       3683.948843
         4.99e-06       3689.976436
            5e-06       3698.922246
         5.01e-06       3700.379032
         5.02e-06       3705.419059
         5.03e-06       3709.897881
         5.04e-06        3714.63559
         5.05e-06       3722.052533
         5.06e-06       3726.058209
         5.07e-06       3731.423399
         5.08e-06       3736.588743
         5.09e-06        3741.75359
          5.1e-06       3750.338777
         5.11e-06       3762.008233
         5.12e-06         3763.6646
         5.13e-06       3773.629966
         5.14e-06       3777.657703
         5.15e-06       3782.109333
         5.16e-06       3788.130864
         5.17e-06       3793.505671
         5.18e-06       3795.230275
         5.19e-06       3812.177976
          5.2e-06       3824.167645
         5.21e-06       3824.596155
         5.22e-06       3830.065765
         5.23e-06       3837.716296
         5.24e-06       3839.256235
         5.25e-06       3842.535408
         5.26e-06       3851.162687
         5.27e-06       3857.199546
         5.28e-06       3860.043026
         5.29e-06       3867.172475
          5.3e-06       3875.754796
         5.31e-06       3873.437626
         5.32e-06       3879.967863
         5.33e-06         3887.1963
         5.34e-06       3902.499576
         5.35e-06         3902.3309
         5.36e-06       3903.909092
         5.37e-06       3917.454518
         5.38e-06       3921.206131
         5.39e-06       3929.201828
          5.4e-06        3933.81183
         5.41e-06       3942.520712
         5.42e-06         3940.9855
         5.43e-06       3937.889989
         5.44e-06       3944.197763
         5.45e-06         3949.9325
         5.46e-06       3947.066079
         5.47e-06       3951.713737
         5.48e-06       3957.319801
         5.49e-06       3971.620016
          5.5e-06       3976.793244
         5.51e-06       3983.580231
         5.52e-06       3981.154926
         5.53e-06       3993.067007
         5.54e-06        3995.57691
         5.55e-06       3997.415786
         5.56e-06       4008.445485
         5.57e-06       4009.260929
         5.58e-06       4009.100145
         5.59e-06       4020.824221
          5.6e-06       4030.156562
         5.61e-06       4036.378064
         5.62e-06       4043.167031
         5.63e-06        4044.32295
         5.64e-06        4052.32726
         5.65e-06       4052.941948
         5.66e-06        4061.61772
         5.67e-06       4065.976415
         5.68e-06        4074.66165
         5.69e-06       4072.440705
          5.7e-06        4079.18059
         5.71e-06       4084.261334
         5.72e-06       4085.681935
         5.73e-06       4091.580982
         5.74e-06       4089.099181
         5.75e-06       4095.143357
         5.76e-06       4093.768627
         5.77e-06       4105.375829
         5.78e-06       4110.423364
         5.79e-06       4114.523684
          5.8e-06       4118.782266
         5.81e-06       4129.363008
         5.82e-06       4134.431412
         5.83e-06       4133.381594
         5.84e-06       4138.119438
         5.85e-06       4144.545772
         5.86e-06       4146.496678
         5.87e-06       4146.916971
         5.88e-06       4153.138292
         5.89e-06       4152.461485
          5.9e-06       4162.491972
         5.91e-06       4170.144613
         5.92e-06       4170.921329
         5.93e-06       4179.871808
         5.94e-06       4184.553932
         5.95e-06       4191.282317
         5.96e-06       4202.745161
         5.97e-06       4207.181178
         5.98e-06       4208.437044
         5.99e-06       4209.733516
            6e-06       4215.945225
         6.01e-06       4217.312325
         6.02e-06       4224.036971
         6.03e-06       4228.715134
         6.04e-06       4235.540229
         6.05e-06       4243.799067
         6.06e-06        4242.92971
         6.07e-06       4239.998701
         6.08e-06       4240.833238
         6.09e-06       4246.528554
          6.1e-06       4253.854005
         6.11e-06       4261.677368
         6.12e-06       4266.543501
         6.13e-06       4272.358625
         6.14e-06       4275.344628
         6.15e-06       4283.162573
         6.16e-06       4292.776513
         6.17e-06       4292.458997
         6.18e-06       4301.522878
         6.19e-06        4303.65985
          6.2e-06       4306.921031
         6.21e-06       4305.432762
         6.22e-06       4307.010972
         6.23e-06       4310.760768
         6.24e-06       4316.451069
         6.25e-06       4322.907575
         6.26e-06       4328.574021
         6.27e-06        4331.64864
         6.28e-06       4332.134833
         6.29e-06       4344.111375
          6.3e-06       4349.847842
         6.31e-06       4353.119443
         6.32e-06       4356.245572
         6.33e-06       4359.883121
         6.34e-06       4367.929605
         6.35e-06       4366.202817
         6.36e-06       4366.490221
         6.37e-06       4378.093678
         6.38e-06       4384.503987
         6.39e-06       4392.355543
          6.4e-06       4402.978714
         6.41e-06       4409.708057
         6.42e-06       4405.637272
         6.43e-06       4405.445433
         6.44e-06       4409.012039
         6.45e-06       4412.016766
         6.46e-06       4415.495044
         6.47e-06       4425.573702
         6.48e-06       4425.207327
         6.49e-06       4432.324012
          6.5e-06       4435.970226
         6.51e-06       4441.592971
         6.52e-06       4449.096558
         6.53e-06       4459.756505
         6.54e-06       4463.475257
         6.55e-06        4471.57814
         6.56e-06       4468.989416
         6.57e-06       4474.653611
         6.58e-06       4480.053998
         6.59e-06       4478.477986
          6.6e-06       4480.320403
         6.61e-06       4481.828293
         6.62e-06       4488.116653
         6.63e-06       4491.351004
         6.64e-06       4494.152776
         6.65e-06       4498.050053
         6.66e-06       4505.397434
         6.67e-06       4510.871125
         6.68e-06       4511.370192
         6.69e-06       4507.557191
          6.7e-06       4519.574305
         6.71e-06       4522.318434
         6.72e-06       4529.317365
         6.73e-06        4534.16682
         6.74e-06       4534.787411
         6.75e-06       4538.055757
         6.76e-06       4541.368999
         6.77e-06       4545.589338
         6.78e-06       4550.475718
         6.79e-06       4558.963132
          6.8e-06       4571.398971
         6.81e-06       4579.936037
         6.82e-06       4587.510043
         6.83e-06       4592.809223
         6.84e-06       4592.270389
         6.85e-06       4589.893494
         6.86e-06       4596.327933
         6.87e-06       4599.788036
         6.88e-06       4600.036531
         6.89e-06       4607.042623
          6.9e-06       4611.541055
         6.91e-06       4607.472329
         6.92e-06       4610.700981
         6.93e-06       4613.674753
         6.94e-06       4622.907904
         6.95e-06       4624.441171
         6.96e-06       4628.801636
         6.97e-06       4632.651167
         6.98e-06       4635.899716
         6.99e-06       4641.183757
            7e-06       4637.084756
         7.01e-06       4649.093273
         7.02e-06       4660.074472
         7.03e-06       4663.068524
         7.04e-06       4666.080773
         7.05e-06       4666.505562
         7.06e-06       4664.057955
         7.07e-06       4672.589269
         7.08e-06       4673.490901
         7.09e-06       4671.618298
          7.1e-06       4671.400312
         7.11e-06       4673.503359
         7.12e-06       4677.066107
         7.13e-06       4683.470471
         7.14e-06       4685.654417
         7.15e-06       4692.882997
         7.16e-06       4694.096183
         7.17e-06       4695.002703
         7.18e-06       4699.072968
         7.19e-06       4706.292645
          7.2e-06       4713.016121
         7.21e-06        4720.18244
         7.22e-06       4719.313029
         7.23e-06       4724.676675
         7.24e-06       4733.655865
         7.25e-06       4733.815705
         7.26e-06       4740.522037
         7.27e-06       4745.578893
         7.28e-06       4752.503723
         7.29e-06       4766.803981
          7.3e-06       4770.433588
         7.31e-06       4779.786649
         7.32e-06       4780.025094
         7.33e-06       4786.647185
         7.34e-06        4781.88793
         7.35e-06       4788.631892
         7.36e-06       4796.169487
         7.37e-06       4804.585979
         7.38e-06       4803.096308
         7.39e-06       4807.147053
          7.4e-06       4810.263725
         7.41e-06       4811.434143
         7.42e-06       4810.544684
         7.43e-06       4812.830015
         7.44e-06       4811.532311
         7.45e-06       4804.908855
         7.46e-06       4813.116533
         7.47e-06        4818.26607
         7.48e-06       4822.115933
         7.49e-06       4832.906231
          7.5e-06       4830.338947
         7.51e-06       4837.194205
         7.52e-06        4841.16734
         7.53e-06       4843.447766
         7.54e-06        4844.60569
         7.55e-06       4845.003483
         7.56e-06       4848.241572
         7.57e-06       4841.127288
         7.58e-06       4846.496091
         7.59e-06       4843.552538
          7.6e-06       4851.354241
         7.61e-06       4850.711394
         7.62e-06       4852.724374
         7.63e-06       4858.804312
         7.64e-06       4866.198252
         7.65e-06       4873.122841
         7.66e-06       4878.248262
         7.67e-06       4879.337389
         7.68e-06       4877.234202
         7.69e-06       4877.189667
          7.7e-06       4875.316068
         7.71e-06       4883.322517
         7.72e-06       4887.125284
         7.73e-06       4894.447109
         7.74e-06       4898.006942
         7.75e-06       4905.662204
         7.76e-06       4910.511824
         7.77e-06       4908.298751
         7.78e-06       4899.777108
         7.79e-06       4899.472329
          7.8e-06       4897.414443
         7.81e-06       4903.902372
         7.82e-06       4909.669127
         7.83e-06       4906.136911
         7.84e-06        4908.77333
         7.85e-06       4910.261421
         7.86e-06       4919.591906
         7.87e-06       4916.278501
         7.88e-06       4919.366263
         7.89e-06       4925.596538
          7.9e-06       4929.826001
         7.91e-06       4928.009108
         7.92e-06       4933.946435
         7.93e-06       4953.028389
         7.94e-06       4957.873868
         7.95e-06       4965.313491
         7.96e-06       4967.249656
         7.97e-06       4961.042146
         7.98e-06       4969.249224
         7.99e-06       4968.600057
            8e-06       4969.432037
         8.01e-06       4965.339739
         8.02e-06       4966.417901
         8.03e-06        4970.30872
         8.04e-06       4970.443532
         8.05e-06       4979.081348
         8.06e-06       4997.992948
         8.07e-06        5004.37842
         8.08e-06       5004.566201
         8.09e-06         5003.9855
          8.1e-06       5015.556715
         8.11e-06       5017.752376
         8.12e-06       5020.277592
         8.13e-06       5018.013086
         8.14e-06       5013.814841
         8.15e-06       5013.927557
         8.16e-06       5019.577111
         8.17e-06       5025.235113
         8.18e-06       5026.708156
         8.19e-06       5030.768209
          8.2e-06       5035.457123
         8.21e-06       5042.810937
         8.22e-06       5050.874525
         8.23e-06       5053.254012
         8.24e-06       5053.433028
         8.25e-06       5060.219792
         8.26e-06        5069.72129
         8.27e-06       5069.230382
         8.28e-06       5078.088348
         8.29e-06       5075.015685
          8.3e-06       5074.663708
         8.31e-06       5073.932535