# Probe 0 (5e-06 5e-06 5e-06)
#           Probe                 0
#            Time
            1e-08   1.397750762e-08
            2e-08   1.398157455e-08
            3e-08   1.398757603e-08
            4e-08   1.399019896e-08
            5e-08   1.399557113e-08
            6e-08   1.399803011e-08
            7e-08   1.400103286e-08
            8e-08    1.39992282e-08
            9e-08   1.399884043e-08
            1e-07   1.400401716e-08
          1.1e-07   1.400656494e-08
          1.2e-07   1.400976869e-08
          1.3e-07   1.401975006e-08
          1.4e-07     1.4023575e-08
          1.5e-07    1.40231862e-08
          1.6e-07   1.402558792e-08
          1.7e-07   1.403442025e-08
          1.8e-07   1.403815593e-08
          1.9e-07   1.403769651e-08
            2e-07   1.403388907e-08
          2.1e-07   1.403937165e-08
          2.2e-07    1.40435176e-08
          2.3e-07   1.404180266e-08
          2.4e-07   1.404054706e-08
          2.5e-07   1.404192431e-08
          2.6e-07   1.404574676e-08
          2.7e-07   1.404655726e-08
          2.8e-07   1.404784069e-08
          2.9e-07   1.404825241e-08
            3e-07   1.405034414e-08
          3.1e-07   1.405190989e-08
          3.2e-07   1.405442828e-08
          3.3e-07   1.406319709e-08
          3.4e-07   1.406336869e-08
          3.5e-07   1.406689008e-08
          3.6e-07   1.407254695e-08
          3.7e-07   1.407484563e-08
          3.8e-07    1.40750324e-08
          3.9e-07   1.408006442e-08
            4e-07   1.408611994e-08
          4.1e-07   1.408776276e-08
          4.2e-07    1.40877008e-08
          4.3e-07   1.409072773e-08
          4.4e-07     1.4090745e-08
          4.5e-07   1.409255875e-08
          4.6e-07   1.409303105e-08
          4.7e-07   1.409828475e-08
          4.8e-07   1.409716707e-08
          4.9e-07   1.410773202e-08
            5e-07   1.410773914e-08
          5.1e-07   1.411067223e-08
          5.2e-07    1.41134833e-08
          5.3e-07   1.411798987e-08
          5.4e-07   1.412450735e-08
          5.5e-07   1.412887003e-08
          5.6e-07   1.412412474e-08
          5.7e-07   1.412576921e-08
          5.8e-07   1.412823246e-08
          5.9e-07    1.41298527e-08
            6e-07    1.41338032e-08
          6.1e-07   1.413176582e-08
          6.2e-07   1.413001681e-08
          6.3e-07   1.413437809e-08
          6.4e-07   1.413864364e-08
          6.5e-07   1.413883514e-08
          6.6e-07   1.413924499e-08
          6.7e-07   1.414037484e-08
          6.8e-07    1.41380738e-08
          6.9e-07   1.413988369e-08
            7e-07   1.414104775e-08
          7.1e-07   1.414524952e-08
          7.2e-07   1.415106221e-08
          7.3e-07   1.415921104e-08
          7.4e-07   1.416088425e-08
          7.5e-07   1.416075213e-08
          7.6e-07   1.416212457e-08
          7.7e-07   1.416365771e-08
          7.8e-07   1.416326144e-08
          7.9e-07   1.416819311e-08
            8e-07   1.416957149e-08
          8.1e-07   1.416948662e-08
          8.2e-07   1.417114679e-08
          8.3e-07   1.417372296e-08
          8.4e-07   1.417725326e-08
          8.5e-07   1.417659768e-08
          8.6e-07   1.418158506e-08
          8.7e-07   1.418293216e-08
          8.8e-07   1.418595543e-08
          8.9e-07   1.418791647e-08
            9e-07   1.419163589e-08
          9.1e-07   1.419074404e-08
          9.2e-07   1.419234532e-08
          9.3e-07   1.419505937e-08
          9.4e-07   1.419788888e-08
          9.5e-07   1.419888584e-08
          9.6e-07   1.420129895e-08
          9.7e-07   1.420251023e-08
          9.8e-07   1.420465683e-08
          9.9e-07   1.420495565e-08
            1e-06   1.420573011e-08
         1.01e-06   1.421324369e-08
         1.02e-06    1.42159877e-08
         1.03e-06   1.421873805e-08
         1.04e-06   1.422076954e-08
         1.05e-06   1.421912355e-08
         1.06e-06     1.4220827e-08
         1.07e-06   1.422243912e-08
         1.08e-06    1.42265294e-08
         1.09e-06   1.422458572e-08
          1.1e-06   1.422494803e-08
         1.11e-06   1.422115502e-08
         1.12e-06   1.421973525e-08
         1.13e-06   1.422515162e-08
         1.14e-06   1.422898152e-08
         1.15e-06   1.423316493e-08
         1.16e-06   1.423317446e-08
         1.17e-06   1.423547777e-08
         1.18e-06   1.423677599e-08
         1.19e-06   1.424666917e-08
          1.2e-06   1.425280018e-08
         1.21e-06    1.42513521e-08
         1.22e-06   1.424849546e-08
         1.23e-06   1.424952691e-08
         1.24e-06   1.425679634e-08
         1.25e-06   1.425723088e-08
         1.26e-06   1.426002175e-08
         1.27e-06   1.426061545e-08
         1.28e-06   1.426095208e-08
         1.29e-06   1.426285618e-08
          1.3e-06    1.42608394e-08
         1.31e-06   1.426272031e-08
         1.32e-06    1.42616583e-08
         1.33e-06   1.426480151e-08
         1.34e-06   1.426472397e-08
         1.35e-06   1.426917183e-08
         1.36e-06   1.427066011e-08
         1.37e-06   1.426829175e-08
         1.38e-06    1.42717212e-08
         1.39e-06   1.427246643e-08
          1.4e-06   1.427609226e-08
         1.41e-06   1.427512476e-08
         1.42e-06   1.427432263e-08
         1.43e-06   1.427891017e-08
         1.44e-06    1.42800034e-08
         1.45e-06   1.427597189e-08
         1.46e-06   1.428039264e-08
         1.47e-06   1.428170518e-08
         1.48e-06   1.428655353e-08
         1.49e-06    1.42861672e-08
          1.5e-06    1.42898189e-08
         1.51e-06    1.42950018e-08
         1.52e-06    1.42959164e-08
         1.53e-06   1.430201417e-08
         1.54e-06   1.429862031e-08
         1.55e-06   1.430074779e-08
         1.56e-06    1.43007085e-08
         1.57e-06   1.430055996e-08
         1.58e-06   1.429972547e-08
         1.59e-06   1.430160367e-08
          1.6e-06   1.430532521e-08
         1.61e-06   1.430389466e-08
         1.62e-06   1.430183537e-08
         1.63e-06   1.430362324e-08
         1.64e-06    1.43043644e-08
         1.65e-06   1.430612296e-08
         1.66e-06   1.430698761e-08
         1.67e-06   1.431177704e-08
         1.68e-06   1.431185834e-08
         1.69e-06   1.431523413e-08
          1.7e-06   1.431357933e-08
         1.71e-06   1.431742357e-08
         1.72e-06   1.431989449e-08
         1.73e-06   1.431985025e-08
         1.74e-06   1.432409825e-08
         1.75e-06    1.43271783e-08
         1.76e-06   1.432451388e-08
         1.77e-06   1.432976472e-08
         1.78e-06   1.433290526e-08
         1.79e-06    1.43329121e-08
          1.8e-06   1.433425211e-08
         1.81e-06   1.433467606e-08
         1.82e-06   1.433250598e-08
         1.83e-06    1.43289937e-08
         1.84e-06   1.432812564e-08
         1.85e-06    1.43292551e-08
         1.86e-06   1.433186882e-08
         1.87e-06   1.433344131e-08
         1.88e-06    1.43349784e-08
         1.89e-06   1.433800104e-08
          1.9e-06    1.43373207e-08
         1.91e-06   1.434178882e-08
         1.92e-06   1.434275018e-08
         1.93e-06   1.434310711e-08
         1.94e-06   1.434866179e-08
         1.95e-06    1.43503489e-08
         1.96e-06   1.435832181e-08
         1.97e-06   1.436177981e-08
         1.98e-06   1.436086008e-08
         1.99e-06   1.435966671e-08
            2e-06   1.435750199e-08
         2.01e-06   1.435826235e-08
         2.02e-06   1.436618652e-08
         2.03e-06   1.436637419e-08
         2.04e-06   1.436978672e-08
         2.05e-06   1.437261273e-08
         2.06e-06   1.437195394e-08
         2.07e-06   1.437367883e-08
         2.08e-06     1.4377381e-08
         2.09e-06   1.437475639e-08
          2.1e-06   1.437660064e-08
         2.11e-06   1.438005749e-08
         2.12e-06   1.438009772e-08
         2.13e-06   1.437937046e-08
         2.14e-06   1.438445948e-08
         2.15e-06   1.438126085e-08
         2.16e-06   1.438330003e-08
         2.17e-06   1.438555229e-08
         2.18e-06   1.438746212e-08
         2.19e-06   1.438644372e-08
          2.2e-06   1.438974192e-08
         2.21e-06   1.439238854e-08
         2.22e-06   1.439661973e-08
         2.23e-06   1.439078641e-08
         2.24e-06   1.439189328e-08
         2.25e-06   1.439604973e-08
         2.26e-06   1.440105511e-08
         2.27e-06   1.440011417e-08
         2.28e-06    1.44056814e-08
         2.29e-06   1.440404518e-08
          2.3e-06   1.440326943e-08
         2.31e-06   1.440582455e-08
         2.32e-06   1.440608835e-08
         2.33e-06   1.440210514e-08
         2.34e-06   1.440737074e-08
         2.35e-06   1.440768459e-08
         2.36e-06   1.440663392e-08
         2.37e-06   1.440831771e-08
         2.38e-06   1.441193245e-08
         2.39e-06   1.441083952e-08
          2.4e-06   1.441520337e-08
         2.41e-06   1.441681833e-08
         2.42e-06    1.44171311e-08
         2.43e-06   1.441738189e-08
         2.44e-06   1.441977403e-08
         2.45e-06   1.441972681e-08
         2.46e-06   1.442086992e-08
         2.47e-06   1.442351539e-08
         2.48e-06   1.442206467e-08
         2.49e-06   1.442042249e-08
          2.5e-06   1.441880782e-08
         2.51e-06   1.442293118e-08
         2.52e-06   1.442960728e-08
         2.53e-06   1.442929639e-08
         2.54e-06   1.443027105e-08
         2.55e-06   1.442877406e-08
         2.56e-06     1.4427035e-08
         2.57e-06    1.44291568e-08
         2.58e-06   1.443049342e-08
         2.59e-06   1.443353558e-08
          2.6e-06   1.443773518e-08
         2.61e-06    1.44402534e-08
         2.62e-06   1.443852564e-08
         2.63e-06    1.44361484e-08
         2.64e-06   1.444032169e-08
         2.65e-06   1.444291889e-08
         2.66e-06   1.444202675e-08
         2.67e-06   1.444358086e-08
         2.68e-06    1.44447892e-08
         2.69e-06   1.444605566e-08
          2.7e-06   1.445344741e-08
         2.71e-06   1.445164192e-08
         2.72e-06   1.444749254e-08
         2.73e-06    1.44494931e-08
         2.74e-06   1.444895565e-08
         2.75e-06   1.445443663e-08
         2.76e-06   1.445684522e-08
         2.77e-06   1.446144326e-08
         2.78e-06   1.446648922e-08
         2.79e-06   1.446293815e-08
          2.8e-06   1.446374588e-08
         2.81e-06   1.446605537e-08
         2.82e-06   1.446651237e-08
         2.83e-06   1.446579209e-08
         2.84e-06   1.446262791e-08
         2.85e-06   1.446432545e-08
         2.86e-06   1.446848597e-08
         2.87e-06   1.446726683e-08
         2.88e-06   1.447131865e-08
         2.89e-06   1.447367875e-08
          2.9e-06   1.447269699e-08
         2.91e-06   1.447815155e-08
         2.92e-06   1.447580417e-08
         2.93e-06    1.44736638e-08
         2.94e-06      1.447456e-08
         2.95e-06   1.447784144e-08
         2.96e-06   1.448249533e-08
         2.97e-06   1.449037063e-08
         2.98e-06   1.449326468e-08
         2.99e-06   1.449663141e-08
            3e-06   1.449643855e-08
         3.01e-06   1.449518674e-08
         3.02e-06   1.449763786e-08
         3.03e-06   1.449416991e-08
         3.04e-06   1.448895278e-08
         3.05e-06   1.448840678e-08
         3.06e-06   1.448804994e-08
         3.07e-06   1.448540487e-08
         3.08e-06    1.44822365e-08
         3.09e-06   1.448576366e-08
          3.1e-06   1.448656227e-08
         3.11e-06   1.449504151e-08
         3.12e-06   1.449071513e-08
         3.13e-06    1.44894932e-08
         3.14e-06   1.449093941e-08
         3.15e-06    1.44956493e-08
         3.16e-06   1.449464379e-08
         3.17e-06   1.449976458e-08
         3.18e-06   1.450020043e-08
         3.19e-06   1.449740384e-08
          3.2e-06   1.449879458e-08
         3.21e-06   1.449900045e-08
         3.22e-06   1.449772179e-08
         3.23e-06   1.449920592e-08
         3.24e-06   1.449715731e-08
         3.25e-06   1.449702218e-08
         3.26e-06   1.449605819e-08
         3.27e-06   1.449361322e-08
         3.28e-06   1.449576118e-08
         3.29e-06   1.449978674e-08
          3.3e-06   1.449922594e-08
         3.31e-06   1.449563822e-08
         3.32e-06   1.449607665e-08
         3.33e-06   1.449681212e-08
         3.34e-06   1.449707321e-08
         3.35e-06   1.450333672e-08
         3.36e-06   1.450844345e-08
         3.37e-06   1.451031175e-08
         3.38e-06   1.451355507e-08
         3.39e-06   1.451385021e-08
          3.4e-06   1.451364097e-08
         3.41e-06   1.451456902e-08
         3.42e-06   1.451475842e-08
         3.43e-06   1.451039526e-08
         3.44e-06   1.451503131e-08
         3.45e-06   1.451525523e-08
         3.46e-06   1.451865573e-08
         3.47e-06   1.452323496e-08
         3.48e-06   1.452648527e-08
         3.49e-06   1.452864882e-08
          3.5e-06   1.452699036e-08
         3.51e-06   1.452779095e-08
         3.52e-06   1.453027884e-08
         3.53e-06    1.45340318e-08
         3.54e-06   1.453681417e-08
         3.55e-06   1.453695898e-08
         3.56e-06   1.453420444e-08
         3.57e-06   1.453361597e-08
         3.58e-06   1.453456367e-08
         3.59e-06   1.453503876e-08
          3.6e-06   1.453451255e-08
         3.61e-06   1.453683695e-08
         3.62e-06   1.454116034e-08
         3.63e-06    1.45409614e-08
         3.64e-06   1.454279634e-08
         3.65e-06   1.453693528e-08
         3.66e-06   1.453566178e-08
         3.67e-06   1.453434231e-08
         3.68e-06    1.45376295e-08
         3.69e-06   1.454036089e-08
          3.7e-06   1.454208595e-08
         3.71e-06   1.453906755e-08
         3.72e-06   1.454141864e-08
         3.73e-06   1.454434879e-08
         3.74e-06   1.454306228e-08
         3.75e-06   1.455166428e-08
         3.76e-06   1.455636945e-08
         3.77e-06   1.455442643e-08
         3.78e-06   1.455355802e-08
         3.79e-06   1.455688683e-08
          3.8e-06   1.455590083e-08
         3.81e-06    1.45526216e-08
         3.82e-06   1.455331329e-08
         3.83e-06   1.455293675e-08
         3.84e-06   1.455243429e-08
         3.85e-06    1.45519997e-08
         3.86e-06   1.455159893e-08
         3.87e-06   1.455590379e-08
         3.88e-06   1.455262154e-08
         3.89e-06   1.455686257e-08
          3.9e-06   1.455378205e-08
         3.91e-06   1.455432434e-08
         3.92e-06    1.45564087e-08
         3.93e-06   1.455894843e-08
         3.94e-06    1.45647093e-08
         3.95e-06    1.45670453e-08
         3.96e-06   1.456803337e-08
         3.97e-06   1.456911888e-08
         3.98e-06   1.457444819e-08
         3.99e-06   1.457433176e-08
            4e-06   1.457713216e-08
         4.01e-06   1.457840833e-08
         4.02e-06   1.458253459e-08
         4.03e-06   1.457949423e-08
         4.04e-06   1.457920638e-08
         4.05e-06   1.458302761e-08
         4.06e-06    1.45807377e-08
         4.07e-06   1.458030699e-08
         4.08e-06   1.457828659e-08
         4.09e-06   1.458331955e-08
          4.1e-06   1.458476214e-08
         4.11e-06   1.458525715e-08
         4.12e-06   1.458160427e-08
         4.13e-06   1.458309537e-08
         4.14e-06   1.458279636e-08
         4.15e-06   1.458389232e-08
         4.16e-06   1.458620651e-08
         4.17e-06    1.45877557e-08
         4.18e-06   1.458738917e-08
         4.19e-06   1.458162248e-08
          4.2e-06   1.458655708e-08
         4.21e-06   1.458313197e-08
         4.22e-06   1.458989287e-08
         4.23e-06   1.459103432e-08
         4.24e-06   1.459587271e-08
         4.25e-06   1.459868869e-08
         4.26e-06   1.459938017e-08
         4.27e-06    1.46002511e-08
         4.28e-06   1.459874085e-08
         4.29e-06   1.459808356e-08
          4.3e-06   1.460086268e-08
         4.31e-06   1.460524421e-08
         4.32e-06   1.460757649e-08
         4.33e-06   1.460447799e-08
         4.34e-06   1.459683211e-08
         4.35e-06   1.459027552e-08
         4.36e-06   1.459280922e-08
         4.37e-06   1.459057253e-08
         4.38e-06   1.459467701e-08
         4.39e-06    1.45976387e-08
          4.4e-06   1.459780303e-08
         4.41e-06   1.459670711e-08
         4.42e-06   1.459927382e-08
         4.43e-06   1.460059232e-08
         4.44e-06   1.460043314e-08
         4.45e-06   1.460053418e-08
         4.46e-06   1.460077339e-08
         4.47e-06   1.460504973e-08
         4.48e-06   1.460639181e-08
         4.49e-06   1.461016071e-08
          4.5e-06   1.461528994e-08
         4.51e-06   1.461464643e-08
         4.52e-06     1.4613356e-08
         4.53e-06   1.461481195e-08
         4.54e-06   1.461411451e-08
         4.55e-06   1.461411219e-08
         4.56e-06   1.461696551e-08
         4.57e-06   1.461739339e-08
         4.58e-06   1.461748961e-08
         4.59e-06   1.461865967e-08
          4.6e-06   1.462257866e-08
         4.61e-06   1.462244187e-08
         4.62e-06   1.462198567e-08
         4.63e-06   1.462488336e-08
         4.64e-06   1.462742664e-08
         4.65e-06   1.462766215e-08
         4.66e-06   1.462813352e-08
         4.67e-06   1.462848151e-08
         4.68e-06   1.462777776e-08
         4.69e-06   1.463000232e-08
          4.7e-06   1.463094167e-08
         4.71e-06   1.463216125e-08
         4.72e-06   1.463694819e-08
         4.73e-06   1.463702094e-08
         4.74e-06   1.463393826e-08
         4.75e-06   1.463376215e-08
         4.76e-06    1.46361935e-08
         4.77e-06   1.463056958e-08
         4.78e-06   1.463422564e-08
         4.79e-06     1.4628336e-08
          4.8e-06   1.462623996e-08
         4.81e-06   1.462612126e-08
         4.82e-06   1.462184016e-08
         4.83e-06   1.462364517e-08
         4.84e-06   1.462223158e-08
         4.85e-06   1.462079547e-08
         4.86e-06   1.462229615e-08
         4.87e-06   1.462248633e-08
         4.88e-06   1.462343633e-08
         4.89e-06   1.462043104e-08
          4.9e-06   1.462339249e-08
         4.91e-06   1.462134682e-08
         4.92e-06   1.462191007e-08
         4.93e-06    1.46200304e-08
         4.94e-06   1.462229874e-08
         4.95e-06   1.462401604e-08
         4.96e-06   1.462470611e-08
         4.97e-06   1.462522835e-08
         4.98e-06   1.463159798e-08
         4.99e-06    1.46304893e-08
            5e-06   1.463364744e-08
         5.01e-06   1.463075941e-08
         5.02e-06   1.463339462e-08
         5.03e-06   1.463801098e-08
         5.04e-06   1.463806411e-08
         5.05e-06   1.464129871e-08
         5.06e-06   1.464267645e-08
         5.07e-06   1.464618307e-08
         5.08e-06    1.46465132e-08
         5.09e-06   1.464925599e-08
          5.1e-06   1.465388841e-08
         5.11e-06   1.465502224e-08
         5.12e-06   1.465355181e-08
         5.13e-06   1.465244181e-08
         5.14e-06    1.46505466e-08
         5.15e-06   1.465030959e-08
         5.16e-06   1.465375791e-08
         5.17e-06   1.465159887e-08
         5.18e-06   1.465249563e-08
         5.19e-06   1.465808445e-08
          5.2e-06   1.465927607e-08
         5.21e-06   1.465732975e-08
         5.22e-06   1.465928507e-08
         5.23e-06   1.466154655e-08
         5.24e-06   1.465867969e-08
         5.25e-06   1.465622461e-08
         5.26e-06   1.465976917e-08
         5.27e-06   1.466174995e-08
         5.28e-06   1.466034703e-08
         5.29e-06   1.466136674e-08
          5.3e-06   1.466263892e-08
         5.31e-06   1.465741877e-08
         5.32e-06   1.465655668e-08
         5.33e-06   1.465878235e-08
         5.34e-06    1.46648501e-08
         5.35e-06   1.466189887e-08
         5.36e-06   1.465826547e-08
         5.37e-06   1.466194108e-08
         5.38e-06   1.466262394e-08
         5.39e-06   1.466464644e-08
          5.4e-06   1.466804649e-08
         5.41e-06   1.467046941e-08
         5.42e-06   1.466761256e-08
         5.43e-06   1.466512917e-08
         5.44e-06   1.466610695e-08
         5.45e-06   1.466849755e-08
         5.46e-06   1.466635001e-08
         5.47e-06   1.466354394e-08
         5.48e-06   1.466411811e-08
         5.49e-06   1.467129162e-08
          5.5e-06   1.467063974e-08
         5.51e-06   1.467621879e-08
         5.52e-06   1.467245864e-08
         5.53e-06   1.467395486e-08
         5.54e-06    1.46770341e-08
         5.55e-06   1.467548307e-08
         5.56e-06   1.468125439e-08
         5.57e-06   1.467747152e-08
         5.58e-06   1.467595678e-08
         5.59e-06   1.468067197e-08
          5.6e-06   1.468155556e-08
         5.61e-06   1.468624859e-08
         5.62e-06   1.468828354e-08
         5.63e-06   1.468253612e-08
         5.64e-06   1.468757966e-08
         5.65e-06   1.468559058e-08
         5.66e-06    1.46893367e-08
         5.67e-06   1.468593006e-08
         5.68e-06   1.468920269e-08
         5.69e-06   1.468846516e-08
          5.7e-06   1.469093975e-08
         5.71e-06   1.469109731e-08
         5.72e-06   1.468800341e-08
         5.73e-06   1.468984202e-08
         5.74e-06   1.468747292e-08
         5.75e-06   1.468817094e-08
         5.76e-06   1.468286889e-08
         5.77e-06   1.468905361e-08
         5.78e-06   1.468786472e-08
         5.79e-06   1.468495369e-08
          5.8e-06   1.468346594e-08
         5.81e-06   1.468778468e-08
         5.82e-06   1.469188565e-08
         5.83e-06   1.469108047e-08
         5.84e-06   1.469465663e-08
         5.85e-06   1.469623366e-08
         5.86e-06   1.469319234e-08
         5.87e-06   1.469499433e-08
         5.88e-06   1.469727949e-08
         5.89e-06   1.469310932e-08
          5.9e-06   1.469896176e-08
         5.91e-06   1.469913039e-08
         5.92e-06   1.469773457e-08
         5.93e-06   1.470071454e-08
         5.94e-06   1.469933322e-08
         5.95e-06   1.469794684e-08
         5.96e-06   1.470219707e-08
         5.97e-06   1.470396826e-08
         5.98e-06   1.470162423e-08
         5.99e-06   1.469897663e-08
            6e-06   1.470154811e-08
         6.01e-06   1.469896593e-08
         6.02e-06   1.469951494e-08
         6.03e-06   1.470159992e-08
         6.04e-06   1.470397543e-08
         6.05e-06   1.470591823e-08
         6.06e-06    1.47056746e-08
         6.07e-06   1.470237253e-08
         6.08e-06   1.470276944e-08
         6.09e-06   1.470322284e-08
          6.1e-06   1.470619727e-08
         6.11e-06   1.471038039e-08
         6.12e-06   1.470795541e-08
         6.13e-06   1.470851816e-08
         6.14e-06   1.470688617e-08
         6.15e-06   1.471146359e-08
         6.16e-06   1.471551035e-08
         6.17e-06    1.47127387e-08
         6.18e-06   1.471552548e-08
         6.19e-06   1.471545126e-08
          6.2e-06   1.471394282e-08
         6.21e-06   1.471145563e-08
         6.22e-06   1.471027791e-08
         6.23e-06   1.471198378e-08
         6.24e-06   1.471403802e-08
         6.25e-06   1.471487045e-08
         6.26e-06   1.471524462e-08
         6.27e-06   1.471503686e-08
         6.28e-06   1.471465751e-08
         6.29e-06   1.472015371e-08
          6.3e-06   1.472296192e-08
         6.31e-06   1.472437532e-08
         6.32e-06   1.472263306e-08
         6.33e-06   1.472144783e-08
         6.34e-06   1.472577711e-08
         6.35e-06   1.472502141e-08
         6.36e-06   1.472348638e-08
         6.37e-06   1.472613812e-08
         6.38e-06   1.472723761e-08
         6.39e-06   1.472730351e-08
          6.4e-06   1.472645209e-08
         6.41e-06   1.473113937e-08
         6.42e-06   1.472657166e-08
         6.43e-06   1.472517463e-08
         6.44e-06   1.472337604e-08
         6.45e-06   1.472309247e-08
         6.46e-06   1.472376309e-08
         6.47e-06   1.472810491e-08
         6.48e-06    1.47262549e-08
         6.49e-06   1.472662551e-08
          6.5e-06   1.472808433e-08
         6.51e-06   1.472919364e-08
         6.52e-06   1.472931411e-08
         6.53e-06   1.473350326e-08
         6.54e-06   1.473403029e-08
         6.55e-06   1.473899423e-08
         6.56e-06   1.473923402e-08
         6.57e-06   1.473981519e-08
         6.58e-06   1.474257168e-08
         6.59e-06   1.474172653e-08
          6.6e-06   1.473929501e-08
         6.61e-06   1.473910734e-08
         6.62e-06   1.474194396e-08
         6.63e-06   1.474120244e-08
         6.64e-06   1.474022041e-08
         6.65e-06   1.473912346e-08
         6.66e-06   1.474115234e-08
         6.67e-06   1.473724243e-08
         6.68e-06   1.473555622e-08
         6.69e-06   1.473039501e-08
          6.7e-06   1.473340786e-08
         6.71e-06    1.47326076e-08
         6.72e-06   1.473468962e-08
         6.73e-06   1.473407855e-08
         6.74e-06   1.473425484e-08
         6.75e-06   1.473525269e-08
         6.76e-06    1.47355517e-08
         6.77e-06   1.473379685e-08
         6.78e-06   1.473674234e-08
         6.79e-06   1.473923312e-08
          6.8e-06   1.474464701e-08
         6.81e-06   1.474779678e-08
         6.82e-06   1.475338434e-08
         6.83e-06   1.475545298e-08
         6.84e-06   1.475256184e-08
         6.85e-06   1.474914769e-08
         6.86e-06   1.475055367e-08
         6.87e-06   1.474771612e-08
         6.88e-06   1.475211139e-08
         6.89e-06   1.475372261e-08
          6.9e-06    1.47522133e-08
         6.91e-06   1.474953064e-08
         6.92e-06   1.474952249e-08
         6.93e-06   1.475123364e-08
         6.94e-06   1.475459513e-08
         6.95e-06   1.475337031e-08
         6.96e-06   1.475565373e-08
         6.97e-06   1.475614461e-08
         6.98e-06    1.47548661e-08
         6.99e-06   1.475395951e-08
            7e-06   1.474850439e-08
         7.01e-06   1.475276336e-08
         7.02e-06   1.475819889e-08
         7.03e-06   1.475990698e-08
         7.04e-06   1.476110317e-08
         7.05e-06   1.476230272e-08
         7.06e-06   1.476070744e-08
         7.07e-06   1.476566676e-08
         7.08e-06   1.476552938e-08
         7.09e-06   1.475991249e-08
          7.1e-06   1.475794776e-08
         7.11e-06   1.475799962e-08
         7.12e-06   1.475798988e-08
         7.13e-06   1.476004257e-08
         7.14e-06   1.475896677e-08
         7.15e-06   1.476132612e-08
         7.16e-06   1.476043441e-08
         7.17e-06   1.475937869e-08
         7.18e-06   1.476096949e-08
         7.19e-06   1.476172334e-08
          7.2e-06   1.476431923e-08
         7.21e-06   1.476575302e-08
         7.22e-06    1.47641314e-08
         7.23e-06   1.476488913e-08
         7.24e-06   1.476661555e-08
         7.25e-06   1.476323626e-08
         7.26e-06   1.476497505e-08
         7.27e-06   1.476699567e-08
         7.28e-06   1.477075539e-08
         7.29e-06   1.477656749e-08
          7.3e-06   1.477696561e-08
         7.31e-06   1.477966631e-08
         7.32e-06   1.478031485e-08
         7.33e-06   1.478216431e-08
         7.34e-06   1.477896602e-08
         7.35e-06   1.478280523e-08
         7.36e-06   1.478664477e-08
         7.37e-06   1.478756037e-08
         7.38e-06   1.478546522e-08
         7.39e-06   1.478410484e-08
          7.4e-06   1.478314379e-08
         7.41e-06   1.478331241e-08
         7.42e-06   1.478442463e-08
         7.43e-06   1.478287331e-08
         7.44e-06   1.478117291e-08
         7.45e-06   1.477463081e-08
         7.46e-06    1.47782899e-08
         7.47e-06   1.477983289e-08
         7.48e-06   1.477767704e-08
         7.49e-06   1.478305075e-08
          7.5e-06   1.478286514e-08
         7.51e-06   1.478434376e-08
         7.52e-06   1.478519384e-08
         7.53e-06   1.478711454e-08
         7.54e-06   1.478392262e-08
         7.55e-06   1.478493514e-08
         7.56e-06   1.478776345e-08
         7.57e-06   1.478292006e-08
         7.58e-06   1.478726601e-08
         7.59e-06     1.4785969e-08
          7.6e-06   1.478857434e-08
         7.61e-06   1.478667985e-08
         7.62e-06   1.478615592e-08
         7.63e-06   1.478766794e-08
         7.64e-06   1.479270324e-08
         7.65e-06   1.479493977e-08
         7.66e-06   1.479582665e-08
         7.67e-06   1.479521898e-08
         7.68e-06   1.479194854e-08
         7.69e-06   1.479150923e-08
          7.7e-06    1.47866014e-08
         7.71e-06   1.478821373e-08
         7.72e-06   1.478963471e-08
         7.73e-06   1.479254952e-08
         7.74e-06   1.479540303e-08
         7.75e-06   1.479761951e-08
         7.76e-06   1.479748594e-08
         7.77e-06     1.4797095e-08
         7.78e-06   1.479126363e-08
         7.79e-06   1.478932062e-08
          7.8e-06   1.478616023e-08
         7.81e-06   1.478967558e-08
         7.82e-06   1.479406177e-08
         7.83e-06   1.478952192e-08
         7.84e-06   1.478865947e-08
         7.85e-06   1.478946239e-08
         7.86e-06   1.479090842e-08
         7.87e-06   1.478842534e-08
         7.88e-06   1.479071445e-08
         7.89e-06   1.479321824e-08
          7.9e-06   1.479212886e-08
         7.91e-06   1.478944189e-08
         7.92e-06   1.479163954e-08
         7.93e-06   1.479737093e-08
         7.94e-06   1.479773587e-08
         7.95e-06   1.480400491e-08
         7.96e-06   1.480215402e-08
         7.97e-06   1.479920696e-08
         7.98e-06   1.480247853e-08
         7.99e-06   1.480050369e-08
            8e-06   1.479976409e-08
         8.01e-06   1.479739957e-08
         8.02e-06     1.4795896e-08
         8.03e-06   1.479796837e-08
         8.04e-06   1.479677072e-08
         8.05e-06    1.47988035e-08
         8.06e-06   1.480894805e-08
         8.07e-06   1.481003696e-08
         8.08e-06   1.481067107e-08
         8.09e-06   1.481173987e-08
          8.1e-06   1.481609035e-08
         8.11e-06   1.481536112e-08
         8.12e-06   1.481664824e-08
         8.13e-06   1.481531427e-08
         8.14e-06   1.481135445e-08
         8.15e-06   1.480984824e-08
         8.16e-06   1.481068336e-08
         8.17e-06   1.480949015e-08
         8.18e-06   1.480897555e-08
         8.19e-06   1.481023912e-08
          8.2e-06   1.481255019e-08
         8.21e-06     1.4812794e-08
         8.22e-06   1.481374712e-08
         8.23e-06    1.48107813e-08
         8.24e-06   1.481002414e-08
         8.25e-06   1.481354244e-08
         8.26e-06   1.481653575e-08
         8.27e-06   1.481441249e-08
         8.28e-06   1.481700936e-08
         8.29e-06   1.481736898e-08
          8.3e-06   1.481582434e-08
         8.31e-06     1.4815888e-08