# Probe 0 (5e-06 5e-06 5e-06)
#           Probe                 0
#            Time
            1e-08       9832.926331
            2e-08       9709.925065
            3e-08        9614.65954
            4e-08       9525.489635
            5e-08       9445.129513
            6e-08       9383.340524
            7e-08        9321.18834
            8e-08       9255.691035
            9e-08        9206.55447
            1e-07       9153.501996
          1.1e-07       9108.337702
          1.2e-07       9067.168806
          1.3e-07        9025.33119
          1.4e-07       8982.755174
          1.5e-07       8950.134102
          1.6e-07       8923.471975
          1.7e-07       8893.853954
          1.8e-07       8860.820938
          1.9e-07         8834.3994
            2e-07       8807.811255
          2.1e-07       8784.319731
          2.2e-07       8755.094959
          2.3e-07       8729.208482
          2.4e-07       8699.654737
          2.5e-07       8677.109726
          2.6e-07       8655.937807
          2.7e-07       8633.196411
          2.8e-07       8612.246808
          2.9e-07       8594.642695
            3e-07       8576.587439
          3.1e-07       8562.951811
          3.2e-07       8547.232244
          3.3e-07       8525.980294
          3.4e-07       8507.291018
          3.5e-07       8487.441621
          3.6e-07       8470.661272
          3.7e-07       8451.017599
          3.8e-07       8434.397301
          3.9e-07       8417.017936
            4e-07        8400.79348
          4.1e-07       8388.323294
          4.2e-07       8373.419609
          4.3e-07       8362.912383
          4.4e-07       8348.791985
          4.5e-07       8338.965479
          4.6e-07       8326.568067
          4.7e-07        8313.20032
          4.8e-07       8303.549264
          4.9e-07       8289.937354
            5e-07       8278.853183
          5.1e-07       8267.777112
          5.2e-07       8256.439824
          5.3e-07       8247.639728
          5.4e-07       8234.963468
          5.5e-07       8225.484122
          5.6e-07       8213.970907
          5.7e-07       8202.508334
          5.8e-07       8193.290957
          5.9e-07       8181.409633
            6e-07       8170.826152
          6.1e-07       8160.525341
          6.2e-07       8151.460536
          6.3e-07       8140.778848
          6.4e-07       8130.950968
          6.5e-07       8124.118186
          6.6e-07       8116.825797
          6.7e-07       8108.441394
          6.8e-07       8098.720636
          6.9e-07       8089.915805
            7e-07       8080.020476
          7.1e-07       8072.913421
          7.2e-07       8066.977154
          7.3e-07       8057.754598
          7.4e-07       8050.635668
          7.5e-07       8044.284159
          7.6e-07       8037.315759
          7.7e-07       8029.125749
          7.8e-07       8022.959049
          7.9e-07       8014.406317
            8e-07       8008.508964
          8.1e-07       8001.493017
          8.2e-07       7995.515574
          8.3e-07       7989.740368
          8.4e-07       7983.893822
          8.5e-07       7978.449603
          8.6e-07       7972.324564
          8.7e-07       7966.076405
          8.8e-07       7957.914563
          8.9e-07       7953.105144
            9e-07       7946.401335
          9.1e-07       7941.594491
          9.2e-07       7935.478023
          9.3e-07       7929.910358
          9.4e-07       7925.064785
          9.5e-07       7919.537817
          9.6e-07       7913.669637
          9.7e-07        7908.14842
          9.8e-07       7901.425153
          9.9e-07       7894.170411
            1e-06       7889.001279
         1.01e-06       7884.343058
         1.02e-06       7879.335231
         1.03e-06       7874.740524
         1.04e-06       7869.865488
         1.05e-06       7864.048942
         1.06e-06       7858.826436
         1.07e-06       7853.193385
         1.08e-06       7848.059812
         1.09e-06       7843.190838
          1.1e-06        7838.05628
         1.11e-06       7832.496972
         1.12e-06       7828.779716
         1.13e-06       7823.573099
         1.14e-06       7819.701275
         1.15e-06       7814.308241
         1.16e-06       7810.057578
         1.17e-06       7806.084757
         1.18e-06       7801.856652
         1.19e-06       7795.722666
          1.2e-06       7790.231549
         1.21e-06       7785.594898
         1.22e-06       7781.364135
         1.23e-06       7777.712922
         1.24e-06       7771.837143
         1.25e-06       7767.617195
         1.26e-06       7763.415531
         1.27e-06       7759.477289
         1.28e-06       7755.421893
         1.29e-06       7751.702177
          1.3e-06       7747.384796
         1.31e-06        7742.81546
         1.32e-06        7739.56946
         1.33e-06       7736.639136
         1.34e-06       7732.681496
         1.35e-06        7728.24021
         1.36e-06       7724.900082
         1.37e-06       7720.606213
         1.38e-06       7716.406776
         1.39e-06       7712.443937
          1.4e-06       7709.306355
         1.41e-06       7705.456028
         1.42e-06       7702.411462
         1.43e-06       7699.080845
         1.44e-06       7696.104898
         1.45e-06       7692.873816
         1.46e-06       7688.435583
         1.47e-06       7685.587899
         1.48e-06        7681.72795
         1.49e-06       7677.784247
          1.5e-06       7674.498231
         1.51e-06       7671.344509
         1.52e-06       7668.367299
         1.53e-06       7664.196162
         1.54e-06       7660.894051
         1.55e-06       7656.799578
         1.56e-06       7653.812071
         1.57e-06       7650.691932
         1.58e-06       7648.391534
         1.59e-06       7645.342953
          1.6e-06       7641.223811
         1.61e-06       7638.577585
         1.62e-06       7636.507096
         1.63e-06        7633.63846
         1.64e-06        7630.75017
         1.65e-06       7626.844741
         1.66e-06       7623.789269
         1.67e-06        7620.10598
         1.68e-06       7616.803465
         1.69e-06       7613.830645
          1.7e-06       7611.422042
         1.71e-06       7608.541115
         1.72e-06       7604.925142
         1.73e-06         7601.9811
         1.74e-06       7599.812881
         1.75e-06       7596.315392
         1.76e-06       7595.085866
         1.77e-06       7592.525709
         1.78e-06       7590.020942
         1.79e-06        7586.88991
          1.8e-06       7584.136533
         1.81e-06       7579.934035
         1.82e-06       7577.129209
         1.83e-06       7573.985797
         1.84e-06       7571.241035
         1.85e-06        7568.18372
         1.86e-06       7565.788017
         1.87e-06       7562.943066
         1.88e-06        7560.85761
         1.89e-06       7557.715721
          1.9e-06       7554.946831
         1.91e-06       7552.079637
         1.92e-06       7549.664782
         1.93e-06       7546.724019
         1.94e-06       7543.849447
         1.95e-06       7542.067052
         1.96e-06       7539.288895
         1.97e-06       7536.487072
         1.98e-06       7534.506265
         1.99e-06       7533.185754
            2e-06       7531.142237
         2.01e-06       7529.014531
         2.02e-06       7525.999783
         2.03e-06       7523.345577
         2.04e-06       7520.262952
         2.05e-06       7517.897446
         2.06e-06       7516.769948
         2.07e-06       7514.029639
         2.08e-06       7511.457752
         2.09e-06       7509.084918
          2.1e-06       7506.528126
         2.11e-06       7504.194814
         2.12e-06       7502.132766
         2.13e-06       7499.700388
         2.14e-06       7498.164104
         2.15e-06       7496.098412
         2.16e-06       7493.431681
         2.17e-06       7491.118777
         2.18e-06       7489.262223
         2.19e-06       7486.268707
          2.2e-06       7483.455781
         2.21e-06       7480.707953
         2.22e-06       7479.230995
         2.23e-06       7476.885417
         2.24e-06       7475.064577
         2.25e-06       7472.623199
         2.26e-06       7470.887646
         2.27e-06       7469.610568
         2.28e-06       7467.624687
         2.29e-06       7465.337084
          2.3e-06       7463.832191
         2.31e-06       7462.085858
         2.32e-06       7459.681938
         2.33e-06       7458.854998
         2.34e-06       7455.914843
         2.35e-06       7453.965532
         2.36e-06       7452.595802
         2.37e-06       7449.992277
         2.38e-06       7448.207623
         2.39e-06       7446.565041
          2.4e-06       7444.325326
         2.41e-06       7442.675499
         2.42e-06       7440.576549
         2.43e-06       7438.308796
         2.44e-06       7436.721481
         2.45e-06        7434.99188
         2.46e-06       7432.444456
         2.47e-06       7430.762688
         2.48e-06       7429.337047
         2.49e-06        7427.50714
          2.5e-06       7425.747659
         2.51e-06       7424.198048
         2.52e-06       7421.728963
         2.53e-06       7419.832177
         2.54e-06       7418.033639
         2.55e-06       7416.178604
         2.56e-06       7414.107907
         2.57e-06       7412.334327
         2.58e-06       7410.344792
         2.59e-06       7408.740551
          2.6e-06       7406.932803
         2.61e-06       7405.497781
         2.62e-06       7403.147166
         2.63e-06       7401.376759
         2.64e-06       7399.687568
         2.65e-06        7398.53527
         2.66e-06       7396.416646
         2.67e-06       7394.265006
         2.68e-06       7392.847547
         2.69e-06       7391.365641
          2.7e-06       7388.385254
         2.71e-06       7386.855193
         2.72e-06        7385.47319
         2.73e-06       7384.167389
         2.74e-06       7382.746437
         2.75e-06       7381.123002
         2.76e-06       7379.721392
         2.77e-06       7377.837366
         2.78e-06       7375.714701
         2.79e-06        7373.86786
          2.8e-06        7372.89318
         2.81e-06       7371.983522
         2.82e-06       7370.472254
         2.83e-06       7369.502839
         2.84e-06       7367.949979
         2.85e-06        7366.39991
         2.86e-06       7365.594115
         2.87e-06       7365.055479
         2.88e-06       7363.533283
         2.89e-06       7361.838301
          2.9e-06        7359.36868
         2.91e-06       7357.341139
         2.92e-06       7356.577364
         2.93e-06       7355.896256
         2.94e-06       7354.804939
         2.95e-06       7353.399073
         2.96e-06       7351.934279
         2.97e-06       7350.582168
         2.98e-06       7348.942005
         2.99e-06       7347.744616
            3e-06       7347.148409
         3.01e-06       7345.162138
         3.02e-06       7343.846708
         3.03e-06       7342.381331
         3.04e-06       7341.240579
         3.05e-06       7340.070255
         3.06e-06       7339.013534
         3.07e-06       7337.782343
         3.08e-06       7336.844611
         3.09e-06       7335.149996
          3.1e-06       7333.662448
         3.11e-06       7332.765583
         3.12e-06       7331.729586
         3.13e-06       7329.673656
         3.14e-06       7328.280428
         3.15e-06       7327.278233
         3.16e-06       7325.760961
         3.17e-06       7324.573766
         3.18e-06        7323.52936
         3.19e-06        7322.41223
          3.2e-06        7321.57277
         3.21e-06       7320.486661
         3.22e-06       7319.401079
         3.23e-06       7317.674645
         3.24e-06        7316.47469
         3.25e-06       7315.150413
         3.26e-06       7314.490197
         3.27e-06       7313.418753
         3.28e-06       7312.432562
         3.29e-06       7310.972989
          3.3e-06       7310.325707
         3.31e-06       7309.876236
         3.32e-06       7308.603503
         3.33e-06       7307.570538
         3.34e-06       7306.222682
         3.35e-06       7304.689139
         3.36e-06       7303.371354
         3.37e-06       7301.526806
         3.38e-06        7300.44392
         3.39e-06       7299.225102
          3.4e-06       7297.641534
         3.41e-06       7296.589455
         3.42e-06       7295.749259
         3.43e-06       7294.822646
         3.44e-06       7293.568754
         3.45e-06       7292.295286
         3.46e-06       7290.831591
         3.47e-06       7289.460036
         3.48e-06       7288.152349
         3.49e-06       7287.044204
          3.5e-06       7285.755537
         3.51e-06       7284.655847
         3.52e-06       7283.422266
         3.53e-06       7282.561895
         3.54e-06       7281.030931
         3.55e-06       7280.380839
         3.56e-06       7279.615151
         3.57e-06       7278.697805
         3.58e-06       7277.898292
         3.59e-06       7277.181913
          3.6e-06       7275.972675
         3.61e-06       7274.408584
         3.62e-06       7273.142475
         3.63e-06       7271.919484
         3.64e-06       7270.373092
         3.65e-06        7269.11211
         3.66e-06       7267.926012
         3.67e-06        7267.11289
         3.68e-06       7265.282845
         3.69e-06       7264.015973
          3.7e-06       7263.179916
         3.71e-06       7262.862279
         3.72e-06       7261.646637
         3.73e-06       7260.213723
         3.74e-06        7259.43107
         3.75e-06       7258.339696
         3.76e-06       7257.496366
         3.77e-06       7256.590338
         3.78e-06       7255.225744
         3.79e-06       7254.376147
          3.8e-06       7253.438809
         3.81e-06       7252.517846
         3.82e-06       7251.749221
         3.83e-06       7250.975146
         3.84e-06       7250.072673
         3.85e-06       7249.255738
         3.86e-06       7248.536492
         3.87e-06       7247.703081
         3.88e-06       7246.818075
         3.89e-06       7245.843414
          3.9e-06       7245.302207
         3.91e-06       7243.967658
         3.92e-06       7243.068585
         3.93e-06       7242.215897
         3.94e-06          7240.886
         3.95e-06       7239.509541
         3.96e-06       7238.611985
         3.97e-06       7237.770593
         3.98e-06       7236.251483
         3.99e-06       7235.316649
            4e-06       7234.464339
         4.01e-06       7234.065315
         4.02e-06       7232.541238
         4.03e-06       7231.594667
         4.04e-06       7230.678926
         4.05e-06        7229.64877
         4.06e-06       7229.037696
         4.07e-06       7227.653576
         4.08e-06       7227.076515
         4.09e-06       7226.239503
          4.1e-06       7225.558702
         4.11e-06       7224.633521
         4.12e-06       7223.516983
         4.13e-06       7222.558618
         4.14e-06       7221.814076
         4.15e-06       7221.227753
         4.16e-06       7220.759048
         4.17e-06       7219.323429
         4.18e-06       7218.415944
         4.19e-06        7217.56597
          4.2e-06       7217.021573
         4.21e-06       7216.373327
         4.22e-06       7214.993604
         4.23e-06       7214.031016
         4.24e-06       7212.966492
         4.25e-06        7211.64921
         4.26e-06        7210.66376
         4.27e-06       7209.668072
         4.28e-06        7209.10115
         4.29e-06       7208.497843
          4.3e-06       7207.942409
         4.31e-06       7207.516681
         4.32e-06       7207.087108
         4.33e-06       7206.675857
         4.34e-06       7206.454726
         4.35e-06       7205.711653
         4.36e-06       7204.674178
         4.37e-06       7203.637379
         4.38e-06       7202.782684
         4.39e-06       7201.929041
          4.4e-06         7200.9527
         4.41e-06       7199.980135
         4.42e-06       7198.602883
         4.43e-06       7197.729497
         4.44e-06       7197.116147
         4.45e-06       7195.903491
         4.46e-06       7194.960947
         4.47e-06       7194.102773
         4.48e-06       7193.536851
         4.49e-06       7192.617666
          4.5e-06       7191.915624
         4.51e-06       7191.309899
         4.52e-06       7190.631455
         4.53e-06       7189.886231
         4.54e-06       7189.125162
         4.55e-06       7187.871863
         4.56e-06       7186.717089
         4.57e-06       7186.008859
         4.58e-06       7185.436428
         4.59e-06       7185.001641
          4.6e-06       7184.608125
         4.61e-06       7183.937563
         4.62e-06       7183.446814
         4.63e-06       7183.152365
         4.64e-06       7182.085994
         4.65e-06       7181.605195
         4.66e-06        7180.45777
         4.67e-06       7179.273756
         4.68e-06       7178.910006
         4.69e-06       7178.752041
          4.7e-06       7177.885846
         4.71e-06       7177.335955
         4.72e-06       7176.923719
         4.73e-06       7176.477713
         4.74e-06       7175.639375
         4.75e-06       7174.780535
         4.76e-06       7174.628251
         4.77e-06       7173.654847
         4.78e-06       7173.335797
         4.79e-06       7173.070264
          4.8e-06       7172.978465
         4.81e-06       7172.515022
         4.82e-06       7171.624245
         4.83e-06       7171.054246
         4.84e-06       7170.258281
         4.85e-06       7170.102798
         4.86e-06        7169.72477
         4.87e-06        7169.03866
         4.88e-06       7168.477536
         4.89e-06       7168.332049
          4.9e-06       7167.513695
         4.91e-06       7166.830408
         4.92e-06       7166.535277
         4.93e-06       7166.128926
         4.94e-06       7165.530992
         4.95e-06       7165.054284
         4.96e-06       7164.187163
         4.97e-06       7164.217773
         4.98e-06       7163.411679
         4.99e-06       7162.406119
            5e-06       7161.859422
         5.01e-06       7161.401302
         5.02e-06       7160.290224
         5.03e-06       7159.947906
         5.04e-06       7159.379534
         5.05e-06       7158.622142
         5.06e-06       7158.208929
         5.07e-06       7157.714404
         5.08e-06       7157.155322
         5.09e-06       7157.027499
          5.1e-06       7156.112384
         5.11e-06       7154.855081
         5.12e-06       7153.778744
         5.13e-06         7152.6523
         5.14e-06        7152.05977
         5.15e-06       7151.637219
         5.16e-06       7151.052197
         5.17e-06       7150.218392
         5.18e-06       7149.648904
         5.19e-06       7148.517497
          5.2e-06       7147.517031
         5.21e-06       7147.354233
         5.22e-06       7146.720283
         5.23e-06       7145.985379
         5.24e-06        7145.27353
         5.25e-06       7144.563914
         5.26e-06       7144.050773
         5.27e-06       7143.426485
         5.28e-06        7142.71069
         5.29e-06       7142.028814
          5.3e-06       7141.553199
         5.31e-06       7141.007974
         5.32e-06       7140.115905
         5.33e-06        7139.22182
         5.34e-06        7138.06517
         5.35e-06       7137.593578
         5.36e-06       7136.734217
         5.37e-06       7135.860375
         5.38e-06       7135.381618
         5.39e-06       7134.925983
          5.4e-06       7134.291323
         5.41e-06       7133.733361
         5.42e-06       7133.199417
         5.43e-06       7133.030472
         5.44e-06       7132.651931
         5.45e-06       7132.530118
         5.46e-06       7132.439018
         5.47e-06       7131.588595
         5.48e-06       7131.028267
         5.49e-06        7130.59436
          5.5e-06       7129.843824
         5.51e-06       7129.671917
         5.52e-06       7129.372146
         5.53e-06       7128.440317
         5.54e-06       7128.220564
         5.55e-06         7127.6323
         5.56e-06       7127.061128
         5.57e-06       7126.577494
         5.58e-06       7126.141549
         5.59e-06       7124.977106
          5.6e-06       7123.891353
         5.61e-06       7123.608202
         5.62e-06       7122.906431
         5.63e-06       7122.303237
         5.64e-06       7122.055102
         5.65e-06       7121.803068
         5.66e-06       7121.147683
         5.67e-06       7120.254556
         5.68e-06       7119.955888
         5.69e-06       7119.863566
          5.7e-06       7119.332993
         5.71e-06        7118.76169
         5.72e-06       7118.286323
         5.73e-06       7117.932091
         5.74e-06       7117.726816
         5.75e-06       7116.711334
         5.76e-06       7115.896431
         5.77e-06        7115.64699
         5.78e-06        7115.06506
         5.79e-06       7114.331666
          5.8e-06        7113.74292
         5.81e-06         7112.9754
         5.82e-06       7112.744785
         5.83e-06       7112.403391
         5.84e-06       7112.151851
         5.85e-06       7111.212502
         5.86e-06       7110.713113
         5.87e-06       7110.779074
         5.88e-06       7110.505027
         5.89e-06       7109.740377
          5.9e-06       7109.221275
         5.91e-06       7108.576944
         5.92e-06       7108.297435
         5.93e-06       7107.643067
         5.94e-06       7106.773271
         5.95e-06       7106.090903
         5.96e-06       7105.465478
         5.97e-06       7104.997189
         5.98e-06       7104.557785
         5.99e-06       7104.100192
            6e-06        7103.44475
         6.01e-06       7103.098521
         6.02e-06       7102.436947
         6.03e-06       7102.118688
         6.04e-06       7101.555192
         6.05e-06       7101.114349
         6.06e-06       7101.257339
         6.07e-06       7101.243121
         6.08e-06       7101.164817
         6.09e-06       7100.804525
          6.1e-06       7100.302263
         6.11e-06       7099.754722
         6.12e-06       7099.062857
         6.13e-06       7098.300513
         6.14e-06       7097.917846
         6.15e-06       7097.601078
         6.16e-06       7097.094665
         6.17e-06       7096.735895
         6.18e-06       7095.988295
         6.19e-06       7095.848568
          6.2e-06       7095.605368
         6.21e-06       7095.055304
         6.22e-06       7094.846666
         6.23e-06       7094.841027
         6.24e-06       7094.487299
         6.25e-06       7094.074011
         6.26e-06       7093.455257
         6.27e-06       7093.275886
         6.28e-06       7093.147197
         6.29e-06       7092.936077
          6.3e-06       7092.275083
         6.31e-06       7092.029798
         6.32e-06       7091.603182
         6.33e-06       7090.876426
         6.34e-06       7090.154356
         6.35e-06       7090.085725
         6.36e-06         7089.9786
         6.37e-06       7089.350253
         6.38e-06       7088.750012
         6.39e-06       7088.012907
          6.4e-06       7086.893732
         6.41e-06       7086.956227
         6.42e-06       7086.480041
         6.43e-06       7085.959743
         6.44e-06       7085.237693
         6.45e-06       7085.080423
         6.46e-06       7084.740188
         6.47e-06       7084.378621
         6.48e-06       7083.829931
         6.49e-06       7083.333757
          6.5e-06       7082.882231
         6.51e-06       7082.355211
         6.52e-06       7081.604691
         6.53e-06       7081.479427
         6.54e-06       7081.108651
         6.55e-06       7080.798706
         6.56e-06       7080.909559
         6.57e-06       7080.601687
         6.58e-06       7080.174068
         6.59e-06       7079.813513
          6.6e-06        7079.38111
         6.61e-06       7079.176669
         6.62e-06       7078.829315
         6.63e-06       7078.188476
         6.64e-06       7077.768043
         6.65e-06       7077.372218
         6.66e-06        7076.85732
         6.67e-06       7076.096404
         6.68e-06       7075.786999
         6.69e-06       7075.307141
          6.7e-06        7074.83901
         6.71e-06       7074.467063
         6.72e-06       7073.964891
         6.73e-06       7073.589587
         6.74e-06       7073.285371
         6.75e-06       7072.995767
         6.76e-06       7072.843994
         6.77e-06       7072.204631
         6.78e-06       7072.282332
         6.79e-06       7071.970356
          6.8e-06       7071.368737
         6.81e-06       7071.143232
         6.82e-06       7071.191396
         6.83e-06       7071.040098
         6.84e-06       7070.710776
         6.85e-06       7070.251751
         6.86e-06       7070.142271
         6.87e-06        7069.74477
         6.88e-06       7070.013346
         6.89e-06       7069.771065
          6.9e-06        7069.01767
         6.91e-06       7068.837803
         6.92e-06       7068.359693
         6.93e-06       7067.925867
         6.94e-06       7067.459274
         6.95e-06       7067.029116
         6.96e-06       7066.901996
         6.97e-06       7066.504525
         6.98e-06       7066.132781
         6.99e-06       7066.035434
            7e-06       7065.556477
         7.01e-06         7065.2571
         7.02e-06       7064.788709
         7.03e-06       7064.485187
         7.04e-06       7064.524091
         7.05e-06       7064.198422
         7.06e-06       7063.826868
         7.07e-06       7063.679176
         7.08e-06       7063.486707
         7.09e-06       7062.950125
          7.1e-06       7062.584288
         7.11e-06       7062.361389
         7.12e-06       7061.755324
         7.13e-06        7061.32406
         7.14e-06       7060.863857
         7.15e-06       7060.676136
         7.16e-06       7060.423083
         7.17e-06       7060.217457
         7.18e-06       7059.947406
         7.19e-06       7059.624937
          7.2e-06       7059.356354
         7.21e-06       7058.869955
         7.22e-06       7058.535284
         7.23e-06       7058.248929
         7.24e-06       7057.834926
         7.25e-06       7057.299482
         7.26e-06       7056.761546
         7.27e-06        7056.53386
         7.28e-06       7055.915275
         7.29e-06       7055.705095
          7.3e-06       7055.274671
         7.31e-06       7054.813269
         7.32e-06       7054.845472
         7.33e-06       7054.620672
         7.34e-06       7054.481616
         7.35e-06       7054.376813
         7.36e-06       7054.226151
         7.37e-06       7053.688542
         7.38e-06       7053.418019
         7.39e-06       7053.008576
          7.4e-06       7052.584562
         7.41e-06       7052.640957
         7.42e-06       7052.707715
         7.43e-06       7052.355545
         7.44e-06       7052.024864
         7.45e-06       7051.448136
         7.46e-06       7051.016178
         7.47e-06       7050.473707
         7.48e-06       7050.126814
         7.49e-06       7049.891678
          7.5e-06       7050.192844
         7.51e-06       7049.600897
         7.52e-06        7049.41067
         7.53e-06       7049.579371
         7.54e-06        7048.76617
         7.55e-06        7048.54489
         7.56e-06       7048.460785
         7.57e-06       7048.155526
         7.58e-06       7048.511226
         7.59e-06       7048.304139
          7.6e-06       7048.138743
         7.61e-06       7047.880725
         7.62e-06       7047.510295
         7.63e-06       7047.301398
         7.64e-06       7047.072352
         7.65e-06       7046.616783
         7.66e-06       7046.171161
         7.67e-06       7045.950419
         7.68e-06       7045.618291
         7.69e-06       7045.500683
          7.7e-06        7044.85312
         7.71e-06       7044.510236
         7.72e-06       7044.624406
         7.73e-06       7044.274302
         7.74e-06       7044.463443
         7.75e-06        7044.47774
         7.76e-06       7044.244321
         7.77e-06       7044.187868
         7.78e-06       7044.098914
         7.79e-06       7044.021288
          7.8e-06       7043.770066
         7.81e-06       7043.558362
         7.82e-06       7043.492279
         7.83e-06       7042.943537
         7.84e-06       7042.712742
         7.85e-06       7042.715258
         7.86e-06        7042.00076
         7.87e-06       7041.971475
         7.88e-06        7041.85979
         7.89e-06       7041.670277
          7.9e-06       7041.173957
         7.91e-06       7040.961573
         7.92e-06       7040.832409
         7.93e-06        7040.66144
         7.94e-06       7040.548392
         7.95e-06       7040.441972
         7.96e-06       7040.173571
         7.97e-06       7040.151246
         7.98e-06       7040.190119
         7.99e-06       7039.746793
            8e-06       7039.627217
         8.01e-06        7039.54297
         8.02e-06       7039.119574
         8.03e-06       7038.881077
         8.04e-06       7038.442829
         8.05e-06       7038.107803
         8.06e-06       7037.960458
         8.07e-06       7037.472613
         8.08e-06       7037.276153
         8.09e-06        7037.58414
          8.1e-06       7037.352874
         8.11e-06       7037.262303
         8.12e-06       7037.204585
         8.13e-06       7037.135274
         8.14e-06       7036.952437
         8.15e-06       7036.698137
         8.16e-06       7036.651324
         8.17e-06       7036.096374
         8.18e-06       7035.683511
         8.19e-06       7035.551945
          8.2e-06       7035.319369
         8.21e-06       7034.968012
         8.22e-06        7034.46411
         8.23e-06       7034.003845
         8.24e-06       7033.826759
         8.25e-06       7033.697987
         8.26e-06       7033.407239
         8.27e-06        7032.94694
         8.28e-06       7032.697578
         8.29e-06       7032.921636
          8.3e-06       7032.514314
         8.31e-06       7032.578169