# Probe 0 (5e-06 5e-06 5e-06)
#           Probe                 0
#            Time
            1e-08       10025.02582
            2e-08       10019.71257
            3e-08        10024.6107
            4e-08       10013.12005
            5e-08       10013.96825
            6e-08       10005.26128
            7e-08       9996.114105
            8e-08       9961.848684
            9e-08       9938.555706
            1e-07       9938.423559
          1.1e-07       9928.111456
          1.2e-07       9920.187473
          1.3e-07       9943.602454
          1.4e-07       9937.042324
          1.5e-07       9915.466275
          1.6e-07       9909.761116
          1.7e-07       9930.383973
          1.8e-07       9925.241687
          1.9e-07       9904.381044
            2e-07       9868.267175
          2.1e-07       9875.646578
          2.2e-07       9872.489527
          2.3e-07       9844.553508
          2.4e-07       9814.660032
          2.5e-07       9802.435131
          2.6e-07       9801.175852
          2.7e-07       9784.602906
          2.8e-07       9770.756033
          2.9e-07       9756.497241
            3e-07       9747.811245
          3.1e-07       9741.556424
          3.2e-07        9735.92171
          3.3e-07        9753.64215
          3.4e-07       9734.556716
          3.5e-07       9728.870352
          3.6e-07       9735.649354
          3.7e-07       9723.571203
          3.8e-07       9705.113617
          3.9e-07       9706.398781
            4e-07       9714.287672
          4.1e-07       9705.771096
          4.2e-07       9687.081631
          4.3e-07       9687.069258
          4.4e-07       9668.582321
          4.5e-07       9663.740904
          4.6e-07       9649.413411
          4.7e-07       9654.820373
          4.8e-07        9636.39629
          4.9e-07       9664.419175
            5e-07       9648.598241
          5.1e-07       9645.653618
          5.2e-07       9641.265058
          5.3e-07       9648.069128
          5.4e-07        9657.67857
          5.5e-07       9662.384686
          5.6e-07          9623.495
          5.7e-07       9612.637916
          5.8e-07        9608.67565
          5.9e-07       9596.308481
            6e-07        9596.35609
          6.1e-07       9570.223214
          6.2e-07        9547.01519
          6.3e-07       9547.822242
          6.4e-07       9549.253906
          6.5e-07       9538.067908
          6.6e-07       9526.779347
          6.7e-07       9516.672948
          6.8e-07       9488.758774
          6.9e-07       9480.253329
            7e-07       9467.024801
          7.1e-07       9471.867965
          7.2e-07       9485.999433
          7.3e-07       9503.879182
          7.4e-07       9497.193855
          7.5e-07       9484.078481
          7.6e-07       9476.190229
          7.7e-07       9466.362767
          7.8e-07       9452.147469
          7.9e-07       9455.985185
            8e-07       9449.833027
          8.1e-07       9434.820889
          8.2e-07       9429.565389
          8.3e-07       9428.649971
          8.4e-07       9431.341879
          8.5e-07       9416.780538
          8.6e-07        9425.09221
          8.7e-07       9416.867246
          8.8e-07       9412.341459
          8.9e-07       9410.291469
            9e-07        9410.77676
          9.1e-07       9396.155898
          9.2e-07       9389.031001
          9.3e-07       9388.072123
          9.4e-07       9388.750854
          9.5e-07       9379.706006
          9.6e-07       9375.785668
          9.7e-07       9367.995676
          9.8e-07       9361.231365
          9.9e-07       9344.758678
            1e-06        9335.22789
         1.01e-06       9356.093881
         1.02e-06       9355.217044
         1.03e-06       9355.578572
         1.04e-06       9351.754135
         1.05e-06       9330.322345
         1.06e-06       9323.895416
         1.07e-06       9316.091026
         1.08e-06       9320.913752
         1.09e-06       9300.056224
          1.1e-06       9288.541905
         1.11e-06       9257.634796
         1.12e-06       9242.138387
         1.13e-06       9251.800518
         1.14e-06       9257.428469
         1.15e-06       9260.551835
         1.16e-06       9249.206465
         1.17e-06        9248.28729
         1.18e-06       9242.208336
         1.19e-06       9266.783821
          1.2e-06       9276.837047
         1.21e-06       9257.869703
         1.22e-06       9233.810007
         1.23e-06         9228.0211
         1.24e-06       9242.346999
         1.25e-06       9231.595971
         1.26e-06        9230.82129
         1.27e-06       9222.057713
         1.28e-06       9212.331201
         1.29e-06       9208.850138
          1.3e-06       9187.745803
         1.31e-06       9181.404191
         1.32e-06       9167.979233
         1.33e-06       9172.603939
         1.34e-06       9160.117247
         1.35e-06       9165.610378
         1.36e-06       9161.450623
         1.37e-06       9138.747193
         1.38e-06       9140.324899
         1.39e-06       9131.462349
          1.4e-06       9137.229131
         1.41e-06       9121.066882
         1.42e-06       9108.507392
         1.43e-06       9117.094311
         1.44e-06       9113.006841
         1.45e-06       9086.289121
         1.46e-06        9090.87398
         1.47e-06       9087.623436
         1.48e-06       9095.293222
         1.49e-06       9080.468874
          1.5e-06       9086.195046
         1.51e-06       9098.213295
         1.52e-06       9093.751649
         1.53e-06       9103.951081
         1.54e-06       9078.879864
         1.55e-06       9074.654183
         1.56e-06       9064.291402
         1.57e-06       9053.143622
         1.58e-06       9042.106101
         1.59e-06       9039.005792
          1.6e-06       9039.973084
         1.61e-06       9025.383228
         1.62e-06       9010.010245
         1.63e-06       9007.257855
         1.64e-06       9001.331394
         1.65e-06        8995.39273
         1.66e-06        8988.54356
         1.67e-06       8994.829637
         1.68e-06       8985.059434
         1.69e-06       8988.252593
          1.7e-06       8972.672877
         1.71e-06       8978.889624
         1.72e-06       8976.195857
         1.73e-06       8966.377315
         1.74e-06       8975.208091
         1.75e-06       8975.462401
         1.76e-06       8960.042042
         1.77e-06       8971.972578
         1.78e-06       8975.732979
         1.79e-06       8963.802914
          1.8e-06       8959.599014
         1.81e-06       8946.254405
         1.82e-06       8928.743936
         1.83e-06       8902.014131
         1.84e-06       8889.747463
         1.85e-06       8883.499023
         1.86e-06       8885.847111
         1.87e-06       8881.399772
         1.88e-06       8878.678159
         1.89e-06       8878.825098
          1.9e-06       8867.234505
         1.91e-06       8874.789609
         1.92e-06       8869.532044
         1.93e-06       8861.209529
         1.94e-06       8872.783659
         1.95e-06        8873.41075
         1.96e-06       8896.352842
         1.97e-06       8899.113659
         1.98e-06       8889.260177
         1.99e-06       8879.632969
            2e-06       8862.634361
         2.01e-06       8859.755666
         2.02e-06       8879.570232
         2.03e-06        8870.57941
         2.04e-06       8872.463119
         2.05e-06       8875.370405
         2.06e-06       8868.348123
         2.07e-06       8863.619877
         2.08e-06       8867.550205
         2.09e-06       8848.100444
          2.1e-06       8844.072435
         2.11e-06       8848.156067
         2.12e-06       8839.760634
         2.13e-06       8826.499531
         2.14e-06       8842.392981
         2.15e-06       8821.326288
         2.16e-06       8818.968162
         2.17e-06       8818.113506
         2.18e-06       8817.936226
         2.19e-06       8801.056727
          2.2e-06       8801.826716
         2.21e-06       8801.176512
         2.22e-06       8812.409473
         2.23e-06       8778.602248
         2.24e-06       8775.195083
         2.25e-06       8783.672454
         2.26e-06       8797.122292
         2.27e-06       8789.231071
         2.28e-06       8803.677408
         2.29e-06       8787.850371
          2.3e-06       8778.441131
         2.31e-06       8781.949419
         2.32e-06       8773.214053
         2.33e-06       8754.422828
         2.34e-06         8763.7298
         2.35e-06       8756.002855
         2.36e-06       8744.934413
         2.37e-06       8742.262788
         2.38e-06       8751.056549
         2.39e-06        8738.52555
          2.4e-06       8744.446099
         2.41e-06       8744.003678
         2.42e-06       8736.185813
         2.43e-06       8726.715777
         2.44e-06        8729.76566
         2.45e-06       8721.575007
         2.46e-06       8715.420017
         2.47e-06       8719.770817
         2.48e-06       8709.568377
         2.49e-06       8694.444641
          2.5e-06       8679.537175
         2.51e-06       8690.436427
         2.52e-06       8705.491583
         2.53e-06       8695.905698
         2.54e-06       8691.644163
         2.55e-06       8677.262266
         2.56e-06       8660.764941
         2.57e-06       8661.397562
         2.58e-06       8659.116544
         2.59e-06       8662.859349
          2.6e-06       8670.102008
         2.61e-06        8673.97536
         2.62e-06       8655.088569
         2.63e-06       8638.673419
         2.64e-06       8647.211371
         2.65e-06       8652.444489
         2.66e-06       8638.970058
         2.67e-06       8636.210649
         2.68e-06       8635.195469
         2.69e-06       8633.973692
          2.7e-06       8649.705031
         2.71e-06       8636.111502
         2.72e-06       8614.549649
         2.73e-06        8617.05754
         2.74e-06       8608.648357
         2.75e-06       8622.226385
         2.76e-06       8626.498441
         2.77e-06       8636.664213
         2.78e-06       8645.428448
         2.79e-06       8621.957271
          2.8e-06       8621.790456
         2.81e-06       8626.380741
         2.82e-06       8621.616647
         2.83e-06       8614.813318
         2.84e-06       8595.389327
         2.85e-06        8595.26161
         2.86e-06       8607.180824
         2.87e-06       8598.935782
         2.88e-06       8608.225922
         2.89e-06       8609.864076
          2.9e-06       8595.276688
         2.91e-06        8607.84347
         2.92e-06        8595.48158
         2.93e-06       8584.028125
         2.94e-06       8582.950159
         2.95e-06       8588.905219
         2.96e-06       8600.761443
         2.97e-06       8624.823407
         2.98e-06       8628.429929
         2.99e-06       8636.888511
            3e-06       8633.967452
         3.01e-06       8620.433092
         3.02e-06       8625.214584
         3.03e-06       8603.892397
         3.04e-06       8578.594128
         3.05e-06       8569.735449
         3.06e-06       8563.856498
         3.07e-06       8547.978027
         3.08e-06       8530.942627
         3.09e-06       8537.320639
          3.1e-06       8532.560707
         3.11e-06       8560.358159
         3.12e-06       8538.727544
         3.13e-06       8525.411612
         3.14e-06       8524.899868
         3.15e-06       8538.336962
         3.16e-06       8524.717429
         3.17e-06       8538.898424
         3.18e-06       8536.297301
         3.19e-06       8520.666507
          3.2e-06       8522.291501
         3.21e-06       8518.608865
         3.22e-06       8508.622894
         3.23e-06       8504.651809
         3.24e-06       8489.749301
         3.25e-06       8482.156612
         3.26e-06       8474.859789
         3.27e-06         8459.1656
         3.28e-06       8462.637097
         3.29e-06       8471.804407
          3.3e-06       8467.696072
         3.31e-06       8451.163275
         3.32e-06       8445.382872
         3.33e-06        8441.34981
         3.34e-06       8434.607141
         3.35e-06       8450.764608
         3.36e-06       8464.524274
         3.37e-06       8464.294258
         3.38e-06       8470.491184
         3.39e-06       8465.267209
          3.4e-06        8457.55179
         3.41e-06       8456.537704
         3.42e-06       8452.194613
         3.43e-06       8429.796485
         3.44e-06       8443.180445
         3.45e-06       8436.903038
         3.46e-06       8441.920048
         3.47e-06       8453.723706
         3.48e-06       8460.167123
         3.49e-06       8463.497638
          3.5e-06       8451.661788
         3.51e-06       8449.269486
         3.52e-06       8452.117827
         3.53e-06       8463.672901
         3.54e-06       8464.507586
         3.55e-06       8460.955898
         3.56e-06       8447.020142
         3.57e-06       8440.391044
         3.58e-06       8440.004842
         3.59e-06       8437.798861
          3.6e-06       8428.912832
         3.61e-06        8429.35709
         3.62e-06       8438.907465
         3.63e-06        8432.28787
         3.64e-06       8432.177851
         3.65e-06       8403.466501
         3.66e-06       8391.629568
         3.67e-06       8384.698054
         3.68e-06       8387.717597
         3.69e-06        8390.56421
          3.7e-06        8394.33993
         3.71e-06        8381.38251
         3.72e-06       8383.487784
         3.73e-06       8386.655807
         3.74e-06       8377.400282
         3.75e-06       8404.350875
         3.76e-06       8418.727352
         3.77e-06       8408.163076
         3.78e-06       8397.344037
         3.79e-06       8405.081312
          3.8e-06       8396.560514
         3.81e-06       8377.181292
         3.82e-06       8375.684462
         3.83e-06       8368.639244
         3.84e-06       8361.926342
         3.85e-06       8356.130941
         3.86e-06       8350.170005
         3.87e-06       8362.295489
         3.88e-06       8343.865748
         3.89e-06       8353.824461
          3.9e-06       8339.686826
         3.91e-06       8335.141871
         3.92e-06       8338.567782
         3.93e-06       8342.605358
         3.94e-06       8355.285195
         3.95e-06       8356.924072
         3.96e-06       8354.501868
         3.97e-06       8353.212054
         3.98e-06       8364.146202
         3.99e-06       8357.026174
            4e-06       8363.459419
         4.01e-06       8364.608215
         4.02e-06       8370.079483
         4.03e-06       8355.510875
         4.04e-06       8350.607386
         4.05e-06       8357.541722
         4.06e-06       8345.579193
         4.07e-06       8335.660746
         4.08e-06       8322.588568
         4.09e-06       8337.668397
          4.1e-06        8339.88943
         4.11e-06       8337.295742
         4.12e-06       8315.529903
         4.13e-06       8313.432622
         4.14e-06       8306.749818
         4.15e-06       8308.051196
         4.16e-06       8313.630352
         4.17e-06        8311.76237
         4.18e-06       8303.967424
         4.19e-06       8277.989727
          4.2e-06       8294.711152
         4.21e-06       8277.179452
         4.22e-06       8294.558767
         4.23e-06       8292.309215
         4.24e-06       8305.607826
         4.25e-06       8307.332921
         4.26e-06       8303.425715
         4.27e-06       8301.991007
         4.28e-06       8291.492616
         4.29e-06       8285.181027
          4.3e-06       8292.984168
         4.31e-06       8307.369532
         4.32e-06       8312.086527
         4.33e-06       8295.860438
         4.34e-06       8265.747379
         4.35e-06       8235.835998
         4.36e-06       8239.135657
         4.37e-06       8225.810603
         4.38e-06       8235.675855
         4.39e-06       8242.112151
          4.4e-06        8237.40691
         4.41e-06        8227.73667
         4.42e-06         8227.9311
         4.43e-06       8228.479312
         4.44e-06       8224.190708
         4.45e-06        8218.00458
         4.46e-06       8212.616252
         4.47e-06       8222.607353
         4.48e-06       8225.048022
         4.49e-06       8233.037129
          4.5e-06       8249.225354
         4.51e-06       8243.510313
         4.52e-06       8233.693101
         4.53e-06        8235.86677
         4.54e-06       8227.918847
         4.55e-06       8219.043779
         4.56e-06       8222.648897
         4.57e-06       8220.260045
         4.58e-06       8216.875281
         4.59e-06       8218.971148
          4.6e-06       8230.025618
         4.61e-06       8225.892317
         4.62e-06       8221.637973
         4.63e-06        8230.50137
         4.64e-06       8233.102164
         4.65e-06       8230.483773
         4.66e-06       8224.522036
         4.67e-06       8217.601831
         4.68e-06       8212.414066
         4.69e-06        8218.89896
          4.7e-06       8216.021057
         4.71e-06       8217.037309
         4.72e-06       8233.839222
         4.73e-06       8230.035884
         4.74e-06       8211.775005
         4.75e-06       8206.892962
         4.76e-06       8216.227628
         4.77e-06       8191.112162
         4.78e-06       8202.792832
         4.79e-06       8181.200812
          4.8e-06       8172.622687
         4.81e-06       8168.844952
         4.82e-06       8147.754606
         4.83e-06       8150.682905
         4.84e-06       8141.873484
         4.85e-06       8135.411397
         4.86e-06       8138.913424
         4.87e-06       8135.337408
         4.88e-06       8135.277084
         4.89e-06        8121.71357
          4.9e-06       8128.805339
         4.91e-06       8117.964991
         4.92e-06       8116.618863
         4.93e-06       8107.188285
         4.94e-06       8112.495311
         4.95e-06       8115.936153
         4.96e-06       8112.560143
         4.97e-06       8114.034794
         4.98e-06       8132.695324
         4.99e-06        8122.64346
            5e-06       8131.318733
         5.01e-06       8118.428755
         5.02e-06       8117.883362
         5.03e-06       8131.214967
         5.04e-06       8128.244104
         5.05e-06       8134.089936
         5.06e-06       8136.552958
         5.07e-06       8144.713926
         5.08e-06       8142.853825
         5.09e-06       8152.759296
          5.1e-06       8162.065032
         5.11e-06       8158.775072
         5.12e-06       8144.059734
         5.13e-06       8134.338211
         5.14e-06       8125.473428
         5.15e-06       8121.962758
         5.16e-06       8129.777048
         5.17e-06       8117.490172
         5.18e-06       8115.046881
         5.19e-06       8129.078356
          5.2e-06       8129.251234
         5.21e-06       8121.673176
         5.22e-06       8123.803839
         5.23e-06       8126.843073
         5.24e-06       8111.516504
         5.25e-06       8098.500377
         5.26e-06       8108.352118
         5.27e-06       8111.246298
         5.28e-06       8100.787081
         5.29e-06       8100.216717
          5.3e-06       8103.658085
         5.31e-06       8081.369892
         5.32e-06       8072.426853
         5.33e-06        8073.83953
         5.34e-06       8087.555274
         5.35e-06       8073.498675
         5.36e-06        8054.31416
         5.37e-06       8063.177428
         5.38e-06       8062.282595
         5.39e-06       8067.314587
          5.4e-06       8073.098343
         5.41e-06       8078.728232
         5.42e-06       8064.212689
         5.43e-06        8052.87965
         5.44e-06       8055.325828
         5.45e-06       8063.762597
         5.46e-06       8054.897761
         5.47e-06       8039.869857
         5.48e-06       8038.653544
         5.49e-06       8062.689348
          5.5e-06       8055.416867
         5.51e-06       8073.296851
         5.52e-06       8057.658465
         5.53e-06       8058.579518
         5.54e-06       8066.138019
         5.55e-06         8056.0227
         5.56e-06       8072.618837
         5.57e-06       8056.613445
         5.58e-06       8047.365293
         5.59e-06       8054.606116
          5.6e-06       8049.845728
         5.61e-06       8063.438287
         5.62e-06       8065.362937
         5.63e-06       8042.450655
         5.64e-06       8058.733094
         5.65e-06       8050.313847
         5.66e-06       8058.542034
         5.67e-06       8041.219494
         5.68e-06       8051.870788
         5.69e-06       8047.195957
          5.7e-06       8052.455489
         5.71e-06       8048.558306
         5.72e-06       8035.119228
         5.73e-06       8039.870071
         5.74e-06       8029.398267
         5.75e-06       8023.455932
         5.76e-06       7997.844802
         5.77e-06       8018.935754
         5.78e-06       8011.846828
         5.79e-06       7997.041582
          5.8e-06       7988.423398
         5.81e-06       7997.850569
         5.82e-06       8009.596612
         5.83e-06       8002.623613
         5.84e-06       8012.150814
         5.85e-06       8009.637527
         5.86e-06       7996.098039
         5.87e-06       8002.286972
         5.88e-06       8008.840835
         5.89e-06       7987.975708
          5.9e-06       8003.498554
         5.91e-06       8000.930998
         5.92e-06       7994.222418
         5.93e-06        7999.62224
         5.94e-06       7988.696552
         5.95e-06       7980.014729
         5.96e-06       7990.498232
         5.97e-06       7992.316805
         5.98e-06       7981.160004
         5.99e-06       7969.026184
            6e-06       7972.597366
         6.01e-06       7961.424257
         6.02e-06       7959.074303
         6.03e-06        7963.09439
         6.04e-06       7967.046029
         6.05e-06        7971.26992
         6.06e-06       7971.658683
         6.07e-06       7960.872533
         6.08e-06       7961.461607
         6.09e-06       7961.470833
          6.1e-06       7967.606111
         6.11e-06       7977.252028
         6.12e-06       7964.666369
         6.13e-06         7960.2031
         6.14e-06       7952.510235
         6.15e-06       7965.381422
         6.16e-06       7975.418786
         6.17e-06       7963.479128
         6.18e-06       7966.946287
         6.19e-06       7966.327803
          6.2e-06       7960.698234
         6.21e-06       7946.598007
         6.22e-06       7941.813889
         6.23e-06       7948.483621
         6.24e-06       7952.797364
         6.25e-06       7953.336202
         6.26e-06       7950.864242
         6.27e-06       7949.194315
         6.28e-06       7946.321581
         6.29e-06       7964.839354
          6.3e-06       7967.692648
         6.31e-06       7970.034975
         6.32e-06       7961.596133
         6.33e-06       7951.511925
         6.34e-06       7958.825767
         6.35e-06       7955.028407
         6.36e-06       7949.552574
         6.37e-06       7955.046661
         6.38e-06       7953.998797
         6.39e-06       7949.391457
          6.4e-06       7939.058437
         6.41e-06       7955.549846
         6.42e-06       7935.773063
         6.43e-06       7925.447621
         6.44e-06        7913.74284
         6.45e-06       7912.207463
         6.46e-06       7911.676948
         6.47e-06       7923.944311
         6.48e-06       7911.980182
         6.49e-06        7910.36004
          6.5e-06       7910.869775
         6.51e-06       7909.739642
         6.52e-06       7906.081427
         6.53e-06       7919.535361
         6.54e-06       7918.124894
         6.55e-06       7931.373465
         6.56e-06       7932.022288
         6.57e-06       7932.765009
         6.58e-06        7937.83798
         6.59e-06       7930.405402
          6.6e-06       7918.899597
         6.61e-06         7916.7341
         6.62e-06       7923.178056
         6.63e-06       7914.791601
         6.64e-06       7908.060526
         6.65e-06       7902.498702
         6.66e-06       7904.764715
         6.67e-06       7887.752216
         6.68e-06       7879.751342
         6.69e-06       7858.442758
          6.7e-06        7866.47879
         6.71e-06       7861.045304
         6.72e-06       7863.728782
         6.73e-06       7859.531159
         6.74e-06       7856.767491
         6.75e-06       7857.009924
         6.76e-06       7857.771025
         6.77e-06       7846.967542
         6.78e-06       7858.516019
         6.79e-06       7864.818987
          6.8e-06       7876.923963
         6.81e-06       7886.621498
         6.82e-06       7905.402025
         6.83e-06       7911.069128
         6.84e-06       7898.955058
         6.85e-06       7884.071723
         6.86e-06       7888.622964
         6.87e-06       7878.004265
         6.88e-06        7892.62774
         6.89e-06       7897.004925
          6.9e-06       7885.804564
         6.91e-06       7874.884216
         6.92e-06       7870.296507
         6.93e-06       7870.668774
         6.94e-06        7877.40371
         6.95e-06       7869.618317
         6.96e-06       7875.763027
         6.97e-06       7873.822778
         6.98e-06       7867.412225
         6.99e-06       7866.420671
            7e-06       7844.335758
         7.01e-06       7856.917817
         7.02e-06       7870.134845
         7.03e-06       7872.533211
         7.04e-06       7876.518893
         7.05e-06       7875.610092
         7.06e-06       7865.943132
         7.07e-06       7880.259172
         7.08e-06       7877.821646
         7.09e-06       7856.755481
          7.1e-06       7846.110406
         7.11e-06       7844.554906
         7.12e-06       7838.547742
         7.13e-06       7840.681579
         7.14e-06       7833.129873
         7.15e-06       7839.839899
         7.16e-06       7834.900457
         7.17e-06       7829.975636
         7.18e-06        7832.36578
         7.19e-06       7833.957314
          7.2e-06        7839.74356
         7.21e-06       7839.945353
         7.22e-06       7831.373152
         7.23e-06       7831.957739
         7.24e-06       7835.330119
         7.25e-06       7820.082699
         7.26e-06       7820.081427
         7.27e-06       7824.076251
         7.28e-06       7828.425059
         7.29e-06       7846.771404
          7.3e-06       7843.243434
         7.31e-06       7848.196573
         7.32e-06       7850.161624
         7.33e-06        7855.46972
         7.34e-06       7843.074478
         7.35e-06       7853.780558
         7.36e-06       7864.849424
         7.37e-06       7863.323206
         7.38e-06       7854.052857
         7.39e-06        7847.73533
          7.4e-06       7840.464458
         7.41e-06        7842.26581
         7.42e-06        7845.30108
         7.43e-06       7838.016698
         7.44e-06       7829.287868
         7.45e-06       7802.314847
         7.46e-06       7809.165256
         7.47e-06       7808.284242
         7.48e-06       7799.822012
         7.49e-06       7814.520986
          7.5e-06       7816.785639
         7.51e-06        7816.71733
         7.52e-06       7817.227415
         7.53e-06       7824.484458
         7.54e-06       7807.256945
         7.55e-06       7806.299663
         7.56e-06       7813.223767
         7.57e-06       7794.634756
         7.58e-06       7812.202383
         7.59e-06        7804.75052
          7.6e-06       7812.544435
         7.61e-06       7803.861564
         7.62e-06       7798.485241
         7.63e-06       7802.103274
         7.64e-06       7814.191521
         7.65e-06       7817.632471
         7.66e-06       7814.793638
         7.67e-06       7811.028274
         7.68e-06       7797.411543
         7.69e-06       7794.925754
          7.7e-06       7773.627619
         7.71e-06       7776.488357
         7.72e-06       7782.731372
         7.73e-06       7788.254475
         7.74e-06       7799.055823
         7.75e-06       7807.551985
         7.76e-06       7806.285972
         7.77e-06       7803.894175
         7.78e-06       7785.213797
         7.79e-06       7779.495801
          7.8e-06       7767.537182
         7.81e-06       7775.463509
         7.82e-06       7787.730793
         7.83e-06       7768.493987
         7.84e-06        7763.98933
         7.85e-06       7766.294737
         7.86e-06       7764.137923
         7.87e-06       7756.460527
         7.88e-06        7761.45582
         7.89e-06        7767.43492
          7.9e-06       7760.290711
         7.91e-06       7750.238474
         7.92e-06       7756.312208
         7.93e-06       7774.974213
         7.94e-06       7776.343336
         7.95e-06       7792.722059
         7.96e-06       7785.179719
         7.97e-06       7775.474351
         7.98e-06       7786.999551
         7.99e-06       7776.399408
            8e-06       7773.091225
         8.01e-06       7764.707107
         8.02e-06       7756.073254
         8.03e-06       7758.987005
         8.04e-06        7750.45433
         8.05e-06       7754.163881
         8.06e-06       7783.827847
         8.07e-06       7781.372541
         8.08e-06        7780.99417
         8.09e-06       7787.011368
          8.1e-06       7798.120398
         8.11e-06       7796.044955
         8.12e-06       7799.638921
         8.13e-06       7794.654789
         8.14e-06       7781.581874
         8.15e-06       7775.218359
         8.16e-06       7777.485642
         8.17e-06       7769.293941
         8.18e-06       7763.352477
         8.19e-06       7766.010515
          8.2e-06       7769.876659
         8.21e-06       7768.393279
         8.22e-06       7767.160391
         8.23e-06       7754.459102
         8.24e-06        7750.60986
         8.25e-06       7759.171716
         8.26e-06       7765.768837
         8.27e-06       7754.557938
         8.28e-06        7760.63663
         8.29e-06       7763.563544
          8.3e-06       7753.766912
         8.31e-06        7754.08492