# Probe 0 (5e-06 5e-06 5e-06)
#           Probe                 0
#            Time
            1e-08       470.6079515
            2e-08       556.4180094
            3e-08       615.6975534
            4e-08       669.7374476
            5e-08       718.2269174
            6e-08       756.0083909
            7e-08       793.8973751
            8e-08       834.8469237
            9e-08       865.9502529
            1e-07       900.8255118
          1.1e-07       931.0821197
          1.2e-07       958.2380621
          1.3e-07       987.8752853
          1.4e-07       1018.755409
          1.5e-07       1042.646814
          1.6e-07       1062.585688
          1.7e-07       1084.792537
          1.8e-07       1110.792263
          1.9e-07       1131.622902
            2e-07       1153.570228
          2.1e-07       1172.958178
          2.2e-07       1198.273055
          2.3e-07        1221.32982
          2.4e-07       1247.804649
          2.5e-07       1269.213817
          2.6e-07       1288.736487
          2.7e-07       1310.557863
          2.8e-07       1330.413665
          2.9e-07       1348.463185
            3e-07       1365.532028
          3.1e-07        1379.47952
          3.2e-07       1393.646427
          3.3e-07       1415.617714
          3.4e-07       1435.271109
          3.5e-07       1456.575545
          3.6e-07       1475.002812
          3.7e-07       1496.551289
          3.8e-07       1515.661763
          3.9e-07       1534.094318
            4e-07       1554.246719
          4.1e-07       1568.273881
          4.2e-07       1586.974207
          4.3e-07       1599.471964
          4.4e-07        1616.70474
          4.5e-07       1628.865322
          4.6e-07       1645.343006
          4.7e-07       1663.528833
          4.8e-07       1675.899074
          4.9e-07       1694.430644
            5e-07       1709.182789
          5.1e-07       1724.885839
          5.2e-07       1739.927692
          5.3e-07       1751.625384
          5.4e-07       1769.442171
          5.5e-07       1782.889499
          5.6e-07       1799.520517
          5.7e-07       1817.162505
          5.8e-07       1830.544776
          5.9e-07       1847.780785
            6e-07       1865.105137
          6.1e-07       1882.010347
          6.2e-07       1895.965265
          6.3e-07       1912.604106
          6.4e-07       1929.184945
          6.5e-07        1939.50659
          6.6e-07       1951.075648
          6.7e-07       1964.566599
          6.8e-07        1981.22662
          6.9e-07       1996.403363
            7e-07       2012.406952
          7.1e-07       2025.410943
          7.2e-07       2035.477395
          7.3e-07       2050.047343
          7.4e-07       2063.053147
          7.5e-07       2073.505951
          7.6e-07       2085.986191
          7.7e-07       2100.611176
          7.8e-07       2111.598288
          7.9e-07       2127.700082
            8e-07       2137.548248
          8.1e-07       2149.933327
          8.2e-07       2160.380178
          8.3e-07       2170.176705
          8.4e-07       2181.789154
          8.5e-07        2191.71648
          8.6e-07       2203.161405
          8.7e-07       2216.193725
          8.8e-07       2229.679537
          8.9e-07       2238.392575
            9e-07       2253.890317
          9.1e-07       2261.951025
          9.2e-07       2274.534999
          9.3e-07       2285.127177
          9.4e-07       2295.955863
          9.5e-07       2308.876152
          9.6e-07       2322.492477
          9.7e-07       2333.269391
          9.8e-07       2346.595877
          9.9e-07       2362.319526
            1e-06       2373.725164
         1.01e-06       2383.324885
         1.02e-06       2394.667098
         1.03e-06        2404.03612
         1.04e-06       2415.752104
         1.05e-06       2427.096476
         1.06e-06       2439.523015
         1.07e-06       2452.690766
         1.08e-06        2461.88299
         1.09e-06       2472.303179
          1.1e-06       2482.475798
         1.11e-06       2494.912053
         1.12e-06       2501.694139
         1.13e-06        2512.16414
         1.14e-06       2522.025735
         1.15e-06       2534.628657
         1.16e-06       2543.780528
         1.17e-06       2552.518996
         1.18e-06       2562.047488
         1.19e-06       2577.774067
          1.2e-06       2591.470854
         1.21e-06       2602.277724
         1.22e-06       2612.527111
         1.23e-06       2620.492776
         1.24e-06       2633.490631
         1.25e-06       2644.755556
         1.26e-06       2655.727338
         1.27e-06       2664.826473
         1.28e-06       2672.916831
         1.29e-06       2683.372598
          1.3e-06         2693.5367
         1.31e-06       2706.516396
         1.32e-06       2712.466023
         1.33e-06       2719.154591
         1.34e-06       2729.756929
         1.35e-06       2739.948951
         1.36e-06       2749.397251
         1.37e-06       2759.128096
         1.38e-06       2769.641745
         1.39e-06       2779.055025
          1.4e-06       2786.225857
         1.41e-06       2796.395014
         1.42e-06       2803.251594
         1.43e-06       2812.271936
         1.44e-06       2818.315512
         1.45e-06       2825.618321
         1.46e-06       2836.794681
         1.47e-06       2843.308139
         1.48e-06       2853.313028
         1.49e-06       2865.333126
          1.5e-06       2871.341237
         1.51e-06       2878.273909
         1.52e-06       2883.021338
         1.53e-06       2897.401242
         1.54e-06       2906.319832
         1.55e-06       2916.207747
         1.56e-06       2924.883621
         1.57e-06       2933.509579
         1.58e-06       2939.408877
         1.59e-06       2949.096393
          1.6e-06       2961.574314
         1.61e-06       2968.107227
         1.62e-06       2973.242649
         1.63e-06         2981.9733
         1.64e-06       2987.981611
         1.65e-06       2998.292444
         1.66e-06       3006.401618
         1.67e-06       3018.218933
         1.68e-06        3024.78751
         1.69e-06       3033.929359
          1.7e-06       3041.156015
         1.71e-06       3048.381111
         1.72e-06       3058.649418
         1.73e-06       3065.611218
         1.74e-06       3073.704009
         1.75e-06       3083.422291
         1.76e-06       3087.124902
         1.77e-06       3095.330571
         1.78e-06       3102.827185
         1.79e-06       3113.150123
          1.8e-06       3120.501637
         1.81e-06       3132.162031
         1.82e-06       3136.989991
         1.83e-06       3147.585731
         1.84e-06       3152.694148
         1.85e-06       3160.861453
         1.86e-06       3167.026944
         1.87e-06       3175.943947
         1.88e-06       3184.553109
         1.89e-06       3194.806313
          1.9e-06       3199.837855
         1.91e-06       3208.277162
         1.92e-06       3215.657129
         1.93e-06       3221.743389
         1.94e-06       3230.765321
         1.95e-06       3235.134587
         1.96e-06       3241.523199
         1.97e-06       3250.963348
         1.98e-06       3254.180013
         1.99e-06       3257.349473
            2e-06       3264.133643
         2.01e-06       3266.457375
         2.02e-06       3276.994692
         2.03e-06       3283.916426
         2.04e-06        3293.18273
         2.05e-06       3299.046433
         2.06e-06       3302.118691
         2.07e-06        3312.45956
         2.08e-06        3322.11818
         2.09e-06       3328.329509
          2.1e-06       3338.546989
         2.11e-06       3346.981659
         2.12e-06       3353.892212
         2.13e-06       3362.394243
         2.14e-06       3364.548774
         2.15e-06       3370.660524
         2.16e-06       3378.691194
         2.17e-06       3386.954524
         2.18e-06       3393.250515
         2.19e-06       3403.757537
          2.2e-06       3414.472739
         2.21e-06       3423.244295
         2.22e-06       3427.454066
         2.23e-06       3435.942647
         2.24e-06       3442.419152
         2.25e-06       3446.884397
         2.26e-06       3451.466106
         2.27e-06       3453.429564
         2.28e-06       3459.085753
         2.29e-06       3465.886341
          2.3e-06       3470.723303
         2.31e-06       3475.232703
         2.32e-06       3482.358126
         2.33e-06       3483.923246
         2.34e-06       3492.402084
         2.35e-06       3499.968772
         2.36e-06       3506.226786
         2.37e-06       3511.713595
         2.38e-06       3514.211649
         2.39e-06       3521.588376
          2.4e-06       3532.184748
         2.41e-06       3537.318781
         2.42e-06       3544.225598
         2.43e-06       3552.787864
         2.44e-06       3557.290083
         2.45e-06       3563.984392
         2.46e-06       3571.657329
         2.47e-06       3575.365136
         2.48e-06       3577.020742
         2.49e-06       3584.085647
          2.5e-06       3591.172951
         2.51e-06       3594.203426
         2.52e-06       3603.573537
         2.53e-06       3609.772789
         2.54e-06       3616.157766
         2.55e-06        3622.65851
         2.56e-06       3630.346596
         2.57e-06       3636.077037
         2.58e-06       3640.642342
         2.59e-06       3648.025253
          2.6e-06        3656.29206
         2.61e-06       3660.599647
         2.62e-06       3671.006394
         2.63e-06       3675.243064
         2.64e-06       3681.644047
         2.65e-06       3685.251569
         2.66e-06       3693.024452
         2.67e-06       3698.911622
         2.68e-06       3702.634435
         2.69e-06       3706.822324
          2.7e-06       3716.616201
         2.71e-06       3721.012464
         2.72e-06       3723.803577
         2.73e-06       3727.269034
         2.74e-06       3731.664532
         2.75e-06       3738.199059
         2.76e-06        3740.94289
         2.77e-06       3746.034932
         2.78e-06       3755.241407
         2.79e-06       3763.261099
          2.8e-06       3764.678967
         2.81e-06       3768.211878
         2.82e-06       3772.395334
         2.83e-06       3775.091194
         2.84e-06       3779.994577
         2.85e-06       3784.572279
         2.86e-06       3788.452613
         2.87e-06       3791.821576
         2.88e-06       3796.166118
         2.89e-06       3801.393122
          2.9e-06       3808.501175
         2.91e-06       3814.168481
         2.92e-06       3816.189083
         2.93e-06       3818.348968
         2.94e-06       3821.182258
         2.95e-06       3826.384049
         2.96e-06       3830.378005
         2.97e-06       3835.300459
         2.98e-06        3840.68688
         2.99e-06       3842.962049
            3e-06       3844.053174
         3.01e-06       3849.647814
         3.02e-06       3851.690555
         3.03e-06       3858.212986
         3.04e-06       3861.439153
         3.05e-06       3867.357265
         3.06e-06       3870.118876
         3.07e-06       3873.901406
         3.08e-06       3877.474894
         3.09e-06       3882.022703
          3.1e-06       3888.379854
         3.11e-06       3892.764559
         3.12e-06       3896.128299
         3.13e-06       3901.046029
         3.14e-06       3904.803685
         3.15e-06       3908.375592
         3.16e-06       3917.443717
         3.17e-06       3921.362831
         3.18e-06        3923.70492
         3.19e-06       3926.626627
          3.2e-06       3929.014918
         3.21e-06       3931.426316
         3.22e-06       3934.834597
         3.23e-06       3942.856175
         3.24e-06       3948.721103
         3.25e-06       3954.423308
         3.26e-06       3957.204711
         3.27e-06       3962.489086
         3.28e-06       3965.942266
         3.29e-06       3969.742896
          3.3e-06       3970.090505
         3.31e-06       3972.245643
         3.32e-06       3978.687513
         3.33e-06       3985.175165
         3.34e-06       3991.615922
         3.35e-06       3997.639153
         3.36e-06       4001.368683
         3.37e-06       4005.051703
         3.38e-06       4010.240058
         3.39e-06       4015.011182
          3.4e-06       4018.971451
         3.41e-06       4021.611518
         3.42e-06       4025.895645
         3.43e-06       4030.688953
         3.44e-06       4032.194037
         3.45e-06       4037.889938
         3.46e-06       4044.117907
         3.47e-06       4047.127528
         3.48e-06       4050.738922
         3.49e-06       4053.632547
          3.5e-06       4056.572361
         3.51e-06       4060.275909
         3.52e-06       4065.182844
         3.53e-06       4065.738327
         3.54e-06       4074.301534
         3.55e-06       4077.911692
         3.56e-06       4079.878697
         3.57e-06       4082.632424
         3.58e-06       4085.339778
         3.59e-06       4088.440396
          3.6e-06       4093.854625
         3.61e-06       4100.055093
         3.62e-06       4105.190945
         3.63e-06       4108.869128
         3.64e-06       4112.986647
         3.65e-06       4117.335263
         3.66e-06       4122.909486
         3.67e-06       4122.192491
         3.68e-06        4128.76086
         3.69e-06       4134.843079
          3.7e-06       4135.259336
         3.71e-06        4136.20747
         3.72e-06       4141.387331
         3.73e-06       4147.283658
         3.74e-06       4150.543804
         3.75e-06       4154.404949
         3.76e-06       4155.815264
         3.77e-06       4156.693809
         3.78e-06       4162.196067
         3.79e-06       4165.848632
          3.8e-06       4168.946254
         3.81e-06       4175.695909
         3.82e-06       4178.538928
         3.83e-06       4183.785554
         3.84e-06       4187.113646
         3.85e-06       4189.771406
         3.86e-06       4193.399695
         3.87e-06       4195.987936
         3.88e-06       4201.279727
         3.89e-06       4206.178393
          3.9e-06       4207.564758
         3.91e-06         4211.6082
         3.92e-06       4214.311427
         3.93e-06       4218.978342
         3.94e-06       4226.809892
         3.95e-06       4231.383755
         3.96e-06        4236.76583
         3.97e-06       4241.200603
         3.98e-06         4248.1295
         3.99e-06       4254.087929
            4e-06       4256.351106
         4.01e-06       4260.138338
         4.02e-06       4268.381954
         4.03e-06       4268.820669
         4.04e-06       4270.390791
         4.05e-06       4276.901892
         4.06e-06       4279.256858
         4.07e-06       4285.582648
         4.08e-06       4291.377065
         4.09e-06       4293.154563
          4.1e-06       4294.793525
         4.11e-06       4297.217289
         4.12e-06       4304.465126
         4.13e-06       4311.758566
         4.14e-06       4316.812868
         4.15e-06       4318.289874
         4.16e-06       4320.759191
         4.17e-06       4325.651483
         4.18e-06         4331.2127
         4.19e-06       4334.004725
          4.2e-06       4333.958576
         4.21e-06       4338.181074
         4.22e-06       4343.556993
         4.23e-06       4348.909543
         4.24e-06       4350.939744
         4.25e-06       4357.975908
         4.26e-06       4363.166197
         4.27e-06       4365.472905
         4.28e-06       4370.270683
         4.29e-06       4373.292241
          4.3e-06       4374.399353
         4.31e-06       4375.114357
         4.32e-06       4379.035254
         4.33e-06       4384.385875
         4.34e-06       4386.069416
         4.35e-06       4391.004565
         4.36e-06       4395.316856
         4.37e-06        4397.92259
         4.38e-06       4401.980943
         4.39e-06       4404.747908
          4.4e-06       4408.091224
         4.41e-06       4411.895553
         4.42e-06       4419.388511
         4.43e-06       4421.693926
         4.44e-06       4424.322036
         4.45e-06       4428.356284
         4.46e-06       4433.289378
         4.47e-06       4437.922584
         4.48e-06        4438.93679
         4.49e-06       4443.408399
          4.5e-06       4443.984624
         4.51e-06       4446.082053
         4.52e-06       4450.461165
         4.53e-06       4451.567438
         4.54e-06       4455.992413
         4.55e-06       4463.274777
         4.56e-06       4467.975782
         4.57e-06       4470.441422
         4.58e-06       4473.275684
         4.59e-06       4474.427802
          4.6e-06       4477.515415
         4.61e-06       4479.658258
         4.62e-06       4481.109837
         4.63e-06        4482.28491
         4.64e-06       4487.100271
         4.65e-06       4489.980167
         4.66e-06       4495.877955
         4.67e-06       4502.351325
         4.68e-06       4504.493672
         4.69e-06       4506.198305
          4.7e-06       4511.404179
         4.71e-06       4513.822753
         4.72e-06       4512.648024
         4.73e-06       4516.586771
         4.74e-06       4523.035875
         4.75e-06       4525.062658
         4.76e-06       4523.519543
         4.77e-06       4525.523285
         4.78e-06        4526.37544
         4.79e-06       4525.154784
          4.8e-06       4526.099067
         4.81e-06       4528.816714
         4.82e-06       4532.501551
         4.83e-06       4535.149953
         4.84e-06       4536.554731
         4.85e-06       4537.591031
         4.86e-06        4538.65035
         4.87e-06       4541.597968
         4.88e-06       4544.061932
         4.89e-06       4547.262701
          4.9e-06       4548.667326
         4.91e-06        4550.21009
         4.92e-06       4553.894217
         4.93e-06        4555.66716
         4.94e-06       4557.071679
         4.95e-06        4558.89062
         4.96e-06       4563.334239
         4.97e-06       4564.163081
         4.98e-06       4566.856775
         4.99e-06       4570.724532
            5e-06       4572.105841
         5.01e-06       4573.302963
         5.02e-06       4582.925517
         5.03e-06       4586.378389
         5.04e-06        4588.17384
         5.05e-06       4593.122696
         5.06e-06        4594.77994
         5.07e-06       4599.061042
         5.08e-06         4600.7182
         5.09e-06        4600.02772
          5.1e-06       4606.449021
         5.11e-06       4610.913801
         5.12e-06       4619.520677
         5.13e-06       4622.121025
         5.14e-06       4622.005966
         5.15e-06       4623.731831
         5.16e-06       4627.620685
         5.17e-06       4629.944732
         5.18e-06       4635.536062
         5.19e-06       4638.596225
          5.2e-06       4639.355502
         5.21e-06       4639.332493
         5.22e-06       4643.335871
         5.23e-06       4647.040024
         5.24e-06       4650.813081
         5.25e-06       4653.297711
         5.26e-06       4654.839076
         5.27e-06       4657.829728
         5.28e-06       4662.154538
         5.29e-06       4664.799956
          5.3e-06       4663.810806
         5.31e-06       4666.249161
         5.32e-06       4670.182628
         5.33e-06       4675.266042
         5.34e-06       4681.016253
         5.35e-06       4683.707258
         5.36e-06       4688.307128
         5.37e-06       4689.917042
         5.38e-06       4692.331873
         5.39e-06       4693.067812
          5.4e-06       4699.254124
         5.41e-06       4700.656924
         5.42e-06       4704.290333
         5.43e-06       4707.095804
         5.44e-06       4706.520917
         5.45e-06       4705.923033
         5.46e-06       4707.256771
         5.47e-06       4710.039179
         5.48e-06       4711.832765
         5.49e-06       4711.671803
          5.5e-06       4714.936985
         5.51e-06       4716.960436
         5.52e-06       4718.707934
         5.53e-06       4720.041535
         5.54e-06       4723.973275
         5.55e-06       4727.628993
         5.56e-06       4730.272998
         5.57e-06       4731.399558
         5.58e-06       4734.825156
         5.59e-06       4742.618618
          5.6e-06       4748.342713
         5.61e-06       4751.308106
         5.62e-06       4755.284842
         5.63e-06       4755.652627
         5.64e-06       4756.572083
         5.65e-06       4757.192712
         5.66e-06       4761.008366
         5.67e-06       4763.835555
         5.68e-06       4763.398839
         5.69e-06       4766.042097
          5.7e-06       4768.248602
         5.71e-06       4771.627238
         5.72e-06       4772.661497
         5.73e-06       4773.213098
         5.74e-06       4775.258599
         5.75e-06       4782.153306
         5.76e-06       4787.852653
         5.77e-06       4787.438999
         5.78e-06       4788.381208
         5.79e-06       4790.886074
          5.8e-06       4792.494678
         5.81e-06       4796.791851
         5.82e-06        4799.54932
         5.83e-06       4803.869239
         5.84e-06       4807.017175
         5.85e-06        4813.74937
         5.86e-06       4815.059007
         5.87e-06       4815.702332
         5.88e-06       4816.253751
         5.89e-06       4821.193446
          5.9e-06       4825.696449
         5.91e-06       4826.592436
         5.92e-06       4827.672208
         5.93e-06       4831.370934
         5.94e-06       4835.437118
         5.95e-06       4837.022206
         5.96e-06       4839.847753
         5.97e-06       4843.683969
         5.98e-06       4845.498668
         5.99e-06       4847.060667
            6e-06       4851.424982
         6.01e-06       4852.481584
         6.02e-06       4854.939301
         6.03e-06       4857.925253
         6.04e-06       4861.117851
         6.05e-06       4862.197346
         6.06e-06       4861.163787
         6.07e-06       4859.946475
         6.08e-06       4860.681457
         6.09e-06       4860.796298
          6.1e-06       4864.149601
         6.11e-06       4868.329632
         6.12e-06         4870.2818
         6.13e-06       4875.357306
         6.14e-06       4875.977378
         6.15e-06       4878.641357
         6.16e-06       4881.557896
         6.17e-06       4882.866874
         6.18e-06       4887.643389
         6.19e-06       4887.298934
          6.2e-06       4886.265565
         6.21e-06       4891.248629
         6.22e-06       4890.973073
         6.23e-06       4889.756025
         6.24e-06       4891.799741
         6.25e-06       4892.695292
         6.26e-06       4894.624152
         6.27e-06       4894.830814
         6.28e-06       4896.346326
         6.29e-06       4895.634497
          6.3e-06       4901.994906
         6.31e-06       4904.291011
         6.32e-06       4905.209443
         6.33e-06        4909.75559
         6.34e-06       4916.872998
         6.35e-06       4918.296437
         6.36e-06       4917.837265
         6.37e-06       4919.260693
         6.38e-06       4922.773287
         6.39e-06       4925.367499
          6.4e-06        4929.38499
         6.41e-06       4929.109508
         6.42e-06       4932.392294
         6.43e-06       4937.534408
         6.44e-06       4941.299052
         6.45e-06       4941.023594
         6.46e-06       4943.158382
         6.47e-06       4944.788145
         6.48e-06       4949.860952
         6.49e-06       4950.939761
          6.5e-06       4954.956532
         6.51e-06       4958.996143
         6.52e-06        4960.41916
         6.53e-06       4960.625726
         6.54e-06       4963.081543
         6.55e-06       4966.707813
         6.56e-06       4967.763545
         6.57e-06        4967.55699
         6.58e-06       4971.435598
         6.59e-06       4976.140281
          6.6e-06       4978.068009
         6.61e-06       4979.054812
         6.62e-06       4981.693905
         6.63e-06       4986.421205
         6.64e-06       4988.738903
         6.65e-06       4988.853639
         6.66e-06       4992.456322
         6.67e-06       4992.869363
         6.68e-06       4994.246157
         6.69e-06         4996.7473
          6.7e-06       4996.884977
         6.71e-06       4998.491192
         6.72e-06       5001.864186
         6.73e-06       5002.437817
         6.74e-06       5005.650109
         6.75e-06       5008.495224
         6.76e-06       5007.829839
         6.77e-06       5010.812575
         6.78e-06       5008.999997
         6.79e-06       5010.032481
          6.8e-06       5015.447171
         6.81e-06       5015.309511
         6.82e-06       5015.768375
         6.83e-06       5016.640211
         6.84e-06       5017.947957
         6.85e-06       5020.127507
         6.86e-06       5019.416289
         6.87e-06       5018.108556
         6.88e-06       5020.402816
         6.89e-06       5020.219276
          6.9e-06       5024.394744
         6.91e-06       5026.138312
         6.92e-06       5029.854796
         6.93e-06        5035.26877
         6.94e-06       5038.985029
         6.95e-06       5041.645998
         6.96e-06        5043.09116
         6.97e-06       5045.843811
         6.98e-06       5046.417274
         6.99e-06       5042.334172
            7e-06       5044.719818
         7.01e-06       5045.132714
         7.02e-06       5049.628625
         7.03e-06       5052.771096
         7.04e-06       5052.862846
         7.05e-06       5058.321873
         7.06e-06       5062.542163
         7.07e-06       5064.927493
         7.08e-06       5066.624725
         7.09e-06        5066.39537
          7.1e-06       5069.950327
         7.11e-06         5071.0512
         7.12e-06       5076.027966
         7.13e-06       5080.178971
         7.14e-06       5082.999756
         7.15e-06       5083.343751
         7.16e-06        5084.53626
         7.17e-06       5085.178377
         7.18e-06       5087.769748
         7.19e-06       5086.806589
          7.2e-06       5089.214477
         7.21e-06       5092.654252
         7.22e-06       5095.222569
         7.23e-06        5096.04809
         7.24e-06       5096.621366
         7.25e-06       5098.891519
         7.26e-06       5103.867395
         7.27e-06        5106.34381
         7.28e-06       5114.552387
         7.29e-06       5114.254317
          7.3e-06       5118.518949
         7.31e-06       5121.201481
         7.32e-06       5121.705883
         7.33e-06        5121.29319
         7.34e-06       5123.081519
         7.35e-06       5125.259584
         7.36e-06       5126.589335
         7.37e-06       5129.409288
         7.38e-06       5131.128748
         7.39e-06       5130.899488
          7.4e-06       5133.925695
         7.41e-06       5132.366747
         7.42e-06        5133.90277
         7.43e-06       5134.590536
         7.44e-06       5137.112322
         7.45e-06       5141.192945
         7.46e-06       5146.075803
         7.47e-06       5151.371129
         7.48e-06       5150.614664
         7.49e-06       5153.411273
          7.5e-06       5151.187744
         7.51e-06       5154.580333
         7.52e-06       5156.482902
         7.53e-06       5156.116143
         7.54e-06       5160.631801
         7.55e-06       5165.628678
         7.56e-06       5168.677156
         7.57e-06       5170.740003
         7.58e-06       5168.195821
         7.59e-06       5171.679736
          7.6e-06       5171.496374
         7.61e-06       5173.307066
         7.62e-06       5176.172044
         7.63e-06       5176.561677
         7.64e-06       5181.672661
         7.65e-06       5184.399982
         7.66e-06       5189.648229
         7.67e-06       5190.748277
         7.68e-06       5192.696261
         7.69e-06       5193.475448
          7.7e-06       5196.660911
         7.71e-06       5197.646329
         7.72e-06       5195.835905
         7.73e-06       5199.342152
         7.74e-06       5198.402576
         7.75e-06       5196.225491
         7.76e-06       5195.560902
         7.77e-06       5197.027579
         7.78e-06       5195.904655
         7.79e-06       5194.254632
          7.8e-06       5194.804641
         7.81e-06       5198.631742
         7.82e-06       5201.381699
         7.83e-06       5204.200359
         7.84e-06       5204.841998
         7.85e-06       5205.277395
         7.86e-06       5210.341663
         7.87e-06       5209.470895
         7.88e-06        5212.44982
         7.89e-06       5214.282979
          7.9e-06       5215.978632
         7.91e-06       5216.322344
         7.92e-06       5216.918109
         7.93e-06       5214.855837
         7.94e-06       5213.480974
         7.95e-06       5218.888701
         7.96e-06       5218.980356
         7.97e-06       5219.209493
         7.98e-06       5217.811752
         7.99e-06       5221.019664
            8e-06       5221.386278
         8.01e-06       5221.936199
         8.02e-06        5224.50247
         8.03e-06       5228.535103
         8.04e-06       5232.453081
         8.05e-06       5234.079817
         8.06e-06       5237.562354
         8.07e-06       5242.717295
         8.08e-06       5245.214521
         8.09e-06       5243.542071
          8.1e-06       5245.833094
         8.11e-06       5244.527215
         8.12e-06       5244.962509
         8.13e-06       5245.558173
         8.14e-06       5244.710496
         8.15e-06        5245.14579
         8.16e-06       5244.893778
         8.17e-06       5247.024414
         8.18e-06       5250.529596
         8.19e-06       5251.560519
          8.2e-06        5255.22597
         8.21e-06       5255.615419
         8.22e-06       5258.112457
         8.23e-06       5259.074609
         8.24e-06       5259.922215
         8.25e-06       5262.968978
         8.26e-06       5265.053575
         8.27e-06       5268.329318
         8.28e-06       5269.566296
         8.29e-06       5268.787459
          8.3e-06       5273.048113
         8.31e-06        5273.32299