/*--------------------------------*- C++ -*----------------------------------*\
| =========                 |                                                 |
| \\      /  F ield         | OpenFOAM: The Open Source CFD Toolbox           |
|  \\    /   O peration     | Version:  v1706                                 |
|   \\  /    A nd           | Web:      www.OpenFOAM.com                      |
|    \\/     M anipulation  |                                                 |
\*---------------------------------------------------------------------------*/
FoamFile
{
    version     2.0;
    format      ascii;
    class       scalarField;
    location    "1.3e-05/lagrangian/dsmc";
    object      ERot;
}
// * * * * * * * * * * * * * * * * * * * * * * * * * * * * * * * * * * * * * //


100001
(
9.039339271e-20
1.808468647e-19
1.346212305e-19
2.602155719e-20
1.176263846e-19
6.327328562e-20
2.617682862e-20
6.900649241e-20
1.032046786e-19
8.214388673e-19
2.086754699e-19
1.486256185e-19
6.201328728e-19
4.506870687e-20
9.960515238e-20
1.805034592e-19
1.31066066e-19
4.569872411e-19
3.581772586e-19
7.135022425e-19
2.123511278e-19
1.184175324e-19
2.569292386e-20
1.887674582e-19
6.038444001e-20
4.548231088e-19
2.490897453e-19
3.78564566e-20
1.047328458e-19
7.253274822e-20
6.934708366e-19
2.524897062e-19
7.057075708e-20
5.506627675e-19
8.042206267e-19
1.755234726e-19
4.950832415e-19
1.223789008e-19
5.978895752e-20
1.302797817e-19
2.215289357e-19
1.870215848e-19
5.9782599e-22
6.941446823e-20
1.097946818e-19
2.922380269e-20
1.74897132e-19
1.49967697e-21
3.899727138e-19
1.821851069e-19
2.863895413e-19
1.719984503e-19
1.519147011e-19
1.684601237e-19
1.185413271e-19
1.423220928e-19
3.329523727e-19
6.006560805e-20
6.269276419e-20
7.293301881e-20
1.960586253e-21
1.39386258e-20
9.904615564e-21
7.727071101e-19
2.997817582e-20
1.409442852e-19
1.938778671e-19
6.986312127e-19
5.788326916e-19
1.112994381e-20
3.107117908e-21
2.52490499e-19
6.790979288e-20
3.425435556e-20
3.200875176e-20
1.167677776e-19
5.715318308e-19
1.639113617e-19
5.995560575e-20
9.927928805e-20
1.459563825e-18
4.19031861e-19
8.362439719e-20
1.492772731e-19
2.87263463e-19
3.476813448e-19
2.867589934e-19
4.214972764e-20
3.983779126e-19
5.250382342e-20
3.809065846e-20
4.681674604e-20
1.988936631e-21
4.190538302e-20
6.257981989e-20
5.205596212e-19
2.573537501e-20
4.108951838e-20
3.16845611e-19
3.128602467e-19
8.442833096e-20
2.189925452e-19
2.81231455e-19
1.154488304e-19
4.462484472e-19
1.752871908e-19
3.910605575e-19
1.164794667e-19
1.29655787e-21
1.901524363e-19
2.147517556e-19
1.15834043e-19
1.290474446e-19
1.095552693e-19
1.896951912e-19
7.69733088e-20
2.809530622e-19
7.187325463e-19
1.264446021e-19
5.255568238e-19
1.537043846e-19
3.923935156e-19
7.375794901e-20
6.442272613e-21
1.091100312e-19
5.464074213e-20
2.191174698e-19
1.641619404e-19
7.734568952e-19
1.093901475e-19
2.386681055e-19
1.031111327e-19
4.182400706e-19
1.943400884e-19
9.70650978e-21
2.784021143e-19
4.106403924e-20
3.174071477e-19
4.055560159e-20
5.852205294e-20
2.066681889e-19
2.186341693e-20
1.432676356e-19
1.326064223e-19
2.302278176e-19
1.713161655e-20
3.79054906e-19
2.1736483e-19
8.518884876e-20
7.296118401e-20
2.31779523e-19
9.076468901e-21
1.806069404e-19
1.333866341e-19
9.663312996e-20
1.792044887e-19
1.480163876e-19
1.637549843e-19
1.38318143e-19
6.061780699e-19
3.909466524e-19
3.522979633e-19
9.912738521e-20
6.926974561e-20
6.27413921e-20
4.340862666e-19
6.386483242e-21
6.036798684e-20
1.398052624e-19
1.384714005e-19
6.56755232e-20
1.766053338e-19
2.944138547e-19
1.583854122e-20
8.581786479e-20
6.204646843e-21
8.844917209e-20
1.700378459e-20
6.747033934e-19
1.678361132e-19
2.317265441e-19
1.059690104e-20
4.910506891e-19
6.243700289e-20
7.051640249e-20
5.785977176e-20
6.457513015e-21
1.896343491e-19
2.942896216e-19
9.399730734e-20
3.421628683e-19
8.159365053e-21
1.916903932e-19
2.120772162e-19
2.211013805e-19
9.546279495e-20
2.483417227e-19
1.706797111e-19
6.944829435e-19
3.577205245e-19
1.885594336e-20
3.999479609e-20
1.138000327e-19
6.320412118e-19
1.553412101e-19
1.782198488e-20
4.743897477e-20
7.403580993e-21
3.321361831e-20
1.441637643e-19
3.96436564e-19
1.636782921e-19
8.132908887e-20
8.846905406e-21
2.63328524e-19
6.096801773e-19
5.625442757e-20
1.460712982e-19
9.953783366e-20
6.275151087e-20
2.622623068e-19
4.451101622e-19
1.699032157e-19
3.177951371e-20
2.879999426e-19
6.757938543e-20
7.251777314e-20
1.16686668e-19
2.603440931e-20
2.9808532e-19
2.155393215e-19
1.16612303e-20
3.309872892e-19
2.213245484e-19
3.331613689e-20
5.436786986e-19
2.470737838e-19
3.166292083e-20
5.265295368e-20
2.56946068e-20
1.130240706e-19
1.874015267e-19
6.356562944e-19
3.154744503e-19
2.427123299e-20
1.086426904e-19
1.716418603e-19
9.110347585e-20
9.225960189e-20
4.304356851e-19
4.197986054e-19
3.956199309e-19
2.677885996e-20
3.015044238e-19
1.001064448e-19
1.889029867e-19
8.417840104e-20
1.30069518e-20
2.712324588e-19
1.232789918e-19
1.011886489e-19
6.328034279e-20
2.503601988e-19
1.204362864e-19
2.58027913e-19
1.114373657e-19
2.654512259e-20
1.826961072e-19
2.415124767e-20
5.09195503e-20
2.349688232e-19
5.029865202e-19
6.033474417e-20
1.210531925e-19
4.703782163e-19
3.073907423e-20
5.41417392e-20
2.792294201e-19
1.762668351e-19
2.419530251e-19
1.880869461e-19
2.78145406e-19
2.307395217e-19
5.656530002e-19
5.29394586e-19
3.17735363e-19
5.40218325e-20
5.274965031e-19
5.549242127e-19
2.774695895e-19
9.98600161e-20
4.437891281e-19
2.773233976e-20
6.062290658e-19
1.62297617e-19
3.411525514e-20
4.010785564e-19
1.843110068e-19
6.102961194e-20
1.842959185e-19
1.645293178e-20
3.172017642e-19
2.053428148e-19
5.027228007e-19
2.670534363e-19
4.593140473e-19
6.777962861e-20
3.627180337e-20
2.819210312e-20
2.42133407e-19
5.965731214e-20
1.909791475e-19
4.96713755e-20
5.746887776e-20
7.887008453e-19
6.693346729e-21
3.089039238e-19
1.703834412e-20
5.339080829e-20
4.523723592e-19
9.480483042e-20
2.360618315e-20
3.48981034e-19
3.528548799e-19
3.704978284e-19
1.345743922e-19
2.798999457e-19
5.311792843e-20
3.422970758e-20
1.15844982e-19
5.87081121e-20
2.203935906e-19
7.995838354e-20
4.393617624e-20
1.481445904e-20
8.898713884e-20
3.605924989e-19
2.534905358e-20
1.149583192e-19
2.680596236e-19
2.061021218e-19
5.208141092e-19
5.243125106e-19
6.577614417e-19
1.088741646e-19
1.726942059e-20
3.1082559e-19
1.125219089e-19
1.02130774e-19
4.772397556e-21
9.963131979e-21
2.262138958e-19
8.89408957e-19
3.585523373e-20
4.21358902e-19
1.841262138e-19
3.958601906e-19
5.976141941e-19
7.37627529e-19
3.063017466e-19
3.055221288e-19
9.446534795e-21
8.779224338e-20
6.82856254e-19
4.768467855e-21
2.842431857e-20
1.417338051e-19
4.320070112e-19
2.185278903e-19
4.853901322e-19
5.070514089e-19
4.959615816e-19
1.369875037e-19
1.419696109e-19
3.231707269e-19
2.527632607e-20
4.70271402e-20
4.008063514e-19
2.697780578e-20
3.706745044e-19
3.096250376e-19
2.337491461e-20
6.082624837e-20
6.772486628e-21
1.86470915e-19
4.157687514e-19
1.214952257e-19
1.377053619e-19
1.570833744e-19
1.192898091e-20
2.818460222e-19
2.386995847e-19
1.355785413e-19
3.286222927e-19
2.526145518e-19
1.118269186e-19
2.555060459e-19
8.742409002e-20
8.316366631e-20
3.199205491e-19
7.948808863e-20
2.796478068e-19
2.369169226e-19
7.556031047e-19
3.443241314e-19
2.178680828e-20
3.104688924e-19
7.80113044e-20
1.073188117e-19
1.154897547e-19
9.431641942e-20
4.678443656e-20
4.780443648e-19
2.242463407e-19
2.965962408e-20
2.817945077e-19
1.874049388e-19
5.755944347e-19
2.181620552e-20
4.998067136e-20
1.740422442e-19
2.546997708e-20
4.102270326e-19
1.09549073e-18
7.035656933e-20
1.94268115e-20
6.075087055e-20
3.699589456e-20
1.032824961e-19
1.344426706e-19
9.990688181e-20
5.983086252e-20
4.40131632e-19
3.658358753e-19
2.845977525e-19
9.116737858e-20
1.308203601e-20
4.489537737e-19
4.07156604e-20
4.246936765e-19
6.975736086e-22
3.264439216e-19
5.183889131e-20
5.432871955e-20
2.405062303e-20
8.931898317e-20
2.268411915e-20
2.110765259e-19
2.126918545e-19
1.567546678e-21
9.335529884e-19
6.710857572e-20
2.254556215e-19
7.732531651e-20
3.299037214e-19
3.916625904e-19
7.654273958e-20
5.039657946e-19
5.054084351e-19
1.815770216e-19
4.099794366e-20
2.203062067e-19
5.768105956e-20
7.570465078e-20
7.113381384e-19
3.036899061e-20
9.778751745e-21
1.818224239e-19
7.148153499e-19
1.150966506e-19
2.300859755e-20
9.391797174e-20
1.08312551e-19
5.558156596e-19
1.776096989e-20
2.690780609e-19
1.523183279e-19
4.630378048e-20
8.439494874e-20
6.773189725e-21
2.246904607e-19
1.033456189e-19
1.641955942e-19
4.751370077e-21
1.694700315e-20
1.587368407e-19
1.031434519e-19
2.644987394e-19
2.191595358e-19
1.968255998e-19
1.619231608e-19
8.136551585e-20
2.238884855e-19
2.016024499e-20
1.167850817e-19
2.843782367e-20
4.139872346e-19
7.351178643e-20
5.62208079e-20
2.783395659e-20
3.51752329e-19
3.253034506e-19
1.706384501e-20
2.792662207e-19
1.289004422e-19
3.008741762e-20
2.24693465e-19
5.26451044e-20
3.486075278e-20
4.082535632e-19
1.557121461e-19
2.562304373e-19
1.583894444e-19
5.882306384e-20
1.742709215e-19
1.575126738e-19
2.562756215e-19
7.724183447e-20
2.397015689e-19
3.496985793e-19
3.476239488e-19
2.51500203e-19
2.758531226e-20
5.872406483e-20
8.496379198e-20
1.483549423e-19
2.498154918e-20
9.676987806e-20
1.650358135e-19
1.601558472e-19
9.148688057e-20
1.820462297e-19
5.108335943e-19
4.027749778e-20
8.025586414e-19
2.255768891e-20
1.433341682e-19
3.203088882e-20
1.250105619e-19
2.046639585e-19
3.449828851e-21
3.602576893e-19
9.131544976e-19
1.120731193e-19
1.506069335e-20
3.289361525e-19
6.251851139e-19
1.452300727e-19
1.705026741e-19
8.916101719e-20
4.099500692e-19
1.22208074e-19
3.073315514e-21
2.15741024e-19
9.84878288e-20
6.522881122e-20
3.183061455e-19
4.616083327e-20
5.463522949e-20
3.31281489e-19
1.668221314e-19
2.64368417e-19
1.735872965e-19
1.942295919e-19
4.737438578e-19
2.144438784e-19
7.478156108e-20
3.392923953e-19
5.039669703e-19
3.159649394e-19
1.116025583e-19
4.219111337e-19
2.705008387e-20
1.68796929e-19
4.392356027e-19
2.518891186e-19
8.74515256e-21
5.304815291e-20
1.022462907e-20
5.841086236e-19
7.838638477e-21
1.577292001e-19
2.545337919e-20
6.181353979e-20
1.567007996e-19
1.527953625e-20
9.152266488e-20
3.340314257e-19
1.438032433e-19
4.831088646e-20
2.153155096e-19
1.888945177e-19
1.391227406e-19
1.124702634e-19
6.826434273e-20
1.774286793e-19
8.925384447e-20
4.181370169e-20
2.39173716e-19
2.359061424e-19
2.848220454e-19
1.705179947e-19
9.257854392e-20
6.562092596e-19
5.124498044e-20
5.831065169e-20
5.932766024e-19
4.399155303e-19
3.056130906e-19
9.847827364e-20
1.922860131e-20
7.85390073e-20
1.344678062e-18
4.27721161e-19
2.052276686e-19
1.245029752e-19
2.737804168e-19
9.63197993e-20
3.676696598e-19
1.559423666e-19
9.459630847e-20
2.943462642e-19
4.79656356e-20
3.151262273e-19
2.135022488e-20
1.711807553e-19
1.824393755e-19
1.44124078e-19
3.025755616e-19
3.49319795e-20
6.49198849e-20
8.840313089e-20
2.333037036e-19
7.330600673e-20
1.714146133e-19
1.343611339e-19
2.655018619e-20
4.067477106e-20
9.516983495e-20
4.42885445e-20
2.780357291e-19
3.116920924e-19
4.743944314e-19
2.420483153e-19
6.139047993e-20
1.055270882e-19
7.681423475e-20
1.381984479e-19
1.405493629e-21
1.986987402e-19
2.146690989e-19
2.857540022e-20
4.808723186e-20
2.525415731e-19
2.991325458e-20
8.460975987e-20
1.936721685e-20
3.619944351e-19
4.27563063e-19
7.546850957e-20
2.175051076e-20
8.799583678e-20
6.551009466e-19
1.773196898e-19
1.556275093e-20
1.639922027e-19
2.116414833e-20
2.595936492e-19
2.435633996e-20
1.239235987e-19
4.098789403e-19
2.459175317e-19
5.720717892e-19
9.521775934e-20
8.800501401e-20
4.02011637e-19
5.490085136e-21
1.015671952e-19
2.978101571e-19
1.753152996e-19
8.87382053e-20
3.888622073e-20
1.222483688e-19
8.860794232e-20
1.848393644e-20
6.594903909e-19
1.086073178e-19
1.820290764e-19
9.615430378e-21
3.471665442e-20
8.309526643e-22
4.968602396e-19
6.680312275e-19
2.052983487e-19
4.553539059e-19
7.532517069e-20
5.376438925e-20
3.120457809e-19
2.47098197e-19
3.194970251e-21
1.844958247e-19
1.44836816e-19
1.060841995e-19
1.946798978e-19
2.550859672e-19
1.189397409e-20
4.338471187e-20
7.081812334e-19
4.439313167e-20
1.74442697e-20
1.244072788e-19
2.00243164e-19
1.116290062e-19
7.748311705e-19
2.705585958e-20
8.064120776e-20
2.979255405e-19
2.128321253e-20
5.828632549e-20
5.150211544e-20
4.82615537e-20
1.66393702e-19
1.241556988e-19
4.648870728e-19
2.750152655e-19
2.717474837e-19
5.363150299e-19
1.3434767e-19
6.447526191e-20
1.071986961e-18
7.639679435e-20
5.057924923e-20
1.106745748e-19
5.926668822e-19
9.564942106e-20
3.085953508e-19
6.668878355e-20
6.093696466e-20
3.723507606e-19
2.232093337e-19
6.328606279e-20
1.061190435e-22
5.474836041e-20
1.98655918e-19
3.609472799e-19
3.406067106e-19
3.35048436e-19
5.122979211e-19
3.525583462e-19
1.007845343e-19
4.570671604e-19
2.488040419e-19
1.096755882e-19
6.045524173e-19
1.563559984e-19
1.878621713e-19
2.877813775e-20
2.952208547e-19
9.941178364e-20
5.768654056e-19
2.186333858e-19
3.328627093e-19
3.67555981e-19
8.805428476e-20
5.484168577e-20
6.714620035e-19
4.349695064e-19
1.733054479e-19
1.091942472e-19
4.357861826e-19
1.258588878e-19
2.408809413e-19
1.200134117e-19
4.073849452e-20
9.21334164e-19
3.140286803e-20
1.558598268e-19
3.47689997e-20
2.765552895e-20
5.788000806e-19
4.408636376e-21
5.957435638e-21
4.721532274e-19
8.180738022e-20
6.343025578e-19
6.556190543e-20
2.379005716e-19
2.011115019e-19
5.883283015e-19
5.642554954e-19
8.01269149e-20
1.16187036e-19
5.550798805e-20
5.081940831e-19
5.1384507e-20
3.009736896e-19
4.986809116e-19
3.518676133e-20
2.871269599e-20
2.360031759e-19
1.973910859e-19
7.313111825e-19
1.446523565e-19
8.654485147e-19
8.870304738e-20
9.791541262e-20
5.963189575e-19
1.518123856e-19
2.269188379e-19
1.710981561e-19
2.193619548e-19
7.478233405e-19
1.351529989e-19
1.177932607e-20
9.900952304e-20
6.32160098e-19
2.327105272e-19
6.033955119e-20
2.935387695e-19
9.868829544e-20
2.454414487e-19
3.116601341e-19
5.26158049e-20
4.714417966e-19
3.193801927e-20
2.060718411e-19
9.687169476e-21
1.029168255e-19
4.628205482e-20
2.711254117e-19
1.17998102e-19
1.973081104e-20
6.251789279e-20
2.946770597e-19
1.788802223e-19
1.394661451e-19
8.577419111e-20
1.298960418e-19
2.835837302e-19
5.215878449e-19
7.517728377e-20
1.380748198e-19
2.790479056e-19
7.582283169e-20
1.107377223e-19
7.173554736e-20
4.343552015e-20
2.941224528e-19
5.824000557e-20
5.682118583e-20
6.09172263e-19
1.140527145e-19
2.900256592e-19
4.22116286e-20
1.276255432e-19
4.021780753e-20
1.77426732e-19
2.593780758e-19
2.256754742e-19
4.509004287e-20
7.108065481e-20
4.312773907e-19
2.28904172e-19
3.278405019e-19
4.587755263e-19
3.162623464e-21
1.016693317e-19
1.630071135e-20
2.378184095e-19
3.346620562e-19
2.373214151e-19
1.673102921e-19
1.386599519e-20
2.00433437e-19
1.971591061e-19
1.137780379e-19
9.25469454e-21
2.523545706e-19
1.51414352e-19
6.619451613e-21
1.670213212e-19
3.625435986e-20
1.482719477e-20
1.234957399e-19
1.398841926e-19
8.904076438e-20
2.280763225e-19
7.022286599e-22
3.187590483e-19
3.67878198e-20
6.032922654e-21
2.969012103e-20
2.476347253e-20
2.047173523e-19
4.296346916e-21
6.470647798e-20
1.245280746e-20
7.191760939e-20
7.385481077e-20
8.28452361e-20
2.855486545e-19
2.415464349e-19
4.331086821e-21
5.727802214e-20
5.703018172e-19
1.218780113e-18
1.381492579e-19
5.267954024e-20
3.316406353e-20
1.7454028e-19
5.857499648e-20
1.381082793e-20
2.911499991e-19
9.804847591e-21
7.940721164e-20
5.147675834e-20
5.578878396e-20
2.105216664e-19
3.054992586e-19
1.028437849e-19
3.228445083e-20
1.219301965e-19
1.655279044e-19
3.521134435e-19
2.080111958e-20
7.436966468e-21
2.643420114e-20
2.650332001e-19
8.478951708e-20
8.616181168e-21
1.476884744e-19
6.462354001e-19
8.073619272e-20
1.939180123e-19
4.749538184e-19
1.091160325e-19
9.286944424e-19
1.961745206e-19
2.41005471e-19
2.087560418e-19
9.428222665e-20
6.640482704e-20
1.591824849e-19
1.418134612e-19
1.458341884e-19
2.180018093e-19
4.89601091e-20
3.250317841e-21
6.368626897e-19
5.300526042e-20
1.06512575e-20
1.447937611e-19
6.365913018e-20
8.307684764e-20
2.049284253e-19
2.884388291e-19
6.069657794e-19
1.97769253e-19
1.119223396e-20
7.147434553e-20
1.03998031e-18
4.832103609e-19
8.533233123e-20
1.365004113e-19
3.393838752e-19
7.594669022e-20
2.753147009e-20
4.400273716e-19
2.706965366e-19
4.84734512e-20
6.746966368e-20
3.8267583e-19
6.147420531e-20
1.411676395e-19
5.066588457e-20
5.77630588e-19
1.956907878e-19
4.346313955e-19
2.823875258e-19
1.770376155e-19
5.024312885e-19
5.905261622e-20
1.351294241e-19
3.187984965e-19
2.608318574e-20
2.633407417e-19
1.639551468e-19
8.244065759e-20
2.454000216e-20
3.854654909e-20
3.810996482e-19
5.538110516e-20
3.528232067e-20
1.289694631e-20
3.865184591e-20
9.991071245e-20
3.127518023e-19
3.073584639e-20
2.342647924e-19
1.419444079e-19
2.169614668e-20
8.825571831e-20
5.390337171e-19
9.897043852e-21
4.7833952e-19
6.111262018e-19
2.37796405e-19
3.166071531e-19
1.902389732e-19
5.892926696e-20
5.6368669e-19
8.418774613e-19
2.439572916e-19
4.181216104e-20
6.682395676e-19
1.098709687e-18
2.057031933e-19
1.116690218e-19
6.282522723e-20
3.477036705e-19
8.57979351e-19
1.08980229e-19
2.093034675e-19
3.756368245e-20
1.240462317e-19
1.962912946e-19
1.244101989e-19
1.708992808e-19
8.143740357e-20
4.909813968e-20
5.894286806e-20
1.521213908e-19
1.785617809e-20
8.109182301e-20
2.068828312e-20
5.547221938e-19
4.902883282e-20
2.042588373e-19
2.550830974e-19
3.082845501e-19
8.318477055e-20
1.516036406e-19
1.410471485e-19
9.991770398e-20
1.18278219e-19
3.367442607e-20
6.115020132e-19
3.338635618e-19
3.007808422e-20
3.002088955e-20
2.106447295e-19
1.883621636e-19
4.32778569e-20
1.685782766e-19
4.021522752e-19
3.526085967e-20
4.267880773e-19
2.706808465e-19
5.004563256e-19
1.101174508e-19
6.133759359e-19
1.858063191e-19
4.051308111e-19
1.51417252e-19
2.203160723e-20
1.682517074e-19
2.466469811e-19
1.075304069e-19
2.500616272e-19
1.866965622e-19
2.098246821e-20
2.159217574e-19
1.60884264e-21
2.421545575e-20
4.982085664e-19
2.443725645e-20
2.996788738e-19
1.398847485e-19
2.789018895e-19
1.918726338e-19
1.526411275e-19
1.394984046e-19
1.369951556e-19
4.496793185e-20
1.64676685e-19
3.884352508e-19
1.451263973e-19
3.774046799e-19
3.695500211e-20
2.966756009e-20
1.449879584e-19
7.120548338e-21
4.402943307e-20
6.909758131e-20
2.203552163e-19
1.312026336e-19
1.144400129e-19
1.845665268e-20
2.027490226e-19
4.611680914e-19
7.35206258e-20
1.798991246e-19
2.271881816e-19
1.484729205e-19
1.165209982e-19
1.649383715e-19
1.059320272e-18
4.180557111e-20
6.064155399e-20
5.850365921e-20
5.93381021e-20
6.25211394e-19
6.347758683e-24
9.836203804e-20
2.735726981e-20
9.062470933e-19
5.446156132e-20
2.702789366e-20
6.579566768e-20
5.573749841e-19
2.607228069e-20
5.246033535e-20
1.372954826e-19
6.202147885e-23
3.512886199e-20
1.72770547e-19
1.670708438e-19
2.626318587e-19
7.259012043e-20
9.621611283e-20
3.977053104e-19
3.264482071e-19
3.20326794e-19
8.630517059e-19
3.848690418e-19
5.240495951e-19
4.310514182e-19
1.275246881e-19
1.667194486e-19
2.578241611e-19
1.683217508e-20
1.162668438e-19
1.898570912e-19
1.982474401e-19
1.6809685e-19
4.63579378e-19
6.983578182e-20
2.443189097e-20
1.99664007e-20
4.100192829e-19
6.430286325e-19
6.926824063e-20
4.158437429e-20
1.581728701e-19
4.274912309e-19
4.437703159e-19
1.303909862e-19
2.22875809e-20
5.763919668e-20
4.279258353e-20
2.864697344e-19
4.7367779e-20
3.347647334e-19
1.577019636e-19
3.177881871e-19
5.074126606e-20
5.525162435e-21
1.963370414e-21
1.920498444e-19
2.966015608e-19
9.475013758e-20
5.312643859e-19
1.664010975e-19
2.550431198e-21
1.242879239e-20
2.438102851e-19
2.164469276e-19
8.754972142e-20
7.770230602e-20
2.153219873e-19
3.930595221e-19
1.753576877e-19
1.797529468e-19
7.145999996e-20
2.787130128e-20
1.913330836e-20
1.017493853e-19
7.030139855e-20
5.878869314e-20
1.188001086e-19
7.741923967e-20
1.499055297e-19
2.687330605e-20
4.506094436e-19
1.007660639e-19
5.074206625e-19
1.709587785e-20
6.247530285e-20
2.640019444e-20
1.034246647e-19
6.725063035e-20
1.481914213e-19
3.598311837e-19
9.488191683e-20
6.07988086e-20
4.173166335e-19
1.064257949e-20
6.723393011e-20
4.151205303e-21
2.025418175e-21
4.199560681e-20
2.983216177e-19
1.633302246e-19
1.171005313e-19
4.658732161e-19
5.220029959e-19
2.572143639e-19
1.751282573e-19
5.788986007e-20
9.326690047e-20
4.548616252e-19
2.60046051e-19
1.576803173e-19
7.523176099e-20
5.872959538e-20
8.90902638e-19
4.670336419e-20
1.283834338e-19
5.250158525e-19
7.747161572e-20
3.497901784e-21
4.550750469e-20
3.195123637e-19
7.783448781e-19
2.149669591e-20
2.212502258e-19
7.247260095e-20
3.484120369e-20
4.501441704e-19
1.965740489e-19
2.932535626e-19
3.713945404e-20
6.699756548e-20
2.523808062e-19
4.32185179e-19
2.668802747e-19
1.206605609e-18
4.243160492e-19
8.361699038e-20
3.643085831e-19
1.798664626e-19
4.301482979e-19
1.401248976e-19
3.524362248e-21
1.561865793e-19
2.481044723e-19
1.108928828e-19
6.727780515e-20
1.194298572e-20
2.637757578e-19
1.488103996e-20
2.054213035e-19
1.780494839e-19
1.881704675e-19
2.484619236e-19
2.15336694e-19
2.671314065e-19
1.839260343e-19
1.715996536e-19
5.428506336e-19
1.634733205e-19
3.691122077e-20
2.368236203e-19
3.003513959e-20
6.058267988e-19
3.120094829e-20
3.414881742e-19
2.579450567e-19
5.636397571e-19
6.16317545e-20
3.087446006e-19
3.34251018e-19
1.322721123e-19
3.686491402e-20
2.12055892e-19
1.101289586e-19
4.909487601e-21
3.83598728e-19
7.510290419e-20
2.820664429e-19
2.516399945e-19
2.938450225e-19
7.528515197e-20
2.691691632e-19
1.301075499e-19
2.61824852e-19
4.606585497e-19
3.135333576e-19
2.588820259e-20
5.134140237e-19
4.423725316e-19
4.520246938e-19
1.946514297e-19
1.036839248e-19
3.060671472e-21
3.0704529e-19
2.928954552e-20
5.687760548e-21
2.669532116e-20
2.703887224e-19
1.51068827e-19
7.750420389e-20
1.092870873e-20
2.638009346e-19
5.12775131e-19
2.268469092e-19
2.062955533e-19
2.052403671e-20
2.184350247e-19
1.395222094e-19
2.744874423e-20
2.301546202e-19
9.913381417e-20
1.140658875e-19
3.52942083e-19
1.579235323e-19
5.823324779e-20
1.39902948e-19
2.028647793e-19
7.4044656e-19
1.170170958e-18
1.118271944e-19
2.941447633e-19
7.209988779e-19
1.224766228e-19
1.279620068e-19
1.849682893e-19
1.301415009e-20
5.232391318e-20
7.179698848e-20
9.330957582e-20
2.382866837e-19
3.480084913e-19
8.504957991e-20
5.053255959e-20
3.004169932e-20
3.105143392e-19
1.066457551e-19
4.161510113e-19
1.123374656e-19
6.84084257e-20
2.676600876e-19
1.935993011e-19
1.715322002e-19
2.096801129e-19
4.860846013e-20
2.859658266e-19
9.607245102e-20
1.685873273e-19
5.380905345e-20
3.260166773e-19
5.528405177e-20
1.912841192e-19
7.373135637e-20
2.679199385e-20
1.938808978e-19
1.576821543e-18
5.638266623e-20
1.27827693e-19
1.02232298e-19
2.317878061e-19
5.804036571e-20
3.389229317e-20
3.213223862e-19
5.136701174e-19
3.5037269e-21
4.543668914e-19
8.08301418e-20
7.991689301e-20
3.838708374e-19
2.195649523e-19
3.772920762e-19
1.804945557e-19
4.080643605e-19
1.598320328e-19
1.699587277e-19
2.096258146e-19
2.289130529e-19
2.990616566e-19
3.05255937e-19
7.515567656e-19
7.683478739e-20
7.402051948e-20
2.896752962e-19
2.193143114e-19
5.970212722e-19
6.06591042e-20
2.903509409e-20
1.750713942e-19
8.112176477e-20
2.167567725e-19
8.067913127e-19
5.874664894e-20
2.77551471e-20
4.079803231e-20
9.939861674e-20
7.047019566e-19
1.457549495e-19
1.114285205e-19
3.5164671e-19
8.837161653e-20
1.835105083e-19
7.477681095e-20
1.601349562e-19
2.731776035e-19
1.230913804e-19
7.286070175e-20
3.171691355e-20
6.264044036e-20
6.334260138e-20
1.489373574e-19
1.912628604e-20
1.931221297e-19
2.23267628e-19
9.477665997e-19
1.502389457e-19
1.756106412e-19
5.789426848e-19
1.815006388e-19
9.86779779e-21
3.472347271e-19
1.623683909e-19
1.528474775e-20
1.76524186e-19
1.823456885e-20
1.263950972e-19
1.038241245e-19
1.087479364e-19
4.359658583e-19
5.540675505e-20
2.670599627e-19
2.847697154e-20
2.955756749e-19
1.85245317e-19
4.04262842e-19
5.885002893e-20
2.581654806e-19
6.422254454e-19
9.502539814e-20
1.047578953e-19
2.13719246e-19
1.124390417e-19
1.221010274e-19
2.30408446e-20
2.992537647e-19
4.528776778e-19
1.326792361e-19
6.697369867e-19
1.742426197e-19
2.640516583e-19
3.665761338e-19
9.035620657e-20
1.654391911e-19
4.20431843e-19
2.134899771e-19
3.359641936e-19
2.093413121e-19
8.516879899e-20
1.72522707e-19
8.324583081e-19
4.765204537e-20
1.492436448e-19
1.472716292e-19
4.856674708e-20
1.147172333e-19
3.655978868e-20
1.734405574e-20
1.740970935e-19
1.271443211e-19
3.673982971e-19
2.557155593e-20
2.371580242e-19
7.969982812e-20
4.630990903e-20
8.828526085e-20
9.634611582e-20
5.199672852e-19
1.316033875e-19
1.211304579e-20
2.654561483e-19
1.081144751e-19
7.475420575e-20
3.596709359e-19
4.519718703e-19
4.698567851e-19
6.239281119e-20
1.661172623e-19
1.415412045e-19
4.018184479e-19
2.887949762e-19
3.149414469e-19
8.960647203e-21
6.397565246e-19
6.102153051e-20
6.982345959e-19
1.114574006e-19
9.463191147e-20
2.896343369e-19
8.056150208e-20
2.139929568e-20
2.058916187e-19
2.246761973e-19
2.449687185e-20
4.395128292e-19
8.152855237e-20
2.194253371e-20
2.277992268e-20
2.898537786e-21
4.486446393e-19
4.45932138e-20
7.615646089e-19
2.354436508e-20
1.030665097e-19
3.108103376e-19
1.251471967e-19
2.560299527e-19
4.036587403e-19
4.493350645e-19
4.899907444e-20
1.258733287e-19
4.054350324e-19
5.351401928e-20
1.656951727e-19
1.344415432e-19
8.348926485e-19
3.559513525e-19
2.881238411e-19
2.688010068e-19
8.706785006e-20
9.471683031e-20
1.005243153e-19
1.773701785e-19
3.544727458e-19
1.593854797e-20
3.032794205e-19
1.971485011e-20
1.466362464e-19
2.732440289e-19
7.332935734e-20
1.598293854e-19
3.66253667e-19
4.761433882e-19
1.089456649e-20
2.115381691e-19
1.630090961e-19
1.385524924e-19
3.493277146e-19
3.567420246e-19
2.4362313e-19
9.497987655e-21
2.085747741e-19
5.676305654e-21
3.313137636e-20
3.356643996e-19
4.171972418e-20
6.913535974e-19
5.705499284e-19
1.328563163e-19
1.443893408e-19
2.068359413e-19
2.738279576e-19
1.552051686e-19
4.530159867e-20
2.194075369e-19
6.240820787e-20
1.087721716e-18
4.311784455e-19
3.939458496e-20
2.852444955e-19
2.406368676e-19
2.627836047e-19
2.083680184e-19
2.248600842e-19
7.601696925e-19
6.49697594e-19
1.133370197e-19
7.543218974e-20
6.749049763e-19
2.256656996e-20
2.990194137e-19
5.140374428e-19
5.358413951e-19
9.973973711e-19
2.315560524e-19
2.945217312e-20
4.495163778e-20
7.623785398e-21
3.46808868e-19
7.174790029e-20
2.246235182e-19
6.150718412e-19
2.892365613e-19
2.334771624e-19
7.473281119e-20
1.284980522e-19
3.659443871e-19
2.947797714e-19
1.772182511e-19
1.674840232e-22
1.220967996e-19
4.400957947e-19
3.199914741e-19
2.996677915e-20
4.512617782e-19
2.484957895e-19
4.600124431e-20
1.114391736e-20
2.101814616e-19
1.000520228e-19
1.994713023e-19
1.062454757e-19
8.723140719e-20
8.879141279e-20
4.846892503e-19
2.397629544e-19
2.74183826e-20
2.381783327e-20
3.401894364e-19
2.845266272e-19
6.784351338e-20
8.536227996e-20
1.798365805e-19
3.14832817e-19
1.679114652e-19
1.792451055e-20
1.219213089e-19
1.313196012e-19
4.403584664e-19
2.865100911e-19
1.342715545e-19
4.578996696e-19
4.699857508e-20
3.680413814e-19
5.221987924e-19
9.71702393e-20
6.765110069e-20
3.415763248e-19
9.643264825e-19
8.751116124e-19
2.865395237e-19
5.994257914e-19
2.550070513e-19
5.022926999e-19
5.124892194e-20
3.486797806e-20
4.774752545e-20
3.285908509e-19
2.733236473e-20
1.664932003e-19
1.926770618e-19
1.138894511e-19
6.117205524e-19
5.25013184e-20
3.20610278e-19
4.721048742e-20
8.257222236e-20
4.916897605e-19
1.190006655e-19
1.820867409e-20
1.082185726e-19
5.145141839e-19
3.090615685e-19
6.346663883e-20
2.483558778e-19
2.880060482e-20
1.776576916e-19
1.348816955e-19
6.889021e-20
1.884941836e-19
9.819877292e-20
4.436357182e-19
9.50797276e-20
2.132069557e-19
1.160339438e-19
2.116007821e-19
1.106591009e-19
1.792037264e-19
2.446645658e-19
1.992707497e-19
1.468887375e-19
3.6113898e-19
2.566267108e-19
2.39804677e-20
5.954047881e-19
8.735214485e-20
2.157237738e-19
3.10769011e-19
1.431817615e-19
1.084711568e-20
1.880375562e-19
1.280224147e-19
2.494354633e-19
1.709614505e-19
7.940081272e-20
4.401778721e-19
1.078064463e-19
1.395253846e-19
2.156178495e-21
7.800424177e-20
3.173377469e-20
1.378761725e-19
1.586026239e-19
3.650546534e-19
3.200664638e-19
5.101011938e-20
5.110426064e-19
3.92325692e-20
5.212558623e-20
1.342225792e-19
7.644006262e-20
1.802876933e-20
3.035156569e-19
1.363018318e-19
3.571249673e-19
2.634581877e-19
2.539827655e-19
1.839613225e-19
1.643435168e-19
1.92545289e-19
2.737675186e-19
2.095555218e-20
1.884569883e-19
1.346113341e-19
8.488465812e-20
4.752180993e-20
3.09858802e-19
5.14356876e-19
1.448944584e-19
4.976289878e-20
9.250466406e-20
3.650421691e-19
3.221752008e-20
6.308180689e-20
1.423419059e-19
6.940356334e-20
1.739865629e-19
7.419952915e-20
7.376515595e-20
2.197458359e-19
1.071315279e-19
3.934414287e-20
1.038544745e-19
1.255366019e-19
2.968941636e-20
1.085043359e-20
2.075843366e-19
5.000580414e-19
4.293365844e-19
7.776012115e-20
1.04249923e-19
4.428423826e-19
5.178221111e-20
3.238852519e-19
6.507449819e-20
7.660503642e-20
5.95020545e-20
6.992611791e-20
2.859700453e-20
8.595035638e-20
7.316595857e-20
3.437661847e-19
8.562941902e-20
9.734303754e-19
3.863084795e-19
1.529220607e-19
8.545545436e-20
8.497306573e-20
1.046740213e-18
3.186019019e-19
1.683314714e-19
6.604885954e-19
3.342546309e-19
1.186451295e-20
9.193802856e-20
1.541369237e-20
1.891281222e-19
6.990788447e-19
1.517419964e-19
4.592933724e-19
7.685146932e-20
2.399399009e-19
4.930206902e-19
3.114630043e-20
6.516544979e-20
3.101955766e-19
1.92105248e-19
5.860325421e-20
2.773785255e-19
2.299582e-19
3.433854226e-19
1.906810292e-19
2.395316788e-19
4.622572924e-19
1.228421572e-19
4.536233883e-19
3.621900092e-19
3.991352348e-19
1.185747854e-19
2.523453868e-19
2.18024614e-19
3.05922207e-19
2.000453706e-20
1.636285544e-19
7.095037296e-20
1.256218873e-19
2.539299862e-19
6.910169425e-20
6.001101439e-20
6.643364723e-19
4.369043073e-19
4.498857651e-19
5.867464603e-20
8.189909978e-21
9.951853421e-20
1.157015944e-20
7.900672664e-20
2.552088959e-20
2.863669729e-20
1.478503041e-19
3.201906771e-19
1.593138658e-19
3.120470912e-19
5.23104834e-19
7.561250433e-20
1.120056406e-20
8.800559454e-21
2.699976002e-19
1.907286472e-19