/*--------------------------------*- C++ -*----------------------------------*\
| =========                 |                                                 |
| \\      /  F ield         | OpenFOAM: The Open Source CFD Toolbox           |
|  \\    /   O peration     | Version:  v1706                                 |
|   \\  /    A nd           | Web:      www.OpenFOAM.com                      |
|    \\/     M anipulation  |                                                 |
\*---------------------------------------------------------------------------*/
FoamFile
{
    version     2.0;
    format      ascii;
    class       volScalarField;
    location    "3.2711";
    object      dsmcNMean_mixture;
}
// * * * * * * * * * * * * * * * * * * * * * * * * * * * * * * * * * * * * * //

dimensions      [0 0 0 0 0 0 0];


internalField   nonuniform List<scalar> 
60268
(
164.2099635
260.0132108
319.9086439
363.2222867
394.7355942
415.4646572
420.4721728
414.1002643
391.2867311
346.3307479
232.8078637
112.5100709
245.9404707
307.5101569
351.2550913
383.9472921
403.6424629
409.1349366
402.3800795
379.8960735
331.7772276
218.6581689
175.5284397
282.2742983
331.508083
363.2307049
381.7331055
387.6588889
379.0126349
354.2517924
255.876729
146.8262261
117.3314464
246.3666215
297.906282
329.79804
345.1284247
351.3917344
343.8442575
312.5121792
203.8167999
126.6089082
243.6151902
277.8762454
291.6602858
295.4203224
241.5426284
199.7992113
125.1934279
119.4640511
178.6026821
184.8237116
190.0902149
135.1984118
224.6587836
350.2415904
441.5214958
498.3524823
536.3603159
413.9698238
425.9024694
438.5515194
451.7452676
465.0312573
478.2328519
491.0321234
503.1330045
513.9876725
725.3858435
712.1782205
662.6752353
572.8605803
437.8524264
269.44683
213.4284999
343.3168322
439.83634
514.799813
552.9231614
507.3938319
427.8455899
440.3329121
453.1653514
466.1333656
479.0776703
491.6326778
503.336138
514.033516
707.9936256
703.6898281
654.9959424
556.204236
422.7593681
248.9626993
198.8617537
325.9986632
423.6685708
522.992536
512.884064
532.3210037
426.0824221
438.3479841
451.145302
464.1249516
477.0348657
489.5958306
501.3181646
647.3412207
746.7524328
698.5097142
630.6563121
529.6531098
352.3419493
173.5632345
175.5129207
297.6564603
394.791816
474.1165098
529.7991661
560.7903353
511.1236084
434.3953084
447.1040211
459.8898388
472.7686031
485.3873372
497.0873114
668.0862046
617.8525725
702.0099033
596.9831227
488.4035096
307.0472964
118.6977713
268.2950613
359.3994563
444.1621771
528.5693746
531.5702407
553.9839781
521.8346851
444.5395358
457.0977606
469.5230625
609.0328326
645.1010896
726.1030239
664.808184
618.8859446
542.480937
430.6491984
262.8056953
183.8507672
309.0134537
393.9534472
465.7026456
544.0855556
537.6900408
573.1169611
587.8730604
610.6336557
625.489697
687.2568988
583.401182
650.4350247
665.1929422
564.93781
475.0075414
319.663516
170.3202708
117.3252181
254.6228433
337.7167956
411.8759553
476.3886503
547.2780701
583.557666
576.808227
595.8775285
614.0725467
636.3640877
654.1896712
598.4311283
556.3732861
485.8902321
342.0072126
199.0833011
135.3085257
269.7789663
342.6401461
407.3587922
462.302983
505.6090716
530.1646357
553.7771674
564.2930282
569.3068322
554.1285321
519.5603847
462.7726864
339.4297593
204.5510724
137.5817967
264.4580959
324.9577692
378.8810918
420.6031786
450.8335998
473.1147303
479.4060305
474.4803009
454.7742102
415.9347582
313.3406985
197.190086
124.9553428
200.5936514
285.7806469
321.1157404
350.510475
367.2989813
373.5429787
363.4686826
302.4767677
255.4603911
167.6887578
128.0229572
193.4796927
216.6960456
229.5026263
232.3878745
220.7596927
152.3210058
243.6241006
381.5633333
480.6826069
537.8625381
390.1876983
400.5137395
411.7737202
423.973041
437.0579046
450.9505437
465.3559317
479.8659166
494.3755964
508.2686181
521.0805609
532.4126907
541.9620804
549.3482699
554.3454438
556.9597077
557.2075435
555.2721921
725.6037975
600.6963378
231.4200215
372.4217236
478.2998152
528.4807393
386.3837761
396.7958951
408.2674747
420.8814163
434.381773
448.6614636
463.5248334
478.397795
493.0729529
507.1467182
519.936499
531.4721363
541.0139243
548.4784591
553.4311262
556.1843929
556.5800881
554.8820911
706.0355642
594.791887
217.4313669
355.4742338
459.308631
515.6223469
386.2630346
396.1364818
406.9828304
418.8890544
431.8587342
445.6287965
460.0862067
474.8482312
489.4150978
503.5392177
516.5560628
528.1137954
537.9355749
545.478818
550.9045433
554.0582098
554.9316097
704.7451451
760.0148958
606.0631163
194.1766022
329.9301655
437.8236729
494.0581775
384.7471309
394.7088072
405.7996389
417.8773372
430.8599721
444.6725639
458.8890931
473.1917881
487.572536
501.3348635
514.0016806
525.5310123
535.2457038
543.041528
548.5300258
551.7416011
552.8138169
733.8951279
627.872147
606.0505287
132.3103933
306.5766925
415.5422029
488.5260821
465.7468085
390.8764324
401.782551
413.5703009
426.1585257
439.5327144
453.4498302
467.738891
481.7805523
495.3379239
508.180245
519.528285
529.4155298
537.5144638
543.4780314
547.3765657
549.0178637
723.6451601
650.166138
532.3124242
226.3943112
392.0998904
435.0791618
479.7723383
392.1743628
402.4178981
413.3439329
425.0574425
437.4397163
450.2705115
463.4166473
476.6790931
489.6808855
501.9718354
513.1847152
522.9806942
531.2510015
537.6476531
542.0227423
673.4917537
742.8796046
623.6908511
486.4618203
148.8845175
327.6147281
420.4865033
490.041614
464.0360778
394.9259403
405.5906748
417.1772211
429.4858221
442.502334
455.736297
469.026744
481.8483495
494.2439329
505.6543907
515.7356308
524.2343262
530.906095
677.6313217
753.1337116
604.5114335
580.0528111
380.8164646
224.1153191
388.0137933
437.2773974
489.1129529
478.5686417
404.6681883
415.1765979
426.4921835
438.2111648
450.5204771
462.9504943
475.1632345
486.8505437
497.88977
507.6860499
516.1861423
665.2400666
753.0994326
627.0295917
617.7061014
410.2688137
171.9935955
141.426009
301.5350806
408.9774146
449.6882936
493.8865592
482.0141994
409.7925532
420.635577
432.0413841
443.6207479
455.3941694
466.914208
478.0939329
488.7557038
498.372695
638.6449559
737.551513
621.5077584
638.3339029
491.5521105
305.1737352
162.4813196
319.6172083
421.4574103
451.1114421
506.9392005
524.128674
511.1458435
427.0899936
437.9874275
449.0498839
459.9965291
470.7836836
612.8446572
649.2942016
708.5875908
594.7633634
620.9220266
499.4597228
340.9607866
181.9725833
167.1382699
318.7047668
410.0279239
470.9972469
453.0739673
524.5519428
548.6109843
579.3978315
599.6640103
609.550591
610.6368279
663.1482248
552.3419342
598.5161186
579.3779218
471.3120352
332.1355298
194.8604234
159.2915624
297.2116914
360.014683
438.237752
486.7321878
493.834885
526.0632388
545.6266645
555.8573544
549.9427208
558.1084569
552.8543112
478.810475
374.7020868
291.5079669
174.5808919
137.2684139
222.7899355
316.2281603
353.9579325
389.604251
417.6066581
432.0256824
441.2241758
433.023991
418.4945218
347.8710316
292.9717021
191.300591
136.8378337
210.0302944
240.6859403
262.3211305
275.328573
279.6401268
272.5902729
251.2698345
172.1957318
184.7404083
319.809568
447.4482785
516.9858092
369.2697958
377.6512658
387.5292091
398.8768407
411.7762884
426.1434988
441.7785214
458.5332237
475.8945154
493.4129314
510.4941801
526.6547389
541.1530496
553.387204
562.9238964
569.5076316
573.109957
573.9601354
571.8889405
567.260879
560.4148571
551.6446207
541.4589856
172.6589319
309.6748334
439.3075629
508.8939781
370.5437266
378.6547002
387.9208511
398.5367913
410.6292328
424.2574683
439.285029
455.3920309
472.3377821
489.5960692
506.4583473
522.4665657
536.9635311
549.337623
559.2567096
566.2602515
570.2403052
571.247608
569.4892156
565.3870772
558.9084376
550.6814421
540.96268
117.560533
301.6618741
425.6163035
495.0697249
366.1754459
374.4367677
384.1270836
395.265231
407.9548205
422.0547238
437.417911
453.7760456
470.7432904
487.8827746
504.6371395
520.6729873
534.9724436
547.3751429
556.9975801
563.9526241
568.1380443
569.499381
568.1843757
564.2333054
558.2577047
550.2077198
540.7157253
246.7126005
401.4696755
479.8952805
372.3651236
380.959553
390.6033634
401.4148872
413.528328
426.8376467
441.2463787
456.6981969
472.7576295
488.9884247
505.0537503
520.3945884
534.1375156
545.9543778
555.570894
562.6082742
566.8416892
568.4489706
567.3293596
563.7283495
558.046052
550.5287213
541.3667956
221.465749
381.3431464
480.1475156
459.607421
377.9374726
387.3894154
397.8728046
409.482349
422.2992371
436.382983
451.2981775
467.0104965
482.941816
498.6632753
513.6268429
527.5797056
539.5231249
549.3721857
556.979063
561.8452934
564.0147346
563.5828541
560.8138556
555.8805932
549.1092328
540.719712
189.6066172
353.0708511
421.8947905
477.4655964
372.5243972
381.2426091
391.2318633
402.5546787
415.1998882
429.1015023
443.8745111
459.297017
475.1205459
490.6857791
505.5844315
519.4005437
531.5226026
541.7535311
549.7246314
555.2390888
558.1825768
558.6789727
556.6847367
552.596628
546.781182
539.2038448
125.4849774
296.472796
414.6743413
500.9933011
467.0350548
380.2864389
389.8518741
400.4747281
412.0981431
424.8201676
438.5418827
452.8631012
467.4649173
482.2009026
496.4407715
509.8942166
521.9654159
532.2107565
540.4439158
546.5262755
550.3091253
551.7252375
550.9395164
547.9794563
543.1597077
656.0997357
211.6042295
383.455893
438.6939544
486.5764174
378.1226606
386.5821534
396.3108769
407.0566989
418.8847281
431.7031034
445.1829916
459.0296475
473.0708339
486.6776682
499.6165098
511.4957275
521.8938255
530.460619
537.0417645
541.5634859
543.8920395
544.1324049
542.4396884
687.2613045
658.4026993
133.1400107
299.2451902
410.5429787
493.9001977
460.3284655
383.8352203
393.3001032
403.7029314
414.8961122
426.7831807
439.421657
452.4179003
465.481599
478.3050011
490.6492027
502.1591726
512.3151193
521.1727165
528.1880507
533.2671115
536.5649409
537.7439222
537.0922802
691.0129078
563.0734322
171.7982549
372.1797593
426.6876746
487.0574812
469.002407
386.7657769
396.3652762
406.9554459
418.3287363
430.3360262
442.8518655
455.5300752
468.0700172
480.3055233
491.7187599
502.2145863
511.424395
519.0644294
524.9232732
528.9774232
531.198343
647.9735805
711.593574
557.3025854
223.0208983
386.6823619
446.9708704
496.9254481
476.8613626
395.0273351
404.852723
415.2229809
426.2193166
437.5417709
449.1511885
460.7479261
472.0553879
482.8822351
492.9197163
501.9158521
509.6424887
515.7739824
520.5344767
639.3102386
691.8633247
534.818444
496.5754073
134.4916226
283.7788609
397.5432818
444.5075457
493.8940898
475.059136
398.63709
408.3215023
418.5185321
428.9991468
439.7422158
450.4726198
461.1891145
471.4707415
481.2882484
490.2501719
498.1102858
646.7642897
666.6074404
691.2515109
529.6975543
452.2307458
296.9007866
145.1743026
284.8560885
388.4181152
431.2023856
489.4778723
509.2011262
495.9595809
409.0468536
418.8198023
428.9059789
439.2223469
449.5284118
459.5924049
469.1422201
613.457406
647.8329035
707.4941113
556.0884956
548.5680185
432.5309413
243.3887771
134.9028906
230.8657597
370.3755362
431.7311219
426.8769654
500.2239458
530.0526499
566.2443198
591.1425553
610.4970277
619.2679669
622.0734
611.1400494
658.8911369
538.0131485
560.458631
524.2720653
360.5491103
224.7777283
170.0101805
299.2470578
373.4105072
434.0767956
455.9409155
495.2794004
526.5443047
542.7062927
552.389351
546.6836622
531.527767
517.4737782
496.6105889
370.1434644
301.3313239
183.8473136
131.6045025
209.5998925
258.165547
333.9840791
358.7127832
385.2954459
400.336037
408.477161
396.0826649
344.1101075
317.6689061
276.5994864
183.231528
139.0554395
206.6300559
229.3040963
240.5353492
242.318876
230.80804
159.9236836
171.9733828
315.6131034
435.3026649
359.9227531
367.1442188
375.4963529
385.2383903
396.4839458
409.2849323
423.6112573
439.6116849
457.2096389
475.9512293
495.4694305
514.9311004
533.776095
551.3361659
566.5419428
578.7768622
587.4680744
592.5207844
593.8345863
591.6078122
586.0911627
577.8480744
567.5126263
555.4080593
542.0637202
527.816355
120.3370535
321.6762368
423.1553514
357.0233677
363.8079583
371.7661982
381.1230776
392.0200774
404.4177735
418.643746
434.4047539
451.7536321
470.3225403
489.7351042
509.4779089
528.5989641
546.317234
561.8479862
574.2676101
583.3367204
588.7538857
590.4828971
588.5602235
583.6467698
575.9862454
565.9919278
554.3349001
541.3182076
527.3806619
281.2462927
437.0632065
444.630894
366.7355083
375.3259252
384.6755921
395.2749882
407.2274124
420.6621169
435.6665377
452.1591898
469.9628562
488.5624028
507.5307436
525.9261573
543.1915495
558.3948872
570.7495186
579.8564195
585.5430776
587.5643542
586.2954008
581.7763099
574.5930518
565.11611
553.8507092
541.2519708
527.6225231
274.2369246
391.5774962
472.5093939
361.5930453
368.9086546
377.6971717
388.1044273
400.2743413
414.0627058
429.5399033
446.5073007
464.6493703
483.5436879
502.5273501
521.1591038
538.5506512
553.8792886
566.4855856
576.0701311
582.1109263
584.7037159
583.9704857
580.0372383
573.45245
564.6159531
553.9305588
541.8673587
528.7260391
234.3846873
380.8154803
479.9085601
360.1103525
367.0803181
375.312551
385.0645712
396.4484462
409.6084548
424.3867526
440.7467892
458.2801289
476.6027853
495.2527853
513.4598453
530.7086998
546.1381926
559.0167462
569.0570793
575.9967526
579.480692
579.5034021
576.552551
570.882276
563.0295938
553.2577692
541.9535826
529.624539
200.0225833
351.8373136
455.3186632
363.0193359
370.155764
378.3426735
387.7684419
398.5490479
410.674107
424.3499549
439.4506727
455.780331
472.9306877
490.3832989
507.7755169
524.1862433
539.1572297
551.8807479
562.0336106
569.1695487
573.2788695
574.2237868
572.1677627
567.5270686
560.6410445
551.9182441
541.5173565
530.0741156
133.2970084
325.2913067
436.3669439
438.3082635
364.611081
372.6005566
381.8772835
392.5745691
404.7334773
418.2430926
433.1239781
448.9733419
465.6678057
482.5896497
499.3566731
515.3140383
529.9918848
542.8445884
553.1694176
560.7591726
565.5644745
567.4016312
566.4774683
563.0179497
557.3018397
549.7777133
540.5412981
529.9690888
252.9494606
367.2083237
444.4002686
361.5705889
368.4341414
376.6598753
386.3582098
397.4693295
409.9919751
423.7949345
438.5557447
454.2035654
470.2754631
486.5368493
502.0804062
516.5320352
529.4633656
540.2975844
548.6808489
554.4930346
557.5891876
558.053905
556.1715861
552.0024242
545.8137524
538.1369611
529.0006297
152.1068429
344.8108897
449.4141113
441.2663078
368.5067011
376.1938018
384.8150269
394.6429916
405.7313776
417.9984268
431.3389125
445.5098152
460.333041
475.3661401
490.0179605
504.0014292
516.6870836
527.6433398
536.5785364
543.1905609
547.4504449
549.2982012
548.8088352
546.2505975
541.6939609
535.4599033
527.8068107
257.1233505
379.3216248
467.5611176
459.3936127
369.6746185
377.9591382
387.3777735
397.9274468
409.5252052
422.3687556
436.0089082
450.0830045
464.3845798
478.6076123
492.2339158
504.8666344
516.0033247
525.4391124
532.9230969
538.1820481
541.0940297
541.9481969
540.7045433
537.6655427
532.8023684
526.5275328
149.4489147
340.9020868
409.5558951
470.5034515
370.2789405
377.7733677
386.2705093
395.7943284
406.3598711
417.7266409
430.0171846
442.8924651
456.0582484
469.1650247
481.9953514
493.984928
504.9607651
514.4895272
522.3448829
528.2888803
532.4102235
534.5738083
534.7532624
533.1005437
529.7527337
525.0168322
184.0821792
368.2976811
451.6407909
437.376211
371.0672083
378.7966043
387.6368902
397.3452482
407.9773759
419.3667677
431.3799269
443.7807243
456.2835397
468.5595207
480.3596669
491.2136557
501.0601139
509.4514012
516.3626435
521.3627165
524.7456974
526.4182141
526.4303503
668.1567526
649.0688867
244.3472147
359.5204642
435.9100817
442.8948764
376.5703697
384.5897593
393.4464281
403.0278723
413.2914786
424.1714894
435.3714249
446.718992
457.9375242
468.81343
479.157305
488.694337
497.2257339
504.375461
510.1657146
514.4144122
517.2462282
654.2569847
722.2164174
523.9489383
133.5622373
294.3182355
361.7481797
447.862925
489.8149323
479.0502966
387.2060542
395.8417193
405.0398044
414.7292951
424.8502407
435.1844401
445.6494778
455.9174081
465.7682828
475.0924479
483.6026692
491.262723
497.7052482
502.8184032
625.6146701
696.4495917
542.2448356
449.0284977
135.587262
255.5650484
394.8456179
403.5312873
481.6971717
464.4851773
390.7045089
398.9998818
407.7093144
416.7316205
426.0500516
435.4928519
444.9474769
454.1973479
463.0522953
471.4059274
479.0240941
617.1719858
636.5651021
663.6210187
505.2965743
419.1522631
188.4514851
190.8357726
352.9008145
391.7033161
457.6206555
501.2129422
522.829424
501.3880507
409.5907672
418.0448678
426.5207157
435.1713776
443.7098281
583.3154739
628.3227058
623.2312401
652.0956501
500.7300559
449.2644315
376.8138685
206.7464947
155.7155577
269.5034408
382.4781668
399.7048399
418.6879218
482.3904363
502.7540426
528.1255727
544.284971
550.1865635
549.8026907
600.5362841
499.6154997
509.4696175
477.9123125
391.2873351
237.9161251
158.7523125
247.3315753
343.9077971
379.4175177
390.139813
414.074741
430.3689577
434.0735139
427.606815
427.7422502
385.2400129
319.951326
269.8338513
175.8983258
134.7178444
205.8941844
233.7798474
249.9255147
261.2142553
264.2524801
257.2110037
237.0818031
164.2761423
267.9798066
408.3678294
352.3184934
357.6827939
364.5046937
372.9493639
383.1243391
395.354971
409.5989641
425.8828089
444.3031098
464.8060757
486.7775113
509.6011928
532.6385902
554.7719321
574.8606447
591.7760885
604.5308339
612.6171158
615.7693166
614.1544681
608.3240597
598.9049602
586.6470535
572.2269568
556.3112551
539.4516828
522.0899828
504.6052891
272.7149194
423.0038319
442.2797013
359.0846142
366.1857232
374.6247905
384.5840447
396.3278766
409.9520868
425.6707694
443.3608102
462.9920116
484.4023727
506.8017043
529.3941908
551.1976295
571.1463615
587.9019944
600.6832151
608.9047088
612.4677369
611.2311433
605.8547088
596.8960928
585.0338878
571.0861165
555.6563421
539.0241694
521.883011
504.7137374
273.9567698
387.7987148
476.426527
355.2872942
361.666527
369.453256
378.9775371
390.2946486
403.807896
419.355951
437.0867483
456.8317021
478.0722158
500.4299097
523.0702622
544.9481797
565.0434924
582.2267032
595.3147324
603.9982678
608.1539953
607.626959
603.0205695
594.7897335
583.4916527
570.0558607
555.1418268
539.0624823
522.427666
505.5804922
236.4948334
389.400086
493.8567462
357.4283108
363.9890823
371.845994
381.2143843
392.2525167
405.1198453
419.966009
436.8409134
455.6217043
476.1064861
497.6079347
519.5230174
540.766282
560.3194992
577.1972899
590.4731034
599.5465463
603.9989641
604.2078809
600.2303783
592.7929314
582.5580679
569.8476768
555.4132431
539.9858758
523.7944702
507.3339609
204.3123361
366.0957425
481.7056974
358.727219
365.7424887
373.8018182
383.2121019
394.13657
406.7015109
420.9591919
437.1098582
455.0718719
474.5542166
494.9415323
515.6166258
535.8973458
554.6618719
571.0393681
583.9926478
593.2050441
598.5604836
599.3627036
596.222723
589.7986031
580.425158
568.8538147
555.3908962
540.7366968
525.3795336
509.6049366
136.9096669
340.4788309
446.7163078
354.5011476
360.5863099
367.8437202
376.5874597
386.8235977
398.8753191
412.6081367
428.1300602
445.4839738
464.3292994
484.2341027
504.5239179
524.5081324
543.2158736
559.8497679
573.3576273
583.4455642
589.5087213
591.7238298
589.9483301
585.0230088
577.2184483
566.860793
554.6897314
541.1216935
526.6482377
511.5714657
276.0773071
433.2268902
438.8640855
360.0800537
367.544842
376.1483237
386.0811584
397.4958801
410.5074189
425.2027015
441.3543155
458.936815
477.5959381
496.6923576
515.5683989
533.531008
549.6453879
563.2262196
573.6432839
580.4990264
583.745418
583.3368107
579.6522502
573.2338147
564.5272749
553.7735525
541.3808167
527.9312164
514.08562
236.7294025
362.0885945
450.9942059
359.9556544
366.8939222
374.7986031
383.8481904
394.3087148
406.2350956
419.7098603
434.6696024
450.9922136
468.3325962
486.2629572
504.2922845
521.4544036
537.2324457
550.8648356
561.5642016
569.1810939
573.535605
574.542925
572.4951558
567.7537202
560.5144874
551.3574339
540.5424092
528.6018762
515.9113969
145.6509693
344.3094756
457.2976789
444.5629852
359.9572362
366.9621298
375.2031614
384.8478831
395.941326
408.5938792
422.6541479
438.0288695
454.5613497
471.8145197
489.0987127
505.8612293
521.4902192
535.2878444
546.7637073
555.4561444
561.1401204
563.8353213
563.6493209
560.8797808
555.5507006
548.2420546
539.2024543
528.8864238
517.3999463
259.2286632
381.0899828
461.4494434
361.9842016
369.448891
377.7251451
386.8862325
397.0926671
408.5795401
421.1558779
434.947954
449.7441543
465.0052676
480.6177455
495.961528
510.6024242
523.7772985
535.0298668
544.0969439
550.5663292
554.4389555
555.6936407
554.3515345
550.7524973
545.1277283
537.778646
529.0373759
519.1630389
150.9449302
346.5830174
453.565908
441.0975005
364.1639029
371.4817193
379.8418633
389.3473909
400.0841629
411.9496067
424.9060606
438.7198517
453.2605287
467.9820095
482.5199011
496.534683
509.4795401
520.9542295
530.5466108
537.9643262
543.071642
545.8622652
546.2403976
544.5178551
540.7321599
535.1946056
528.2186761
519.9809929
245.1376596
372.2349323
468.246181
460.4927015
369.6440533
377.33072
385.8726886
395.3827638
405.8685429
417.2384677
429.4213798
442.375605
455.7315323
469.1760735
482.3325446
494.771369
505.9857318
515.9069654
524.0255663
530.0619794
534.2164195
536.348502
536.314582
534.455908
530.8501139
525.7532925
519.3151945
134.5489749
317.8320481
391.3314657
460.9909542
363.1541264
370.0434859
377.8866731
386.7366495
396.5853363
407.2881152
418.6821986
430.6933462
443.1317902
455.7595379
468.1316591
480.0503804
491.0606813
500.9766882
509.608098
516.5417967
521.7286632
525.1138384
526.7530217
526.5144058
524.7010638
521.3592435
516.7800602
166.8317279
333.5925059
432.825072
428.0447324
366.8775306
373.5548205
380.9608597
389.2316484
398.3531098
408.2357662
418.7382678
429.7569568
441.008285
452.3611498
463.5585601
474.1969267
484.1021427
493.0101698
500.6691167
506.8720417
511.7351365
514.9289512
516.5773759
516.7267311
515.2826091
636.4076553
190.0488244
333.647234
421.3284526
481.4164947
469.5731893
372.0168794
379.3168665
387.465029
396.3186955
405.9394455
416.0432904
426.5396132
437.1801891
447.8783022
458.2918827
468.2313841
477.3445906
485.5993295
492.5956652
498.4087427
502.8891575
506.0205158
507.7139738
632.807651
616.0592994
194.5453793
358.7875758
392.71755
477.0417258
459.7224264
375.9095895
383.2191726
391.1589405
399.6605545
408.6897851
418.1092091
427.6031055
437.2935955
446.8477907
456.1620309
464.8457511
472.8063615
480.1228111
486.3808575
491.5333333
650.2817451
666.9950183
677.3899484
495.5687857
172.8037804
334.2394713
386.9223017
465.6857447
493.0256523
477.9698839
384.5657898
392.073617
400.0170299
408.2374984
416.8021814
425.5664947
434.2519772
442.8324113
451.2540769
459.2371115
466.5171911
473.0797185
593.9320266
682.278199
532.0765463
464.5642145
360.7265657
147.6619858
264.8604449
387.8070492
386.7997679
476.3206104
489.3940469
476.70317
391.3535568
398.9031636
406.8301633
414.8772512
422.9824866
431.074107
438.9506061
572.6334043
606.1290931
595.2871588
606.9644659
466.9959639
409.0007952
243.3783903
168.6387922
282.7193982
387.4754846
372.0263593
448.6257404
477.5069611
509.3070514
533.9313024
545.3243929
551.7286847
551.53977
537.7573544
578.8841479
460.4388008
455.1112057
389.3948614
329.6477541
183.6320309
162.6212551
260.4801375
313.6930561
368.3390028
386.2192886
409.5737245
426.6460004
429.4604062
419.7546572
404.0385751
365.422276
339.6171115
266.3328906
173.3100107
144.6591898
215.5373222
237.7791167
250.058977
249.2240125
242.1114937
222.8821384
151.4068988
206.760202
373.0333828
494.1444165
353.5984462
359.7992607
367.3045863
376.3303804
387.1823662
400.0088631
415.2306662
432.8684462
452.9808962
475.8038147
500.4746185
526.6646293
553.091801
578.5405588
601.2194326
619.7847496
632.7677176
639.5315388
639.9872512
634.6288846
624.5070471
610.3988889
593.3072512
574.2967591
554.2196003
533.7107071
513.2819837
493.2293273
473.7747109
197.0817645
365.3193359
486.9924586
350.6241715
356.1557877
363.0422588
371.4887664
381.9101999
394.4226349
409.3997937
426.8500752
446.9643821
469.5916334
494.2807844
520.4579282
547.080303
572.5668708
595.6966065
614.5230088
627.9078466
635.2122824
636.3836149
631.6100236
621.8704363
608.3031721
591.7054352
573.2231206
553.5613948
533.2692994
513.0940082
493.4536879
474.2807952
180.4614808
347.8068085
472.9992521
349.8600043
355.5816677
362.6035074
371.1935697
381.5487556
394.0314614
408.6211176
425.7987041
445.4779884
467.5602815
491.8303632
517.4927251
543.649323
568.7688201
591.6071481
610.2315173
623.6340554
631.2247518
632.7267247
628.7623963
619.899611
606.9143563
590.9349559
573.1382055
553.9118332
534.1495831
514.3551429
494.7891403
475.7555878
124.1181216
342.7102729
461.0471115
351.4923985
357.6310746
365.0525897
373.7941522
384.3145476
396.6522265
411.0047217
427.634524
446.5935418
467.948184
491.2452353
515.8617795
541.0482334
565.1715087
587.1647238
605.507378
618.9471567
626.8661681
629.0783258
625.6588803
617.5742747
605.5653041
590.5449538
573.2389405
554.7416334
535.6875844
516.4583473
497.4109585
478.7850441
283.9795035
434.3244273
350.1334193
355.5494348
362.1712336
370.2645884
380.0115968
391.6030604
405.4497722
421.3962433
439.8593961
460.375865
482.9598689
506.9764926
531.3851859
555.1022459
576.9703611
595.3596454
609.2127337
618.0149366
621.4135525
619.3958435
612.7697872
602.2228842
588.5368343
572.6655685
555.2817473
537.099697
518.6107114
500.0742575
481.9416505
259.7342446
423.9597034
437.1210509
351.6084333
357.3830754
364.4351322
373.2180077
383.8657683
396.6659123
411.7438685
429.1819514
448.8201526
470.5758006
493.6170234
517.4299678
540.7648077
562.5068859
581.1382463
595.9696282
605.8273845
610.6800516
610.431773
605.552349
596.9714485
585.1295465
570.8810402
555.0079239
538.0678637
520.5795594
502.9581926
485.6037761
228.3171137
354.5114657
462.0120438
352.4024651
358.1115452
365.1741715
373.7658715
384.01196
396.1153879
410.3851171
426.8652697
445.422162
465.8570062
487.5384204
509.9724436
532.0861788
552.8435891
571.1728046
585.8406082
596.1682119
601.9837739
603.1611906
599.6832624
592.7482141
582.5627939
569.9589813
555.4015152
539.7772813
523.5025682
506.860778
490.2297593
138.6039136
339.9134386
454.3571889
352.282233
357.8383709
364.7297228
373.0560047
382.95755
394.6745476
408.3019815
423.9098668
441.3807715
460.4467247
480.8370105
501.9466495
522.8862368
542.5922802
560.046181
574.6798195
585.4764389
592.0367268
594.3839673
592.7806877
587.4870858
579.2022888
568.2879948
555.4449001
541.2069246
526.1408876
510.542435
494.881268
266.8427208
430.215893
437.8328455
356.4747002
363.062046
370.6886525
379.6263572
390.0771223
402.2608489
416.2918719
432.1187148
449.5456759
468.2873759
487.9050527
507.5963507
526.4672555
543.7020073
558.3588889
569.9540898
577.8983
581.9985386
582.3916849
579.3242661
573.1910574
564.502248
553.791354
541.5024436
528.2207544
514.0992757
499.6578229
177.0712164
360.7358349
442.0949645
351.1397528
356.4929594
363.2172383
371.4095272
381.2904191
392.7985558
406.2276789
421.3048678
437.8345992
455.5691661
474.1138341
492.8126993
510.970634
527.9425403
542.692723
554.7846314
563.7014722
569.2738857
571.6255727
570.533041
566.52415
560.0497185
551.4509585
541.1154309
529.5438405
517.0327165
503.9980701
274.1488459
436.7877112
436.6492285
355.6732904
361.5873694
368.7262261
377.3274554
387.3542188
399.0014743
412.32706
426.9183774
442.8338749
459.6905308
476.9079648
493.9119106
509.9501676
524.6088008
537.1552719
547.1180249
554.3569246
558.5189684
559.6925618
558.0042854
553.8324307
547.5261423
539.4123275
529.8834902
519.1513991
507.5781023
183.430778
360.1224135
439.4687342
353.5534902
358.7863099
365.1536579
372.8537632
381.9933376
392.5361466
404.5390221
417.799207
432.1596389
447.3258156
463.0375801
478.6984075
493.7351365
507.8071287
520.2708016
530.7625639
538.8552009
544.336254
547.3789663
547.8901096
545.978472
541.9640662
536.145317
528.7356824
520.024524
510.1926499
253.6321298
414.5163593
423.4817795
359.0892113
365.3775865
372.4321706
380.4932946
389.5896841
399.9388932
411.277666
423.6365442
436.7956995
450.5882055
464.5125317
478.2840469
491.4378423
503.4468107
514.0310337
522.8030368
529.4927208
533.8779519
536.1057103
536.3323211
534.438328
530.8076424
525.5905008
519.0095723
511.248717
164.2968665
325.6123641
419.2912465
433.2277477
356.9242725
362.8219428
369.8215495
377.9258135
387.2614464
397.7334322
409.1238319
421.3761659
434.2400516
447.4075521
460.5186482
473.2671201
485.2314184
496.0066731
505.3913368
513.1053729
519.051988
523.2501762
525.3461831
525.6688373
524.0574425
520.8719041
516.4367935
510.7566925
193.8866839
352.689452
437.9370578
442.8068665
363.3340168
370.1452504
377.6640211
385.9677541
395.1218998
404.9807028
415.4871846
426.4934494
437.8768128
449.3453729
460.7412616
471.6160757
481.7714206
490.9722416
498.9917
505.5359252
510.5569976
514.0554782
515.9296647
516.2909757
515.1010703
512.5044294
508.689308
213.4325618
371.7582549
449.4988781
447.8240404
368.7270385
375.3208511
382.4728519
390.1788524
398.5368902
407.5083129
417.0540189
426.8960735
437.0009693
447.2114679
457.1315882
466.6777885
475.5243714
483.7041242
490.8290737
496.6102364
501.2139587
504.5107221
506.3804836
507.0755706
506.3318182
504.4324522
214.2527509
364.3715581
431.3454008
435.6311283
363.4028627
369.8895981
376.9049495
384.6485128
392.9577004
401.9742854
411.3402751
420.9463916
430.7548248
440.4366946
449.7312487
458.7488137
467.0914915
474.6395121
481.2548979
486.9465528
491.4704707
494.7557662
496.9270471
639.7271223
628.675936
208.0612293
345.6912207
426.9551623
474.1560456
466.1779712
373.6662304
380.0162089
386.9517129
394.3749602
402.3540769
410.4725124
418.8340834
427.3657511
435.8744552
443.9845691
451.8528003
459.2942682
466.0830368
472.2198818
477.4866151
481.785721
594.9950484
661.6708274
466.5237137
189.6074146
338.2313518
360.2039953
461.6587406
488.194597
471.8669826
376.0051107
382.503718
389.4005674
396.756729
404.3034214
412.1182398
420.052594
427.9436084
435.6152332
442.9462755
449.9240576
456.4065764
575.4411197
587.2080292
598.7537954
413.9920503
348.9283946
142.4126929
259.0615452
375.0252783
375.0354997