/*--------------------------------*- C++ -*----------------------------------*\
| =========                 |                                                 |
| \\      /  F ield         | OpenFOAM: The Open Source CFD Toolbox           |
|  \\    /   O peration     | Version:  v1706                                 |
|   \\  /    A nd           | Web:      www.OpenFOAM.com                      |
|    \\/     M anipulation  |                                                 |
\*---------------------------------------------------------------------------*/
FoamFile
{
    version     2.0;
    format      ascii;
    class       volScalarField;
    location    "3.2711";
    object      dsmcSigmaTcRMax;
}
// * * * * * * * * * * * * * * * * * * * * * * * * * * * * * * * * * * * * * //

dimensions      [0 3 -1 0 0 0 0];


internalField   nonuniform List<scalar> 
60268
(
1.473992569e-15
1.490140602e-15
1.454309228e-15
1.481043315e-15
1.44287842e-15
1.457550911e-15
1.492347184e-15
1.488532074e-15
1.450214113e-15
1.503279555e-15
1.444770513e-15
1.482792909e-15
1.507680683e-15
1.465431549e-15
1.489463449e-15
1.48370878e-15
1.427188233e-15
1.47623188e-15
1.446311699e-15
1.533443892e-15
1.404010631e-15
1.385811313e-15
1.473939272e-15
1.54032143e-15
1.501942835e-15
1.532992301e-15
1.47147645e-15
1.422498062e-15
1.440876837e-15
1.503125047e-15
1.422013998e-15
1.390611993e-15
1.45659879e-15
1.466049396e-15
1.46274954e-15
1.452971622e-15
1.548624637e-15
1.435173223e-15
1.435550931e-15
1.402819778e-15
1.357701756e-15
1.461041504e-15
1.467368573e-15
1.475092018e-15
1.457143501e-15
1.426348919e-15
1.430926115e-15
1.387186034e-15
1.41684795e-15
1.46221295e-15
1.422508865e-15
1.448593462e-15
1.440920014e-15
1.429373871e-15
1.548122298e-15
1.521845637e-15
1.5006172e-15
1.503237308e-15
1.494556392e-15
1.473670565e-15
1.537276487e-15
1.545692864e-15
1.484964631e-15
1.499965166e-15
1.501583416e-15
1.491674148e-15
1.418413586e-15
1.433923694e-15
1.443346588e-15
1.428936214e-15
1.462676792e-15
1.404478824e-15
1.392487167e-15
1.391390055e-15
1.513344959e-15
1.531943167e-15
1.547967466e-15
1.566372496e-15
1.505760385e-15
1.534162556e-15
1.583092827e-15
1.525018742e-15
1.527373097e-15
1.507121723e-15
1.49010504e-15
1.443135994e-15
1.501140076e-15
1.473774418e-15
1.432925457e-15
1.48988377e-15
1.475947297e-15
1.394436197e-15
1.487661243e-15
1.357415213e-15
1.539839678e-15
1.56479895e-15
1.528216944e-15
1.508111313e-15
1.498451318e-15
1.507547742e-15
1.483500158e-15
1.489210663e-15
1.533609798e-15
1.477876121e-15
1.473226559e-15
1.432695941e-15
1.424996837e-15
1.53032243e-15
1.433045999e-15
1.414195868e-15
1.424468475e-15
1.461188642e-15
1.471940948e-15
1.340487261e-15
1.518748617e-15
1.497615434e-15
1.520008177e-15
1.554028511e-15
1.576184459e-15
1.549340334e-15
1.499281758e-15
1.470617002e-15
1.469940262e-15
1.525387321e-15
1.488500454e-15
1.486731598e-15
1.457856663e-15
1.436719537e-15
1.528040182e-15
1.437598629e-15
1.392888424e-15
1.398391393e-15
1.3956462e-15
1.570565456e-15
1.496422068e-15
1.610187662e-15
1.582523134e-15
1.515575234e-15
1.525612795e-15
1.572034686e-15
1.514386259e-15
1.496724004e-15
1.511849721e-15
1.448714103e-15
1.476193148e-15
1.460417289e-15
1.449239185e-15
1.405379488e-15
1.438916298e-15
1.430393429e-15
1.433349598e-15
1.366959103e-15
1.485565488e-15
1.609115177e-15
1.489569525e-15
1.48363843e-15
1.503667633e-15
1.513419651e-15
1.469739474e-15
1.502893778e-15
1.464869065e-15
1.451088647e-15
1.547686766e-15
1.478439543e-15
1.415764612e-15
1.45827943e-15
1.394330404e-15
1.429262147e-15
1.444080148e-15
1.428616881e-15
1.541235376e-15
1.482910894e-15
1.513349992e-15
1.553176626e-15
1.562133577e-15
1.480733461e-15
1.547408086e-15
1.471826887e-15
1.470482174e-15
1.468006978e-15
1.449394034e-15
1.451667069e-15
1.484292182e-15
1.426360781e-15
1.461087132e-15
1.394513914e-15
1.406299447e-15
1.47700614e-15
1.496545142e-15
1.493024589e-15
1.496018164e-15
1.470169896e-15
1.468268458e-15
1.507698906e-15
1.438418012e-15
1.473596133e-15
1.509432235e-15
1.417993931e-15
1.388655815e-15
1.40396644e-15
1.424501329e-15
1.474708005e-15
1.498188919e-15
1.474380457e-15
1.49058364e-15
1.445881117e-15
1.468749055e-15
1.477754631e-15
1.458298524e-15
1.509953479e-15
1.491804651e-15
1.428654716e-15
1.41858764e-15
1.418918012e-15
1.391770949e-15
1.472764978e-15
1.460852996e-15
1.467887619e-15
1.511705616e-15
1.450712164e-15
1.459611663e-15
1.489945765e-15
1.491601359e-15
1.438979923e-15
1.428726602e-15
1.370369993e-15
1.471276879e-15
1.428637018e-15
1.445099768e-15
1.442864375e-15
1.414677121e-15
1.44123219e-15
1.417029476e-15
1.575620332e-15
1.563327564e-15
1.547775556e-15
1.587933448e-15
1.549114532e-15
1.567425292e-15
1.525675454e-15
1.542149885e-15
1.542616676e-15
1.530563864e-15
1.490631839e-15
1.458605582e-15
1.517853148e-15
1.465590013e-15
1.556109998e-15
1.465755483e-15
1.458766278e-15
1.45420864e-15
1.479321681e-15
1.381682984e-15
1.412541429e-15
1.416293934e-15
1.454606882e-15
1.396610768e-15
1.55854298e-15
1.580594784e-15
1.561766689e-15
1.554449669e-15
1.521984105e-15
1.524893245e-15
1.57283568e-15
1.518323316e-15
1.625128571e-15
1.566043233e-15
1.48790028e-15
1.53756403e-15
1.534176458e-15
1.465757421e-15
1.465363753e-15
1.474357382e-15
1.446257192e-15
1.437050489e-15
1.478034253e-15
1.499513687e-15
1.40169425e-15
1.435324028e-15
1.425556834e-15
1.389427732e-15
1.523446699e-15
1.569280151e-15
1.558419991e-15
1.604618263e-15
1.548711728e-15
1.534969156e-15
1.540261399e-15
1.558997017e-15
1.500051547e-15
1.510144993e-15
1.476909689e-15
1.47551562e-15
1.518111338e-15
1.488960967e-15
1.506339515e-15
1.546218168e-15
1.476679446e-15
1.438725171e-15
1.435133272e-15
1.420431702e-15
1.408158965e-15
1.403645434e-15
1.408516882e-15
1.417000526e-15
1.560790562e-15
1.542152975e-15
1.539894645e-15
1.538081823e-15
1.52588025e-15
1.521365186e-15
1.508698601e-15
1.535913604e-15
1.534760309e-15
1.514417457e-15
1.497404171e-15
1.566715575e-15
1.520686325e-15
1.483424739e-15
1.431953604e-15
1.463879004e-15
1.464453092e-15
1.458155263e-15
1.455620747e-15
1.448694157e-15
1.449155998e-15
1.389193271e-15
1.469890263e-15
1.431047198e-15
1.570207799e-15
1.548397276e-15
1.564482875e-15
1.572332169e-15
1.587744828e-15
1.538083256e-15
1.502047266e-15
1.527738461e-15
1.567841931e-15
1.558293142e-15
1.482678112e-15
1.540058884e-15
1.523012516e-15
1.528524906e-15
1.453553922e-15
1.455277042e-15
1.45436331e-15
1.456302223e-15
1.428657773e-15
1.388819341e-15
1.449127874e-15
1.443761331e-15
1.42806073e-15
1.389408401e-15
1.535586159e-15
1.555526269e-15
1.593791156e-15
1.526799772e-15
1.50392345e-15
1.53024382e-15
1.497633392e-15
1.482498726e-15
1.484311785e-15
1.481792948e-15
1.476505985e-15
1.554943294e-15
1.492140867e-15
1.498842664e-15
1.442509959e-15
1.454475088e-15
1.430757963e-15
1.467038086e-15
1.458846823e-15
1.464598377e-15
1.445218822e-15
1.510830297e-15
1.472221124e-15
1.574936549e-15
1.560326931e-15
1.556476522e-15
1.529022342e-15
1.56451366e-15
1.521933646e-15
1.493753392e-15
1.491792771e-15
1.496361189e-15
1.501435343e-15
1.490966403e-15
1.476618114e-15
1.458640735e-15
1.437945359e-15
1.476692228e-15
1.472902668e-15
1.42638834e-15
1.461609408e-15
1.431055926e-15
1.496201379e-15
1.453971462e-15
1.390186035e-15
1.388289483e-15
1.56708528e-15
1.528959572e-15
1.499727019e-15
1.508449209e-15
1.521702574e-15
1.543658492e-15
1.491139499e-15
1.509516951e-15
1.470313599e-15
1.471367923e-15
1.447558751e-15
1.455328034e-15
1.411210269e-15
1.42690539e-15
1.501682791e-15
1.452620936e-15
1.4279941e-15
1.438580602e-15
1.439410685e-15
1.402780399e-15
1.429504086e-15
1.382522496e-15
1.555936502e-15
1.509995183e-15
1.561207089e-15
1.508303857e-15
1.51633546e-15
1.55841902e-15
1.496241391e-15
1.482902181e-15
1.467177164e-15
1.472628644e-15
1.460215857e-15
1.489313112e-15
1.512564004e-15
1.453017738e-15
1.436654915e-15
1.408092752e-15
1.416523916e-15
1.466958289e-15
1.372798815e-15
1.423667762e-15
1.365117881e-15
1.497932086e-15
1.510685417e-15
1.521919546e-15
1.556607277e-15
1.499250165e-15
1.514175611e-15
1.465908967e-15
1.481237915e-15
1.505493836e-15
1.457716357e-15
1.446412756e-15
1.444570119e-15
1.460769767e-15
1.487278976e-15
1.426918651e-15
1.405949484e-15
1.421906232e-15
1.414822821e-15
1.366472751e-15
1.351784897e-15
1.500696721e-15
1.490292696e-15
1.530472135e-15
1.54515709e-15
1.466512589e-15
1.46767738e-15
1.442807777e-15
1.531931257e-15
1.471669781e-15
1.437120114e-15
1.437605204e-15
1.451834082e-15
1.43028843e-15
1.438043865e-15
1.477912239e-15
1.412850005e-15
1.376344641e-15
1.358680664e-15
1.539100724e-15
1.476052893e-15
1.472639049e-15
1.470778447e-15
1.460588942e-15
1.490998439e-15
1.458776154e-15
1.522371425e-15
1.439273754e-15
1.462906515e-15
1.413433583e-15
1.459266939e-15
1.404166117e-15
1.425999937e-15
1.388228507e-15
1.402388269e-15
1.462068561e-15
1.496332586e-15
1.486233054e-15
1.431219918e-15
1.486886802e-15
1.420874227e-15
1.430780064e-15
1.41152562e-15
1.477516648e-15
1.406783747e-15
1.400748048e-15
1.417502471e-15
1.393269274e-15
1.41906912e-15
1.436425199e-15
1.430418555e-15
1.489607185e-15
1.399911701e-15
1.422146157e-15
1.403689906e-15
1.381640992e-15
1.387511369e-15
1.601187491e-15
1.598143641e-15
1.610950271e-15
1.590121871e-15
1.602193304e-15
1.546916741e-15
1.552859206e-15
1.60774563e-15
1.518643868e-15
1.55109286e-15
1.565953753e-15
1.514864203e-15
1.503852656e-15
1.495075092e-15
1.493492471e-15
1.497339824e-15
1.517265386e-15
1.465289148e-15
1.446368876e-15
1.500522409e-15
1.50256436e-15
1.434136127e-15
1.407890548e-15
1.409836065e-15
1.409956612e-15
1.362578317e-15
1.362206319e-15
1.580439963e-15
1.580114003e-15
1.564858979e-15
1.563681416e-15
1.564093627e-15
1.570698782e-15
1.53705636e-15
1.568400818e-15
1.540600605e-15
1.524975452e-15
1.566962568e-15
1.554366478e-15
1.529101133e-15
1.511276358e-15
1.533308039e-15
1.506332951e-15
1.528589883e-15
1.48626245e-15
1.453090909e-15
1.487335631e-15
1.44408455e-15
1.406140264e-15
1.417260782e-15
1.469791063e-15
1.429861324e-15
1.400997671e-15
1.395270962e-15
1.610619292e-15
1.563275167e-15
1.611199517e-15
1.582092713e-15
1.602484166e-15
1.584886109e-15
1.519246697e-15
1.546655895e-15
1.565665678e-15
1.525805858e-15
1.51803737e-15
1.52566006e-15
1.570726017e-15
1.623356633e-15
1.502666278e-15
1.509256443e-15
1.477780693e-15
1.500428284e-15
1.468481975e-15
1.433168667e-15
1.472907305e-15
1.431607169e-15
1.466548534e-15
1.419847934e-15
1.442307529e-15
1.436559554e-15
1.389500332e-15
1.588675356e-15
1.581645029e-15
1.668857488e-15
1.562597039e-15
1.608732626e-15
1.553832738e-15
1.542132336e-15
1.533874269e-15
1.542213414e-15
1.549796349e-15
1.518201752e-15
1.52474682e-15
1.637393784e-15
1.513335586e-15
1.557055342e-15
1.536079912e-15
1.465068654e-15
1.535765816e-15
1.458321186e-15
1.45445684e-15
1.399682124e-15
1.437258476e-15
1.509037793e-15
1.387083203e-15
1.46248917e-15
1.389142585e-15
1.581276807e-15
1.627919143e-15
1.556112464e-15
1.569040602e-15
1.557624557e-15
1.546709268e-15
1.562327728e-15
1.544564288e-15
1.5229991e-15
1.506503644e-15
1.530045268e-15
1.533716629e-15
1.531850855e-15
1.495772655e-15
1.562741662e-15
1.522413432e-15
1.492899372e-15
1.457028882e-15
1.450487445e-15
1.474111904e-15
1.458555885e-15
1.444800559e-15
1.495056389e-15
1.422427565e-15
1.446329558e-15
1.362585868e-15
1.583089555e-15
1.573530174e-15
1.57561368e-15
1.555143388e-15
1.570710777e-15
1.53707721e-15
1.572522729e-15
1.59086718e-15
1.546402494e-15
1.537705063e-15
1.554860642e-15
1.494285113e-15
1.50306659e-15
1.501478639e-15
1.490699324e-15
1.457216172e-15
1.592013236e-15
1.45771177e-15
1.465921789e-15
1.425238468e-15
1.477688814e-15
1.392180739e-15
1.470636594e-15
1.446766623e-15
1.420192595e-15
1.411082079e-15
1.538537878e-15
1.581463157e-15
1.55792238e-15
1.566481855e-15
1.587506058e-15
1.527314609e-15
1.534880837e-15
1.565643379e-15
1.493079325e-15
1.506552022e-15
1.698893149e-15
1.547238655e-15
1.538297267e-15
1.483410827e-15
1.501373905e-15
1.541435231e-15
1.440806109e-15
1.495362351e-15
1.486355175e-15
1.473987923e-15
1.429642233e-15
1.489732862e-15
1.401371847e-15
1.431814217e-15
1.392462147e-15
1.374988367e-15
1.553267481e-15
1.571127794e-15
1.626524913e-15
1.56021108e-15
1.553518429e-15
1.520199152e-15
1.519853352e-15
1.513663971e-15
1.568637651e-15
1.50972621e-15
1.550663434e-15
1.518588816e-15
1.494655969e-15
1.499496275e-15
1.521727978e-15
1.479805771e-15
1.450206456e-15
1.449736596e-15
1.408353615e-15
1.417694988e-15
1.419883337e-15
1.465556928e-15
1.393666179e-15
1.385751128e-15
1.392122562e-15
1.588352352e-15
1.567415068e-15
1.578937265e-15
1.568296289e-15
1.562385514e-15
1.521351128e-15
1.512397516e-15
1.538422419e-15
1.574596771e-15
1.536761329e-15
1.516738899e-15
1.475058579e-15
1.501734357e-15
1.503837128e-15
1.43556943e-15
1.469047025e-15
1.47164883e-15
1.433791065e-15
1.416428726e-15
1.432785404e-15
1.468856319e-15
1.364066569e-15
1.426297112e-15
1.423844475e-15
1.423344017e-15
1.547943534e-15
1.52715433e-15
1.557750035e-15
1.536419191e-15
1.566532461e-15
1.528784361e-15
1.507024954e-15
1.481452779e-15
1.528098269e-15
1.536364183e-15
1.541407943e-15
1.498123855e-15
1.502199134e-15
1.449868256e-15
1.513420717e-15
1.49942601e-15
1.510719476e-15
1.451175899e-15
1.430856069e-15
1.422403675e-15
1.477990854e-15
1.435896167e-15
1.44630262e-15
1.350657885e-15
1.548377735e-15
1.618932814e-15
1.581437571e-15
1.550588753e-15
1.574458665e-15
1.500565124e-15
1.556312294e-15
1.550046984e-15
1.491839935e-15
1.474532841e-15
1.53600582e-15
1.445454e-15
1.461212379e-15
1.451288726e-15
1.416461668e-15
1.451585712e-15
1.425755757e-15
1.471142251e-15
1.410656679e-15
1.39217926e-15
1.41168837e-15
1.371435506e-15
1.369941476e-15
1.552881614e-15
1.547238627e-15
1.54153784e-15
1.578015587e-15
1.530822479e-15
1.526216795e-15
1.484946124e-15
1.481230025e-15
1.5075779e-15
1.473527723e-15
1.485862864e-15
1.466011302e-15
1.540934135e-15
1.445444042e-15
1.523663821e-15
1.416380894e-15
1.42452638e-15
1.415995824e-15
1.407677979e-15
1.413472301e-15
1.391385819e-15
1.347983397e-15
1.349900675e-15
1.522265595e-15
1.55297983e-15
1.484104028e-15
1.501392445e-15
1.50992735e-15
1.497759736e-15
1.53585051e-15
1.483276951e-15
1.469381933e-15
1.537250398e-15
1.428096932e-15
1.495035998e-15
1.431384482e-15
1.421042872e-15
1.445184667e-15
1.425487724e-15
1.46628521e-15
1.386836641e-15
1.384355148e-15
1.406122581e-15
1.367605325e-15
1.499262691e-15
1.557280207e-15
1.510737801e-15
1.4655497e-15
1.485240187e-15
1.463458884e-15
1.483332757e-15
1.455247761e-15
1.452291793e-15
1.4292242e-15
1.462773329e-15
1.418394659e-15
1.397754344e-15
1.434323901e-15
1.438015639e-15
1.426279204e-15
1.429195448e-15
1.412845292e-15
1.377679891e-15
1.486464366e-15
1.499245849e-15
1.48248218e-15
1.472935076e-15
1.435666414e-15
1.477537508e-15
1.453702012e-15
1.448740808e-15
1.410139102e-15
1.483321197e-15
1.495143951e-15
1.40705029e-15
1.458758501e-15
1.367335327e-15
1.41005167e-15
1.351495764e-15
1.451255761e-15
1.441088607e-15
1.50750053e-15
1.49004614e-15
1.447004831e-15
1.43009262e-15
1.426662783e-15
1.391822668e-15
1.407679797e-15
1.420567951e-15
1.426696477e-15
1.372092148e-15
1.373905412e-15
1.446952463e-15
1.455814717e-15
1.422781001e-15
1.569884975e-15
1.409018103e-15
1.414624931e-15
1.403464603e-15
1.587516351e-15
1.61593137e-15
1.623043563e-15
1.583007078e-15
1.602661852e-15
1.57940102e-15
1.560653541e-15
1.55012974e-15
1.554553119e-15
1.562773156e-15
1.563016315e-15
1.581134645e-15
1.579358477e-15
1.538848673e-15
1.548733597e-15
1.531854371e-15
1.561811718e-15
1.517129919e-15
1.491056459e-15
1.452025503e-15
1.484667694e-15
1.45810493e-15
1.437207755e-15
1.454342878e-15
1.431378717e-15
1.396324717e-15
1.436550239e-15
1.3770804e-15
1.378880069e-15
1.646021696e-15
1.587292551e-15
1.581614327e-15
1.583396601e-15
1.57995886e-15
1.577879389e-15
1.571041475e-15
1.5599841e-15
1.589077165e-15
1.573659131e-15
1.545543683e-15
1.555878665e-15
1.604248283e-15
1.551084178e-15
1.553126864e-15
1.52362155e-15
1.533018421e-15
1.481296525e-15
1.480809416e-15
1.455990036e-15
1.453560378e-15
1.446091863e-15
1.501917017e-15
1.496290399e-15
1.461955492e-15
1.403390322e-15
1.373958314e-15
1.367644544e-15
1.414668203e-15
1.592603911e-15
1.608458143e-15
1.63163351e-15
1.601266003e-15
1.569137504e-15
1.563532135e-15
1.556436634e-15
1.559094203e-15
1.549116172e-15
1.539268386e-15
1.523979236e-15
1.545079043e-15
1.553646688e-15
1.597611135e-15
1.512733201e-15
1.501302889e-15
1.557254859e-15
1.488079668e-15
1.459488357e-15
1.506954124e-15
1.430582438e-15
1.475137526e-15
1.437439251e-15
1.429452746e-15
1.459179016e-15
1.364183939e-15
1.440525713e-15
1.405086202e-15
1.592964016e-15
1.569628919e-15
1.571696872e-15
1.588766995e-15
1.594471617e-15
1.595351026e-15
1.556450413e-15
1.564485077e-15
1.55130704e-15
1.566553627e-15
1.557151501e-15
1.540367449e-15
1.561230889e-15
1.541631442e-15
1.578518792e-15
1.517783756e-15
1.493355208e-15
1.463585843e-15
1.558998336e-15
1.484963424e-15
1.432628335e-15
1.41360944e-15
1.488737664e-15
1.415599949e-15
1.462447885e-15
1.471048791e-15
1.381090636e-15
1.407605465e-15
1.595585595e-15
1.711660615e-15
1.563971963e-15
1.56218219e-15
1.647642477e-15
1.558172756e-15
1.565462973e-15
1.574085194e-15
1.553407772e-15
1.568160258e-15
1.516031475e-15
1.590770685e-15
1.497966828e-15
1.525502303e-15
1.49041147e-15
1.535190436e-15
1.554825391e-15
1.479529695e-15
1.474830959e-15
1.462833034e-15
1.455803353e-15
1.42952969e-15
1.46203821e-15
1.428354686e-15
1.442560974e-15
1.437229619e-15
1.42819401e-15
1.430985997e-15
1.594122763e-15
1.606347607e-15
1.586108426e-15
1.58650939e-15
1.572586851e-15
1.578429521e-15
1.599519406e-15
1.546633851e-15
1.521541274e-15
1.580785236e-15
1.558898926e-15
1.571518027e-15
1.527264702e-15
1.51572066e-15
1.555298111e-15
1.505989256e-15
1.541316858e-15
1.477094859e-15
1.50643548e-15
1.475985759e-15
1.513806671e-15
1.447664728e-15
1.394493085e-15
1.438615425e-15
1.406942846e-15
1.393195832e-15
1.455785064e-15
1.344501633e-15
1.574666812e-15
1.590947392e-15
1.630075312e-15
1.591436339e-15
1.557918919e-15
1.582446356e-15
1.575895761e-15
1.533825797e-15
1.579188002e-15
1.555934031e-15
1.555423934e-15
1.526672558e-15
1.524398532e-15
1.522154146e-15
1.514829534e-15
1.481205922e-15
1.50534236e-15
1.485801668e-15
1.468843548e-15
1.496259788e-15
1.453240302e-15
1.446054078e-15
1.455026914e-15
1.437459733e-15
1.410078484e-15
1.422615537e-15
1.386596829e-15
1.376264645e-15
1.557628015e-15
1.629852397e-15
1.598166344e-15
1.592055467e-15
1.568582495e-15
1.541157245e-15
1.618690185e-15
1.593821523e-15
1.579364403e-15
1.538213544e-15
1.505176951e-15
1.516564932e-15
1.503764581e-15
1.542754665e-15
1.503975015e-15
1.490561451e-15
1.483628367e-15
1.589817072e-15
1.486223181e-15
1.506677181e-15
1.455864246e-15
1.45463089e-15
1.400593264e-15
1.379021405e-15
1.430440149e-15
1.415722884e-15
1.415626976e-15
1.570548986e-15
1.607102781e-15
1.6031926e-15
1.56219813e-15
1.568644132e-15
1.563073115e-15
1.549747322e-15
1.585644823e-15
1.610599376e-15
1.550358648e-15
1.507633339e-15
1.509451034e-15
1.560075182e-15
1.481405762e-15
1.541764835e-15
1.549213051e-15
1.51538065e-15
1.489278183e-15
1.452732534e-15
1.535098126e-15
1.436819672e-15
1.4444886e-15
1.403267304e-15
1.487026399e-15
1.396160011e-15
1.404405981e-15
1.464797663e-15
1.576672447e-15
1.544499389e-15
1.565237654e-15
1.578167372e-15
1.592147051e-15
1.538708229e-15
1.579853402e-15
1.516558266e-15
1.487502746e-15
1.567342726e-15
1.517133969e-15
1.656576025e-15
1.48310244e-15
1.537882428e-15
1.46013662e-15
1.473451269e-15
1.44373223e-15
1.444609051e-15
1.467416583e-15
1.487316612e-15
1.416072115e-15
1.431226359e-15
1.400536521e-15
1.393865555e-15
1.425333874e-15
1.390960983e-15
1.549099854e-15
1.594653938e-15
1.592689196e-15
1.59183446e-15
1.600609247e-15
1.524688419e-15
1.513827874e-15
1.527220703e-15
1.560416297e-15
1.521166706e-15
1.511193385e-15
1.510870056e-15
1.517874666e-15
1.501330671e-15
1.512422124e-15
1.501882861e-15
1.461832402e-15
1.448951323e-15
1.461381354e-15
1.511605208e-15
1.417845319e-15
1.405418648e-15
1.455443963e-15
1.361797061e-15
1.377237317e-15
1.380801837e-15
1.540615583e-15
1.519771472e-15
1.546329768e-15
1.555495264e-15
1.539574477e-15
1.542080373e-15
1.524444625e-15
1.532981429e-15
1.509410699e-15
1.502819111e-15
1.478417751e-15
1.51041606e-15
1.471603233e-15
1.461001676e-15
1.494253174e-15
1.447593218e-15
1.468138601e-15
1.488081924e-15
1.426641976e-15
1.482287498e-15
1.432650486e-15
1.432153852e-15
1.402126067e-15
1.359012136e-15
1.421399242e-15
1.54570057e-15
1.585852737e-15
1.564175242e-15
1.531309628e-15
1.524695614e-15
1.508793055e-15
1.540472977e-15
1.481880768e-15
1.493000259e-15
1.504794006e-15
1.476438025e-15
1.439018986e-15
1.552183468e-15
1.434902082e-15
1.438364204e-15
1.497475337e-15
1.481261858e-15
1.410489039e-15
1.435431437e-15
1.426092929e-15
1.435583498e-15
1.351571865e-15
1.371406315e-15
1.389621789e-15
1.524893635e-15
1.539879836e-15
1.54354214e-15
1.561299989e-15
1.57152541e-15
1.542925643e-15
1.558217914e-15
1.466612456e-15
1.487775264e-15
1.553151082e-15
1.491252814e-15
1.509327921e-15
1.478828926e-15
1.492301039e-15
1.427008068e-15
1.475007046e-15
1.420732646e-15
1.41388295e-15
1.418135918e-15
1.421914915e-15
1.420710995e-15
1.384046726e-15
1.372405147e-15
1.352268715e-15
1.506065382e-15
1.561484698e-15
1.5790275e-15
1.508695695e-15
1.485490708e-15
1.493124386e-15
1.493313642e-15
1.513461429e-15
1.551198418e-15
1.467543355e-15
1.460049619e-15
1.439029995e-15
1.567232513e-15
1.471357679e-15
1.425886821e-15
1.404636495e-15
1.417933914e-15
1.387573151e-15
1.374067233e-15
1.402677824e-15
1.478236221e-15
1.392313251e-15
1.415302316e-15
1.520821084e-15
1.522727285e-15
1.509311363e-15
1.489172254e-15
1.479734271e-15
1.522400688e-15
1.48152833e-15
1.447704326e-15
1.440069148e-15
1.444184475e-15
1.426628343e-15
1.430982068e-15
1.412188998e-15
1.404635192e-15
1.417589567e-15
1.416702034e-15
1.421191909e-15
1.39828664e-15
1.386592482e-15
1.406936654e-15
1.521188336e-15
1.489569518e-15
1.503957115e-15
1.460359481e-15
1.48176005e-15
1.495190844e-15
1.560132034e-15
1.43926125e-15
1.454712002e-15
1.417189725e-15
1.466162217e-15
1.405184759e-15
1.420444619e-15
1.457532759e-15
1.386437351e-15
1.388198791e-15
1.375551574e-15
1.475842854e-15
1.485664462e-15
1.478686815e-15
1.467034988e-15
1.487040494e-15
1.408818243e-15
1.428639046e-15
1.42008185e-15
1.448654543e-15
1.449353047e-15
1.356503292e-15
1.359192739e-15
1.411181188e-15
1.338295155e-15
1.428024537e-15
1.490636243e-15
1.469407359e-15
1.400595602e-15
1.437020169e-15
1.407522601e-15
1.369238526e-15
1.371907805e-15
1.356666117e-15
1.601049303e-15
1.623151282e-15
1.58581336e-15
1.577856355e-15
1.624553819e-15
1.610751093e-15
1.628691178e-15
1.578003672e-15
1.606424104e-15
1.561121057e-15
1.558672725e-15
1.585642705e-15
1.534477077e-15
1.56816419e-15
1.577287921e-15
1.551493261e-15
1.564037524e-15
1.523641945e-15
1.542940291e-15
1.486107655e-15
1.496052714e-15
1.48949704e-15
1.469343488e-15
1.481258663e-15
1.430712118e-15
1.450353811e-15
1.416261514e-15
1.444455033e-15
1.431610558e-15
1.416725063e-15
1.590911093e-15
1.604709689e-15
1.599614292e-15
1.610955491e-15
1.634950699e-15
1.596077206e-15
1.583728684e-15
1.575771438e-15
1.605386783e-15
1.542554545e-15
1.542960924e-15
1.61177885e-15
1.618437181e-15
1.563887459e-15
1.5686797e-15
1.545491382e-15
1.551585644e-15
1.531924727e-15
1.509614906e-15
1.493505337e-15
1.474267459e-15
1.472659081e-15
1.486393351e-15
1.474921731e-15
1.441721489e-15
1.439382678e-15
1.402669056e-15
1.401892797e-15
1.377398485e-15
1.446374483e-15
1.615125144e-15
1.640089465e-15
1.609324314e-15
1.610648299e-15
1.617176433e-15
1.625719245e-15
1.60846425e-15
1.603247595e-15
1.558503917e-15
1.594623595e-15
1.570722272e-15
1.515634609e-15
1.556028889e-15
1.545048979e-15
1.563641358e-15
1.510915166e-15
1.534543323e-15
1.526538809e-15
1.535268302e-15
1.496488798e-15
1.480045672e-15
1.455825743e-15
1.461876359e-15
1.505640915e-15
1.431555535e-15
1.45494638e-15
1.451692312e-15
1.444822324e-15
1.365638359e-15
1.374878975e-15
1.620652853e-15
1.632859397e-15
1.614115035e-15
1.613981986e-15
1.571741662e-15
1.586350165e-15
1.607495899e-15
1.559502103e-15
1.674704348e-15
1.650816784e-15
1.528417331e-15
1.537255188e-15
1.572345324e-15
1.532755295e-15
1.538091507e-15
1.548941944e-15
1.554117803e-15
1.543843209e-15
1.508081998e-15
1.510077649e-15
1.44914174e-15
1.520240718e-15
1.516208056e-15
1.448422497e-15
1.46294591e-15
1.439880359e-15
1.410864605e-15
1.423409229e-15
1.420744896e-15
1.451070349e-15
1.603849219e-15
1.622388398e-15
1.623373004e-15
1.583243938e-15
1.583929182e-15
1.617206029e-15
1.604073574e-15
1.566613391e-15
1.561913399e-15
1.578437818e-15
1.554898895e-15
1.5699602e-15
1.557083906e-15
1.556182996e-15
1.59045348e-15
1.529165415e-15
1.540700175e-15
1.49821663e-15
1.492864603e-15
1.508930347e-15
1.449894169e-15
1.511726531e-15
1.436120629e-15
1.477525626e-15
1.504079071e-15
1.50263147e-15
1.452266237e-15
1.431602843e-15
1.433040201e-15
1.372998206e-15
1.591016179e-15
1.588397474e-15
1.614401588e-15
1.608434028e-15
1.603446051e-15
1.580595227e-15
1.602245551e-15
1.571504765e-15
1.602265488e-15
1.594872516e-15
1.5812905e-15
1.612557518e-15
1.546020897e-15
1.61033894e-15
1.542297533e-15
1.550013784e-15
1.561839855e-15
1.515526373e-15
1.597667654e-15
1.503094486e-15
1.565705968e-15
1.473071538e-15
1.459889001e-15
1.455282845e-15
1.427636484e-15
1.444755546e-15
1.364819111e-15
1.408757012e-15
1.369269856e-15
1.373108001e-15
1.6578796e-15
1.602134515e-15
1.634235688e-15
1.59617221e-15
1.577426994e-15
1.596058327e-15
1.583741254e-15
1.573273031e-15
1.537987769e-15
1.584063437e-15
1.628146905e-15
1.559028334e-15
1.542443468e-15
1.548117166e-15
1.495678147e-15
1.553193654e-15
1.51270889e-15
1.498103011e-15
1.490607187e-15
1.457127105e-15
1.497699589e-15
1.434714351e-15
1.442251305e-15
1.48422065e-15
1.411351559e-15
1.405640945e-15
1.422464646e-15
1.364652346e-15
1.386876954e-15
1.622119019e-15
1.569644181e-15
1.593804341e-15
1.578737045e-15
1.574420049e-15
1.586478158e-15
1.554345641e-15
1.596384216e-15
1.558961044e-15
1.535041149e-15
1.539385485e-15
1.540028719e-15
1.530347312e-15
1.53429539e-15
1.545118446e-15
1.568876731e-15
1.485664439e-15
1.487659228e-15
1.538491388e-15
1.488165776e-15
1.472523296e-15
1.484722795e-15
1.478586303e-15
1.451111298e-15
1.405062443e-15
1.44901958e-15
1.414467945e-15
1.414248948e-15
1.428144661e-15
1.593103872e-15
1.622430759e-15
1.602552809e-15
1.620164775e-15
1.649716678e-15
1.577126178e-15
1.570250672e-15
1.588271306e-15
1.620273013e-15
1.537820617e-15
1.56139883e-15
1.561855128e-15
1.557601946e-15
1.5605283e-15
1.551119942e-15
1.508342165e-15
1.484211236e-15
1.474342582e-15
1.512121734e-15
1.465311995e-15
1.506661242e-15
1.441611408e-15
1.489736359e-15
1.450679966e-15
1.400814462e-15
1.395197409e-15
1.411157254e-15
1.359813049e-15
1.437434671e-15
1.640153064e-15
1.621687486e-15
1.612544859e-15
1.567937182e-15
1.592447112e-15
1.587523762e-15
1.521427155e-15
1.564055144e-15
1.594131967e-15
1.52931135e-15
1.627608896e-15
1.581395029e-15
1.544310772e-15
1.537764247e-15
1.509810147e-15
1.479263144e-15
1.490860465e-15
1.525664332e-15
1.464166379e-15
1.527849226e-15
1.446022791e-15
1.444594655e-15
1.435252108e-15
1.426930872e-15
1.459144165e-15
1.37546297e-15
1.382593629e-15
1.395437681e-15
1.574059924e-15
1.559395167e-15
1.59801344e-15
1.582848522e-15
1.546093631e-15
1.569637323e-15
1.55365886e-15
1.578703536e-15
1.542487049e-15
1.524285674e-15
1.579845342e-15
1.503017097e-15
1.56207591e-15
1.501833354e-15
1.48507769e-15
1.473665181e-15
1.449161677e-15
1.536109956e-15
1.458554288e-15
1.472036699e-15
1.41020142e-15
1.448372491e-15
1.45128596e-15
1.525450527e-15
1.3739474e-15
1.414619146e-15
1.405163909e-15
1.391510602e-15
1.583067582e-15
1.569466575e-15
1.612115715e-15
1.554034642e-15
1.556044063e-15
1.551206294e-15
1.551757852e-15
1.562635355e-15
1.594725291e-15
1.510767037e-15
1.491481266e-15
1.513620997e-15
1.488816391e-15
1.520225731e-15
1.489376093e-15
1.455735613e-15
1.507304933e-15
1.500662744e-15
1.429779776e-15
1.482205797e-15
1.428654612e-15
1.490554385e-15
1.449187592e-15
1.397331838e-15
1.412917478e-15
1.421591022e-15
1.414969958e-15
1.565921877e-15
1.599207963e-15
1.578671378e-15
1.574406497e-15
1.55365943e-15
1.552069633e-15
1.587297113e-15
1.55259541e-15
1.530260356e-15
1.509412805e-15
1.534682962e-15
1.493676161e-15
1.541582176e-15
1.49418615e-15
1.469289332e-15
1.624422559e-15
1.457634965e-15
1.491907346e-15
1.536059016e-15
1.443675886e-15
1.426918113e-15
1.474018747e-15
1.538414024e-15
1.387105472e-15
1.391975354e-15
1.369811428e-15
1.479744221e-15
1.631740653e-15
1.529282978e-15
1.536535571e-15
1.603042244e-15
1.524867498e-15
1.554611938e-15
1.526280187e-15
1.533764972e-15
1.565042268e-15
1.47114895e-15
1.54983175e-15
1.554777099e-15
1.48259156e-15
1.439744977e-15
1.457205096e-15
1.437384378e-15
1.492349581e-15
1.465992438e-15
1.45330816e-15
1.425273292e-15
1.459303916e-15
1.442666786e-15
1.391850253e-15
1.37702026e-15
1.375060672e-15
1.37547665e-15
1.577295367e-15
1.572201918e-15
1.601281108e-15
1.525989487e-15
1.536410145e-15
1.557816492e-15
1.497239537e-15
1.534211477e-15
1.514752848e-15
1.490779724e-15
1.469297732e-15
1.468316077e-15
1.571665561e-15
1.451449041e-15
1.484919377e-15
1.444253547e-15
1.457374106e-15
1.42865329e-15
1.411580511e-15
1.418736233e-15
1.413925201e-15
1.413628785e-15
1.396641479e-15
1.418342994e-15
1.378868567e-15
1.550858203e-15
1.541324112e-15
1.610597286e-15
1.544294333e-15
1.510897555e-15
1.515575261e-15
1.560525394e-15
1.474622873e-15
1.510827178e-15
1.482001762e-15
1.46655419e-15
1.438440179e-15
1.473077366e-15
1.432400092e-15
1.455245808e-15
1.475950213e-15
1.387026738e-15
1.416680379e-15
1.453243186e-15
1.357790991e-15
1.440588756e-15
1.425499948e-15
1.397101462e-15
1.384846128e-15
1.559511858e-15
1.574541314e-15
1.502002725e-15
1.552190108e-15
1.503366401e-15
1.489029807e-15
1.510332352e-15
1.495352714e-15
1.493895577e-15
1.506317893e-15
1.504255538e-15
1.436519567e-15
1.456569586e-15
1.50303438e-15
1.404152496e-15
1.425702655e-15
1.44128725e-15
1.407092849e-15
1.385258989e-15
1.41126552e-15
1.341246575e-15