/*--------------------------------*- C++ -*----------------------------------*\
| =========                 |                                                 |
| \\      /  F ield         | OpenFOAM: The Open Source CFD Toolbox           |
|  \\    /   O peration     | Version:  v1706                                 |
|   \\  /    A nd           | Web:      www.OpenFOAM.com                      |
|    \\/     M anipulation  |                                                 |
\*---------------------------------------------------------------------------*/
FoamFile
{
    version     2.0;
    format      ascii;
    class       volScalarField;
    location    "3.2711";
    object      dsmcNMean_O2;
}
// * * * * * * * * * * * * * * * * * * * * * * * * * * * * * * * * * * * * * //

dimensions      [0 0 0 0 0 0 0];


internalField   nonuniform List<scalar> 
60268
(
34.23763808
54.16679562
66.60513862
75.59640232
82.11942188
86.4379755
87.48927574
86.1553213
81.46471524
72.12369009
48.5389942
23.46762304
51.24580486
64.06127015
73.12542231
79.87207608
83.96923275
85.11609284
83.71499678
79.06316785
69.08148291
45.5521642
36.58498173
58.79935311
69.00833226
75.57526757
79.41694391
80.63950999
78.82671825
73.70274876
53.2658242
30.59825919
24.44201375
51.29970986
62.05278745
68.6773501
71.85363636
73.15841822
71.57367935
65.06529121
42.43755856
26.38375027
50.72628627
57.82487642
60.68322373
61.4628992
50.24772405
41.59338061
26.09756071
24.88000645
37.18531485
38.47530625
39.5448184
28.14079089
46.96814528
73.14206319
92.13001075
103.9020138
111.7546465
86.12499893
88.56640877
91.15857941
93.85479691
96.61756501
99.3810101
102.0838061
104.6509607
107.0206233
151.1998968
148.6511562
138.4981109
119.8864066
91.82778208
56.60345583
44.60944337
71.71291425
91.82402751
107.3986396
115.2472706
105.6902536
89.03545884
91.57802708
94.21270578
96.90995487
99.63115624
102.248444
104.7328197
107.0491274
147.5778745
146.8772147
136.9277563
116.4761917
88.66693746
52.32472168
41.57281539
68.09768966
88.4136729
109.0601354
106.8578895
110.8358779
88.6503804
91.16255964
93.80187621
96.4440404
99.14160542
101.7881023
104.2678358
134.8044853
155.695807
145.8157124
131.8150226
110.8851257
73.88563507
36.4815087
36.69909091
62.18898775
82.42243284
98.89820116
110.4110531
116.7593402
106.3483022
90.32389856
92.92090694
95.57398882
98.21317645
100.8751816
103.361225
139.0862583
128.7549667
146.4357812
124.6895272
102.1948291
64.32093058
24.80943692
56.07269933
75.04897485
92.67900924
110.2185278
110.7611584
115.3548034
108.5898195
92.45037395
95.0381109
97.61727058
126.6838577
134.262162
151.2065936
138.5669074
129.1198324
113.3326521
90.10738448
55.11710509
38.421268
64.51401247
82.17738878
97.08272942
113.3057791
111.9531356
119.2469998
122.239467
126.9431958
130.0181152
142.9216484
121.353041
135.3804298
138.5628756
117.7743241
99.13743391
66.83326671
35.6745562
24.51163121
53.16697614
70.48319794
85.91304105
99.31683645
113.9971481
121.4922351
120.02245
123.9654889
127.7640168
132.3896475
136.1402966
124.6221384
115.9478337
101.3727574
71.42650763
41.62693101
28.26446164
56.30878358
71.47494735
84.93684075
96.32898345
105.299942
110.3996089
115.3159295
117.4817494
118.5559188
115.399308
108.2515452
96.47718246
70.83166344
42.73988395
28.72703202
55.15791317
67.7484698
78.95647109
87.59201805
93.88096497
98.50451322
99.77016119
98.75016978
94.67773479
86.6735547
65.33702557
41.15329035
26.07147002
41.83592091
59.56035246
66.86877069
72.97862025
76.4649366
77.75157533
75.64793037
62.98830432
53.21145927
34.93489147
26.69144423
40.31515581
45.15820546
47.80726628
48.41314206
45.98663873
31.74944982
50.98066194
79.81944337
100.5170256
112.3511519
81.41851494
83.52928863
85.79757361
88.24272727
90.94033527
93.79927789
96.73213411
99.74977864
102.7765227
105.6918225
108.4279648
110.887939
112.9610875
114.6781625
115.8607286
116.6616634
116.9555083
116.8049323
152.906254
126.8479003
48.42288631
77.88221577
99.9464668
110.3614808
80.5891038
82.67586288
84.98130024
87.57522888
90.3262132
93.21617021
96.26420374
99.34584569
102.4520095
105.398717
108.1428627
110.6486998
112.783069
114.5299656
115.7410144
116.5163099
116.7867247
116.6683495
148.7499334
125.5442532
45.51134537
74.35826993
96.02450462
107.658444
80.58287986
82.55987965
84.70465506
87.14666667
89.76922845
92.58209542
95.57591876
98.62900924
101.6533097
104.6168515
107.3960885
109.9024737
112.0995035
113.8441264
115.1289792
116.0140146
116.3979862
148.0890221
160.0219041
127.8724629
40.64102515
69.03254459
91.53587793
103.1813518
80.25976359
82.26042983
84.50250591
86.93826564
89.58332689
92.43453901
95.32674404
98.28534494
101.2748077
104.1892972
106.8973651
109.3777563
111.5006899
113.3073114
114.6598947
115.5121169
115.9445498
154.1986353
132.1574576
127.8417279
27.69832581
64.14034172
86.85579196
102.0389749
97.16014614
81.44777778
83.66411133
86.06926714
88.63067054
91.36617881
94.21269504
97.18927359
100.1427273
102.9771588
105.6815152
108.1473608
110.345648
112.1693853
113.5560606
114.5622695
115.1160606
151.9418934
136.7790436
112.2861251
47.37370299
81.99097786
90.94037395
100.1884634
81.80323447
83.87649044
86.08167849
88.49651838
91.00563937
93.61663228
96.3272147
99.04816033
101.7993295
104.4306834
106.8263378
108.9688932
110.8068214
112.2892693
113.3856329
141.0310187
155.774683
131.0617387
102.4858156
31.16343219
68.50336342
87.8536772
102.3281281
96.81869761
82.30388567
84.46562433
86.78364496
89.29052439
91.94036536
94.66465291
97.42074576
100.0991876
102.725072
105.1813389
107.3812014
109.2882377
110.8069375
141.6047969
157.6578616
126.7968407
121.8661143
80.19319364
46.8732968
81.11115409
91.36926929
102.1145949
99.83340426
84.34780787
86.493804
88.78220503
91.1964539
93.69728347
96.25004943
98.80448958
101.2956867
103.6580443
105.7424113
107.5668128
138.8154631
157.3461939
131.2045111
129.460475
86.14446594
36.16341715
29.58059531
63.02832581
85.4107479
93.85467225
103.0122824
100.4580507
85.30627122
87.51999355
89.88065334
92.27445089
94.68174726
97.10075435
99.45179884
101.6963164
103.7311971
133.0609542
153.7982012
129.7765828
133.505605
103.0135934
64.03799054
33.98438427
66.81276811
88.04516871
94.17680421
105.7565828
109.2536514
106.4597507
88.92280034
91.16286912
93.41281969
95.67814098
97.92884806
127.5454417
135.2014894
147.673415
124.0488416
129.6186503
104.3749667
71.38838384
38.1707608
34.94216634
66.60090264
85.60939394
98.29248227
94.50436922
109.329467
114.3000838
120.6395121
124.808285
126.8365979
127.0565936
138.0298001
115.034913
124.7140748
120.8467054
98.33977434
69.40891468
40.7620288
33.27528691
62.04698904
75.11589727
91.3706383
101.4575435
102.899568
109.558472
113.5882398
115.7418354
114.5324586
116.2775392
115.2007823
99.78462497
78.13559639
60.84996132
36.47528476
28.68424672
46.53491081
65.99334623
73.83193209
81.19977219
87.00093058
90.00500537
91.90813024
90.1865764
87.14367075
72.45128304
61.03425532
39.88958306
28.56062325
43.82634859
50.20885235
54.69019127
57.39573179
58.27909736
56.79659574
52.36512787
35.89981732
38.69096282
66.95442725
93.65077155
108.1190651
77.11326456
78.76552977
80.74930153
83.04964109
85.64570815
88.53613153
91.72001719
95.15599183
98.73398023
102.362493
105.9630067
109.4200021
112.5579089
115.2417451
117.4231507
119.0261552
120.0443026
120.5208274
120.295562
119.584208
118.3767268
116.7646744
114.8606447
36.16825274
64.84638298
91.95235332
106.4106619
77.38012895
78.98515152
80.86650763
82.98763378
85.3817795
88.15355899
91.19274017
94.47996132
97.95791962
101.5388738
105.0670986
108.4740576
111.633645
114.392291
116.603963
118.298717
119.3087707
119.8043821
119.7115839
119.1214679
117.9868193
116.5078401
114.6692585
24.62992693
63.1758156
89.06220073
103.5111004
76.44251021
78.06888889
80.01913604
82.25209542
84.77572964
87.65840318
90.78366645
94.10538577
97.60116699
101.1940232
104.7490931
108.1454739
111.1643649
113.9086976
116.1346056
117.7875199
118.8358199
119.3966774
119.4015044
118.8651451
117.8195981
116.3757404
114.616095
51.67243929
84.04143778
100.3865764
77.83969912
79.58401891
81.5197593
83.70271223
86.15352246
88.83516441
91.77946916
94.9226456
98.22991618
101.5885601
104.9367935
108.1464346
111.1597357
113.7515409
115.921225
117.5804986
118.669136
119.1995465
119.1717666
118.7021943
117.7731915
116.4449173
114.7488996
46.37699334
79.82556845
100.4430024
96.07228885
78.90739308
80.8492392
82.94431335
85.2737997
87.88373952
90.74281324
93.80918117
97.02038685
100.3277778
103.6217688
106.8116312
109.7658736
112.3818784
114.6039996
116.3334343
117.5304535
118.239899
118.3723082
118.0148162
117.2657296
116.0957576
114.4921427
39.71399957
73.90238771
88.24767032
99.78159037
77.74698904
79.48882012
81.48123791
83.77806791
86.3297378
89.14697614
92.17663873
95.35245433
98.62185257
101.8604621
105.0246937
108.0235268
110.6158801
112.8743198
114.7165936
116.0536299
116.8506211
117.1838728
117.0075736
116.3990221
115.407838
114.0265033
26.28322158
62.08262196
86.772781
104.7727445
97.57737804
79.37855792
81.29072641
83.42275521
85.76486353
88.36140769
91.15437782
94.10241135
97.10818397
100.1633376
103.1601289
105.9996217
108.6028799
110.881081
112.7793574
114.1972641
115.1742704
115.7230797
115.763112
115.3579884
114.5232603
138.5473845
44.30689018
80.25188695
91.763804
101.7168773
78.95803568
80.65614012
82.59010961
84.74488932
87.16574038
89.74745326
92.50112616
95.34248442
98.28591876
101.1698818
103.9005889
106.4197292
108.6755427
110.5680851
112.1114829
113.2240469
113.9495207
114.1827015
113.9936192
144.6848055
138.8639158
27.89886525
62.64610574
85.88750269
103.2577627
96.14230819
80.10406404
82.01222652
84.11351601
86.38880077
88.80865463
91.41587148
94.14193639
96.79020417
99.44626907
102.0722738
104.5258693
106.6920009
108.6557597
110.2562239
111.4910359
112.3687642
112.7918655
112.7969847
145.3473415
118.6629465
35.97398238
77.88927574
89.2134236
101.7695659
97.9354395
80.62082527
82.55634859
84.67638298
87.02191919
89.46170213
92.04303245
94.66033097
97.29970772
99.84807006
102.2554631
104.5358672
106.5486718
108.207954
109.5487019
110.5461509
111.2022695
135.9075392
149.502291
117.2907522
46.68405545
80.8963185
93.46308618
103.8116291
99.54656351
82.4255663
84.41352891
86.51315925
88.7358285
91.0483645
93.4588502
95.89007737
98.27096712
100.5630561
102.6884848
104.6111047
106.3054374
107.703804
108.841902
133.8123189
145.032867
112.3162046
104.4848291
28.16905867
59.37736299
83.12299807
92.90533419
103.1484913
99.1356888
83.1068429
85.08787019
87.17504836
89.28742317
91.53377821
93.78117344
95.97620675
98.14258973
100.219366
102.1328369
103.8553149
134.9757468
139.2415947
144.5426929
110.9286546
94.89499248
62.41140125
30.36675908
59.57448743
81.21423598
90.09828498
102.1997765
106.2385988
103.4155212
85.24053729
87.23417365
89.27345154
91.40827208
93.55691382
95.65284333
97.66457554
127.8026392
135.0627574
147.6089276
116.1457404
114.6860842
90.52708145
51.01206533
28.20851709
48.26066839
77.3975865
90.18036965
89.09767032
104.3802815
110.5438405
118.0449796
123.1722588
127.15317
128.9589663
129.5259811
127.2564281
137.2092413
112.0870213
116.8301332
109.3971911
75.33028154
47.01390071
35.53901999
62.51003439
77.96211476
90.58773694
95.10299807
103.26781
109.7516183
113.0743692
115.0896067
113.9096647
110.771311
107.8781539
103.5551408
77.21846766
62.90148506
38.4025403
27.51210617
43.80951214
53.9226499
69.71220718
74.82488932
80.33679562
83.45804642
85.11548678
82.52128734
71.72649044
66.22727058
57.71889534
38.26092628
29.0516398
43.15422093
47.86945626
50.19761874
50.5606211
48.13875994
33.34918977
36.05033312
66.13467011
91.15202665
75.3135418
76.77166344
78.44258543
80.41254674
82.69287771
85.28701698
88.19003868
91.38883086
94.9791081
98.82419084
102.8612078
106.896643
110.8919213
114.6589813
117.9795487
120.7596325
122.8093381
124.1506469
124.7458328
124.5464152
123.6531055
122.2239974
120.288242
117.9744165
115.4194949
112.5973071
25.21665807
67.41484848
88.64077155
74.7235418
76.06982377
77.6498818
79.52289061
81.72005373
84.19377606
87.07905437
90.28371588
93.80408124
97.59554911
101.6077477
105.7918698
109.846181
113.5861487
116.957853
119.7577692
121.8753535
123.3048399
123.9237481
123.837234
123.1060971
121.7333204
119.8985837
117.6925618
115.1515947
112.3975994
58.91350956
91.51324307
93.01141844
76.67174726
78.40725124
80.31100795
82.46164195
84.89036106
87.57559209
90.62912959
93.98541586
97.62186331
101.4492757
105.371513
109.2338061
112.9091317
116.1908855
118.9901956
121.1236041
122.5350398
123.2046701
123.2283817
122.5998195
121.3970299
119.6436729
117.5420009
115.1170213
112.4378036
57.46561573
82.00755642
98.8871008
75.58918977
77.04484204
78.81280679
80.88776058
83.31711154
86.10267354
89.21073501
92.68069632
96.39027509
100.2794348
104.2152482
108.16487
111.8758221
115.2594563
118.017623
120.2251859
121.784582
122.6090974
122.7416978
122.218747
121.1249001
119.4942575
117.4644358
115.1464711
112.5674919
49.13710294
79.75840748
100.4706877
75.34904793
76.70102085
78.3482205
80.27988395
82.53960885
85.16162906
88.17826564
91.49596604
95.06595315
98.84747475
102.6850634
106.5247582
110.2096991
113.5748915
116.3692005
118.6900301
120.3882291
121.3597679
121.6360434
121.2838126
120.3680744
119.0256931
117.2412551
115.1036665
112.7501182
41.93810015
73.6984827
95.32222652
75.93993123
77.38909306
79.01535139
80.90773909
83.0522824
85.53361057
88.28955298
91.35142489
94.72159037
98.24263916
101.8413045
105.4707629
108.9213497
112.1345175
114.9272512
117.2427789
118.9142876
120.0060993
120.4810165
120.3171932
119.6165786
118.3677262
116.7662927
114.8165957
112.6200451
27.92787449
68.13543305
91.3518977
91.68614227
76.19148506
77.79630561
79.65246723
81.79825489
84.2664496
86.98205244
90.02195143
93.295317
96.67140554
100.1810359
103.7061853
107.1030088
110.2490501
113.0621556
115.3939415
117.187017
118.3692585
118.9879884
119.0931184
118.5802063
117.5954223
116.2402343
114.5258178
112.4887943
52.98853213
76.8874726
92.98609069
75.57559639
76.92737374
78.56712658
80.48098216
82.71761014
85.25799269
88.05719536
91.05129164
94.30547174
97.65010531
101.0660993
104.2859682
107.3893875
110.1979605
112.5557404
114.4703267
115.9159768
116.7728756
117.0694369
116.8817494
116.251917
115.2193617
113.8105953
112.1127509
31.86868687
72.22295723
94.07327316
92.27834945
77.00558135
78.5391167
80.27544595
82.22863314
84.47877069
86.98155599
89.70739523
92.57752633
95.65932302
98.7453041
101.7853149
104.7592994
107.4715796
109.8639802
111.8784548
113.471657
114.554034
115.1411885
115.2527466
114.9468064
114.214698
113.1465141
111.7095745
53.86237051
79.39930368
97.81388137
96.02371803
77.18325381
78.81394584
80.72422523
82.84589727
85.19998711
87.80445304
90.59089835
93.45256824
96.4429207
99.43694391
102.2864603
104.9688137
107.3671631
109.4862777
111.1633591
112.4776897
113.2851107
113.6823985
113.620965
113.1383258
112.3342102
111.2450527
31.31250376
71.40281754
85.72875134
98.44116484
77.41659574
78.9351773
80.61594885
82.52894692
84.6613819
86.95425532
89.43587148
92.05793681
94.79691382
97.54430475
100.2371395
102.7631678
105.1152633
107.1694778
108.9388567
110.362089
111.4168042
112.0168107
112.2635225
112.1059553
111.5692779
110.7732882
38.57221792
77.10855792
94.47960241
91.39746615
77.45918117
79.00176015
80.78514292
82.74949925
84.90564582
87.21067913
89.67740812
92.21421234
94.79816892
97.38070492
99.88811949
102.2039029
104.2992435
106.1617365
107.7222996
108.8727617
109.7655899
110.2799355
110.4929121
140.4374962
136.6880163
51.15228025
75.230634
91.15681281
92.55362132
78.61729207
80.22964324
82.02496669
83.98153879
86.03387922
88.27669246
90.54282613
92.91572749
95.23727488
97.52362562
99.71673759
101.7552224
103.6325983
105.1979776
106.4866817
107.509669
108.2643843
137.0916054
151.5328455
110.1176811
27.97535354
61.61861595
75.70371373
93.68611648
102.3777821
100.0435117
80.78130453
82.52600688
84.39057597
86.33357404
88.4244251
90.54672469
92.72771115
94.85840103
96.90911455
98.87611219
100.7324887
102.3997894
103.8338749
104.9996927
130.7856781
145.7618397
113.6264453
94.23863959
28.3912766
53.47385343
82.59778208
84.37839888
100.6364109
96.9756974
81.49206963
83.16698259
84.94850634
86.78316785
88.70542661
90.66511713
92.62818397
94.53093918
96.39459274
98.1526671
99.7419106
128.6538534
132.8085515
138.584986
105.6363099
87.72458199
39.48584139
39.95031593
73.85271008
81.93296798
95.67384698
104.7344724
109.1798904
104.611225
85.40740383
87.13808081
88.87355899
90.68839029
92.48133462
121.55611
131.000634
129.9572878
136.0169525
104.5362669
93.86534279
78.79294219
43.30681496
32.58393295
56.36892113
79.95120567
83.49462282
87.42471739
100.6812143
104.8802557
110.098919
113.4763744
114.6571438
114.5719063
125.1696669
104.1349345
106.2117387
99.67206748
81.66934021
49.69513647
33.16952719
51.67262411
71.82784655
79.20284118
81.39518805
86.34855577
89.71627982
90.45760155
89.10983666
89.13998711
80.2926456
66.70977004
56.30015474
36.73550827
28.15261767
43.02866753
48.82433054
52.17360413
54.50422093
55.09938749
53.62802923
49.4408919
34.26236407
56.16405975
85.56616162
73.74622609
74.8267032
76.17940683
77.87444659
79.88264131
82.35377176
85.19823125
88.46641307
92.22586503
96.3859381
100.9301612
105.683789
110.5145132
115.1749495
119.5415818
123.3300946
126.2769052
128.2278444
129.2434343
129.2704793
128.420778
126.7784032
124.493617
121.7238556
118.619568
115.2946271
111.835403
108.2783989
57.17206319
88.62464002
92.59536428
75.13021921
76.5373458
78.22536643
80.21664732
82.59533634
85.31547819
88.52609929
92.09295508
96.08220288
100.4890673
105.0826649
109.8153965
114.4204126
118.6790802
122.4408554
125.3942381
127.3993531
128.494352
128.558083
127.8012787
126.2616183
124.0631335
121.3831313
118.4077133
115.112551
111.6701891
108.2071653
57.45741887
81.26523533
99.77667741
74.31807006
75.59736299
77.1388588
79.04538577
81.28072426
83.9776037
87.0915302
90.69760585
94.70716312
99.04662583
103.7115237
108.4553363
113.1191446
117.449063
121.2308897
124.2349473
126.2777004
127.5121062
127.7425467
127.1350161
125.8121277
123.740432
121.1580443
118.216383
115.0508038
111.6947969
108.3121706
49.56983881
81.60571674
103.4367354
74.79125725
76.10017193
77.65719751
79.5388588
81.76027294
84.35058672
87.31211906
90.71345583
94.55284548
98.74437782
103.1773222
107.7445712
112.2531012
116.4114894
120.0935461
123.1211412
125.3637933
126.6333312
126.9713733
126.4931893
125.2554674
123.4010982
121.0122007
118.2627896
115.2189491
111.96196
108.6391898
42.85990544
76.73970557
100.8996669
75.08649044
76.50676768
78.12613798
79.99516011
82.20263916
84.74496884
87.62625618
90.91695035
94.54503331
98.5715259
102.7955126
107.0889641
111.3647066
115.3969697
118.9746185
121.8499312
124.0514851
125.4526327
125.9352009
125.5674704
124.5510617
122.8769869
120.7641737
118.1804212
115.3203654
112.2232818
109.073761
28.72244144
71.3591124
93.58805932
74.18704922
75.4035418
76.86792392
78.62680421
80.6559381
83.09492371
85.88022996
88.9977219
92.51568665
96.4132796
100.4908747
104.6628584
108.8623361
112.850331
116.4622136
119.4869912
121.8497507
123.3725274
124.1352955
124.090288
123.4039458
122.0338513
120.1138814
117.8379433
115.161715
112.2862196
109.279308
57.86085321
90.7542983
91.88643886
75.31289061
76.80172147
78.53343864
80.53912744
82.86788309
85.47675693
88.46427036
91.72468085
95.32268859
99.15895121
103.1773093
107.1270707
110.9260907
114.452291
117.4155706
119.8055319
121.4598367
122.4084612
122.5993123
122.1610918
121.0588781
119.523948
117.4873608
115.0901676
112.4760928
109.7465033
49.60158392
75.8475865
94.40715882
75.29722115
76.67503116
78.29428326
80.11320009
82.17791747
84.59180314
87.32979583
90.37891468
93.70445304
97.2417666
100.9731764
104.7762841
108.3636041
111.7677112
114.7335697
117.10049
118.95366
120.0691511
120.5449495
120.3976768
119.6711627
118.4087965
116.7394627
114.723948
112.4246121
109.9483258
30.54767247
72.17621964
95.82764238
93.05928648
75.2788502
76.68552332
78.30657855
80.25665592
82.47756501
85.05171072
87.90200731
91.0387449
94.45339351
98.03039759
101.5847561
105.0729164
108.4012616
111.3795272
113.9270299
115.9365957
117.3522717
118.1502966
118.3071674
118.0222265
117.1520718
115.8725231
114.1787213
112.2120331
110.013415
54.32134537
79.84467225
96.61116699
75.70282613
77.21293359
78.88670535
80.75096282
82.83697829
85.14781431
87.6939222
90.47758865
93.51257253
96.70939824
99.92960456
103.1951128
106.2393037
109.0466774
111.5351966
113.5708403
115.0825231
116.096441
116.5670664
116.4942166
116.0087986
115.0332753
113.7322115
112.0818891
110.1798582
31.63407479
72.61510423
95.00423168
92.31597894
76.1401225
77.64209757
79.30824414
81.24812809
83.40908876
85.85788953
88.44882871
91.26144208
94.23022781
97.32202665
100.3292242
103.2882828
106.0412186
108.4790673
110.6155513
112.355792
113.5871954
114.3699549
114.6612401
114.5090028
113.8907221
112.9243649
111.6856179
110.131859
51.3822695
77.99119708
98.0313948
96.33472383
77.27926714
78.83693961
80.57033742
82.53014184
84.63822265
86.93884161
89.43020417
92.09598324
94.85602407
97.63636149
100.3940275
103.0260241
105.421556
107.5679948
109.3322609
110.7345992
111.7783
112.4225467
112.5759317
112.3917816
111.8394369
110.9479003
109.7578208
28.20881797
66.60158822
81.94828713
96.47612723
75.91392865
77.28340211
78.85804642
80.64115839
82.62799054
84.8121642
87.11626048
89.57740383
92.13257038
94.76655706
97.36558779
99.84046637
102.175332
104.3444122
106.2731399
107.8018913
109.0322308
109.931715
110.4187599
110.5158328
110.3189813
109.763544
108.9821728
34.96195573
69.88272297
90.63436278
89.59115624
76.71643241
78.03938104
79.54548893
81.19755856
83.02674833
85.04245648
87.18374382
89.43690737
91.74182033
94.03472598
96.38552977
98.63791747
100.7523254
102.6778337
104.359669
105.7700387
106.8860348
107.6891919
108.2040554
108.380187
108.2748442
133.898934
39.82956587
69.88196432
88.21815818
100.703112
98.16455405
77.73299162
79.18381689
80.78165055
82.56409413
84.52971846
86.57389211
88.73230389
90.94917473
93.13179454
95.28387922
97.38462927
99.36384053
101.1271911
102.6910058
104.0217129
105.0543133
105.8114464
106.2828541
132.6082184
129.3113024
40.76118848
75.13525253
82.20849559
99.79893402
96.09755427
78.51347518
79.98806147
81.57869332
83.30192779
85.17600903
87.0959596
89.05534064
91.1006297
93.04775629
94.94921986
96.79514292
98.51794326
100.0765012
101.4879605
102.6645003
135.9258349
139.5524887
141.8569654
103.897219
36.20488287
69.96571889
80.94914464
97.35853643
103.0440726
99.84658715
80.29638728
81.81222867
83.40240705
85.07318934
86.83842467
88.60664518
90.43011176
92.23760155
93.98161401
95.6513905
97.21385773
98.64457124
123.8915775
142.4485128
111.2248334
97.21932732
75.59453686
30.91128304
55.4122824
81.12694606
80.86410488
99.53638513
102.2275779
99.52905867
81.66136901
83.16706641
84.80337847
86.41420159
88.09412422
89.75971416
91.4040404
119.2885708
126.3261057
124.0674017
126.5431227
97.44850204
85.43175801
50.87589512
35.30419729
59.16732861
81.04310982
77.77900709
93.74919192
99.7507565
106.3770707
111.47974
113.8295014
115.1312401
115.0655964
112.1608102
120.7202966
96.01753277
94.9383516
81.27720395
68.82894692
38.33721255
34.01382979
54.47144638
65.56886525
76.95239415
80.67389856
85.51744036
89.06451966
89.63494949
87.6294885
84.34019987
76.31010746
70.92638298
55.61782936
36.2013819
30.22814958
45.0292521
49.67226735
52.22185472
52.0289942
50.50940469
46.48427896
31.5901225
43.35621749
78.2097421
103.5352095
74.00257253
75.23036965
76.73372878
78.55156888
80.71650548
83.28348377
86.35799699
89.91837954
93.99484634
98.67125725
103.748343
109.1639673
114.716744
120.1266108
125.0673157
129.2484118
132.3504771
134.1441973
134.6877799
133.9530131
132.2039587
129.5342166
126.2659489
122.5950226
118.614481
114.4675435
110.2845906
106.1267268
102.082695
41.32856222
76.59029873
102.0569009
73.3944208
74.48087256
75.8444294
77.50953578
79.60753922
82.11229744
85.13554481
88.64080163
92.73176445
97.32003868
102.395259
107.7951644
113.3700881
118.8073544
123.8637911
128.0449323
131.1819385
133.0781797
133.7345884
133.2318741
131.5992951
129.1114077
125.9354481
122.2836299
118.384539
114.2922093
110.2002923
106.1778831
102.1963507
37.86017623
72.9248227
99.13396733
73.27497958
74.4231571
75.79738018
77.51052654
79.58609714
82.08557705
85.00482699
88.46748764
92.46957662
96.95698689
101.9383795
107.242132
112.7419665
118.0786138
122.9891812
127.1036879
130.2746916
132.2685386
132.9723254
132.4958801
131.1389147
128.8031464
125.707896
122.2449237
118.4166086
114.4040576
110.3783516
106.3926649
102.4588029
26.03359553
71.86947776
96.6365936
73.58800559
74.80680851
76.30877713
78.03820331
80.14471739
82.65065334
85.53833871
88.92152805
92.79429185
97.14311412
101.9513583
107.0397786
112.2471803
117.3639286
122.1714055
126.2303997
129.3736944
131.4213045
132.2761745
131.953963
130.6164475
128.4322308
125.604726
122.2028304
118.5125747
114.6998775
110.8290071
106.9130819
103.0486783
59.55307544
91.0335418
73.33451752
74.41896841
75.74650118
77.37210832
79.32909521
81.63678702
84.40908661
87.66014829
91.41184612
95.57782936
100.1969869
105.1345089
110.2202944
115.2553213
120.0009155
124.0778057
127.2553385
129.3905932
130.5317902
130.478833
129.45611
127.6437417
125.0454094
121.9518418
118.5118311
114.8973394
111.1679196
107.3909069
103.6399871
54.45533849
88.86363421
91.54714378
73.56738663
74.71116269
76.08752418
77.82077369
79.91989899
82.51177305
85.53805932
89.07225661
93.04320009
97.52286052
102.2773071
107.2028326
112.103011
116.7702063
120.8699441
124.2093359
126.6226155
127.9481216
128.3109091
127.6783
126.2320718
124.0512637
121.3357877
118.2288395
114.8787728
111.4159252
107.8897421
104.3220739
47.85323662
74.28040834
96.75859446
73.75352676
74.90311197
76.28768751
78.01470449
80.09802923
82.52162046
85.39204169
88.71283473
92.4765807
96.63503976
101.105749
105.8162583
110.4412637
114.8255491
118.878977
122.157032
124.5931743
126.1859682
126.7391919
126.3176703
125.2142553
123.3690802
121.0402386
118.2476037
115.1797507
111.9352719
108.5417301
105.1441285
29.0596196
71.25729422
95.19285407
73.7438083
74.8378573
76.22071137
77.89488717
79.83767462
82.19821835
84.93816892
88.13499033
91.67781646
95.61698474
99.82828928
104.1781173
108.6036235
112.8151429
116.5449559
119.7882055
122.3155427
123.9574103
124.7424113
124.7765334
123.9592542
122.5249989
120.5572469
118.0819665
115.2670879
112.2458865
109.1405738
105.9792628
55.93719751
90.17846336
91.69932302
74.6049366
75.91554051
77.42268429
79.23131743
81.3293789
83.77447453
86.63851494
89.86259188
93.3844423
97.26170643
101.2922158
105.3979712
109.3478938
113.092695
116.3310853
118.984913
120.8834386
121.9915603
122.3293123
121.9750441
121.0271717
119.4720546
117.4678143
115.1357984
112.554698
109.7407243
106.7654094
37.10742102
75.59986245
92.59988395
73.47584784
74.53144853
75.87289706
77.52682785
79.49886955
81.81228455
84.47563937
87.52685364
90.87992908
94.53722545
98.34353965
102.2301118
106.1089942
109.7258822
112.9210875
115.6476961
117.7498023
119.1706684
119.9433978
119.9574554
119.3974533
118.2609736
116.7179669
114.7776531
112.5295078
110.113314
107.5437159
57.48030303
91.54495594
91.47793037
74.42620245
75.59614657
77.03736514
78.74351171
80.75932302
83.11200086
85.79484419
88.73236836
91.95463572
95.40884806
99.03500322
102.5351279
105.9794326
109.1575048
111.8876252
114.147853
115.8474296
116.9562239
117.4555384
117.3141285
116.6526972
115.5737718
114.1021964
112.3135268
110.2182914
107.9378702
38.45421663
75.46317859
92.05218569
73.99544595
74.99413926
76.27030733
77.80358908
79.62823555
81.77120997
84.18071567
86.85313991
89.78493875
92.9154524
96.17606276
99.42280679
102.5909908
105.5625919
108.2853127
110.5941221
112.4877713
113.8429271
114.7006512
114.9758113
114.7833054
114.1465571
113.1444079
111.8549216
110.1913002
108.3110294
53.16352461
86.84618096
88.6910101
75.14786804
76.40876424
77.83278745
79.43827423
81.27654417
83.33988609
85.65820761
88.21052009
90.86085536
93.68688588
96.57003868
99.47005158
102.2411863
104.7968214
107.0886869
109.0307114
110.5909972
111.6688223
112.3231893
112.5417537
112.3638964
111.8377735
110.9176596
109.7298324
108.2778165
34.42403396
68.24322802
87.82362777
90.67079519
74.66801418
75.82688803
77.21665592
78.83814958
80.70489147
82.79345154
85.12023641
87.61235762
90.22347518
92.92509779
95.65136256
98.34664303
100.9084891
103.2479325
105.3220266
107.0313389
108.4387707
109.4515388
110.0177477
110.2435074
110.1004019
109.625994
108.869841
107.8517021
40.64034601
73.9149409
91.71009886
92.66786159
75.98287342
77.33855577
78.85109822
80.54356544
82.40776058
84.41130883
86.57148077
88.84032452
91.15542016
93.50369654
95.87532775
98.11897915
100.2827402
102.2661874
104.0183473
105.4640426
106.6605437
107.5324457
108.0750097
108.2648506
108.1740211
107.7914786
107.1830625
44.73254889
77.91255319
94.16668171
93.75788094
77.15117344
78.48932946
79.92902643
81.47652482
83.17891253
85.0016484
86.95693961
89.00022781
91.07002149
93.16142489
95.22306254
97.22678487
99.09776058
100.8618117
102.3920825
103.6588674
104.7262712
105.5401397
106.0704341
106.3587127
106.3221427
106.0385945
44.91085321
76.33038685
90.27503546
91.11953578
75.97268429
77.26562648
78.6691081
80.23751128
81.92974425
83.74669246
85.65652052
87.64654631
89.62910595
91.66463357
93.59857511
95.5155663
97.27107672
98.88277026
100.3054567
101.5539931
102.6264475
103.4002278
103.9786589
134.0318891
131.8749645
43.60091769
72.42572964
89.406585
99.25420589
97.52547604
78.12204384
79.39793252
80.80597034
82.31980443
83.93533849
85.56053299
87.25045347
89.00923275
90.75628627
92.43208897
94.1046873
95.69066194
97.145951
98.49137975
99.63196432
100.6131872
124.3882205
138.4649796
97.74665377
39.71007307
70.81960671
75.39269074
96.56893187
102.0493961
98.5857017
78.47779927
79.79450247
81.20033097
82.68629916
84.23942403
85.86990329
87.50843112
89.13299162
90.69002364
92.19549323
93.69539222
95.08872126
119.9549259
122.4508145
124.9408425
86.48376316
72.95415001
29.82301311
54.25042983
78.5051902
78.46527617
96.28811949
104.5886611