/*--------------------------------*- C++ -*----------------------------------*\
| =========                 |                                                 |
| \\      /  F ield         | OpenFOAM: The Open Source CFD Toolbox           |
|  \\    /   O peration     | Version:  v1706                                 |
|   \\  /    A nd           | Web:      www.OpenFOAM.com                      |
|    \\/     M anipulation  |                                                 |
\*---------------------------------------------------------------------------*/
FoamFile
{
    version     2.0;
    format      ascii;
    class       volVectorField;
    location    "3.2711";
    object      fD_mixture;
}
// * * * * * * * * * * * * * * * * * * * * * * * * * * * * * * * * * * * * * //

dimensions      [1 -1 -2 0 0 0 0];


internalField   uniform (0 0 0);

boundaryField
{
    symmetry
    {
        type            symmetry;
    }
    inlet
    {
        type            calculated;
        value           uniform (0 0 0);
    }
    orion
    {
        type            calculated;
        value           nonuniform List<vector> 
1990
(
(1.276548341 -0.003927350071 0.5982122364)
(0.08766322665 -0.002877817972 0.1228328201)
(1.156746893 -0.004191678855 0.572499688)
(0.07106221469 -0.009480507687 0.1065500288)
(0.9054373406 -0.005536626759 0.5019477718)
(0.04796315473 -0.01297035727 0.08106149793)
(1.159666366 0.0104733125 0.7488703905)
(-0.0002903588503 -7.898784424e-05 0.0004583028654)
(1.178136127 -0.06203259763 0.738723161)
(-0.0002950947573 -0.0001084154433 0.000506865059)
(1.146165372 -0.05597132505 0.7319272582)
(1.007720472 -0.04960125099 0.7077422889)
(-0.0003300017467 -0.0002272169881 0.000578901663)
(1.027213303 -0.09074874408 0.6885905733)
(1.263661005 -0.07375735764 0.680964989)
(0.002125744498 -0.00547762452 0.01069542819)
(1.44428313 -0.03015401461 0.6268401341)
(0.1667618041 -0.06575478928 0.1638153458)
(1.561243153 0.003563868386 0.878992574)
(-0.0001710741317 -2.402510946e-05 0.0002765435263)
(-0.0001799927184 -9.415223702e-05 0.0002976122414)
(1.320172132 -0.06560504967 0.8290060425)
(-0.0001898061313 -0.0001126006879 0.0003080471759)
(1.324574589 -0.1338735859 0.7982685064)
(-0.0001935741499 -0.000220267907 0.0003074820715)
(1.296701471 -0.1143047587 0.7944209761)
(-0.0002386259465 -0.0007398274948 0.0005183353354)
(1.292660861 -0.07525257298 0.7422773603)
(1.541485708 -0.01460343105 0.6297134992)
(0.2218562766 -0.09945662781 0.1817271261)
(1.712842385 0.0020235133 0.9657606072)
(1.671340417 -0.07253756296 0.9471476744)
(1.685956586 -0.08100087063 0.937313612)
(-0.0001366211785 -0.0001274211161 0.0002306260605)
(1.712392181 -0.1467992083 0.9229529145)
(-0.000141930516 -0.0001397453911 0.0002395800413)
(1.503531135 -0.2025849342 0.8520130755)
(-0.000167250123 -0.0004648229509 0.000357734075)
(1.565635812 -0.1760176566 0.8227121349)
(1.338607021 -0.2237382046 0.7763278057)
(-0.000104693793 -0.001485893319 0.0005501097884)
(1.672614486 -0.02620039283 0.7356125888)
(0.01311633237 -0.02180970537 0.01676802657)
(1.938768005 -0.1774015832 0.9872178993)
(-0.0001112498033 -0.0001413817545 0.0001729208384)
(1.875109559 -0.1609672605 0.9824798874)
(-0.0001252160084 -0.0002744351871 0.0002883478454)
(1.708929757 -0.2249950892 0.9376205968)
(-0.0001199333907 -0.0004970083066 0.0002661746591)
(1.74922021 -0.2674528188 0.860180944)
(-6.977676773e-05 -0.001025415445 0.00034655807)
(1.494092395 -0.2513512317 0.8198306785)
(1.779504471 0.000733497056 0.7655054679)
(-9.003949904e-05 -9.76371993e-06 0.0001520368079)
(-8.787180682e-05 -3.704413271e-05 0.0001477881895)
(2.162723839 -0.1913852231 1.043774777)
(-9.370092073e-05 -0.000250663493 0.0002135255435)
(2.206197704 -0.2667138117 1.018963768)
(-7.871501658e-05 -0.0004979741591 0.0002015761926)
(1.932160169 -0.293614444 0.9412430838)
(1.784168667 -0.2591461467 0.8285114464)
(0.7007200834 -0.2528243798 0.3125523696)
(0.05066318472 -0.05613258061 0.0253420838)
(-7.69965799e-05 -1.44898332e-05 0.0001380092897)
(-7.361091196e-05 -3.679975257e-05 0.0001341975426)
(-8.222291354e-05 -7.780875195e-05 0.0001433840529)
(2.507707003 -0.2127907676 1.121749685)
(-8.087460439e-05 -0.0001968155801 0.0001491013045)
(2.51127107 -0.2918544788 1.067831444)
(-3.159376207e-05 -0.0006172584285 0.0002571224481)
(2.199699123 -0.3536110218 1.008575278)
(2.159491126 -0.2889403443 0.9389717641)
(1.987401146 -0.3543562675 0.9087030798)
(0.002800387007 -0.007533732779 -0.0008931089673)
(0.06435318076 -0.07082240594 0.01727858429)
(-7.324760374e-05 -4.143267869e-05 0.0001219969953)
(-7.374273024e-05 -7.997238808e-05 0.0001524588564)
(2.791937138 -0.2313128951 1.187938799)
(2.768506177 -0.3000977409 1.101933007)
(7.664724038e-06 -0.0006741430347 0.0002494405797)
(2.437571829 -0.3930813353 1.037474485)
(2.442440222 -0.3391588623 0.9762552188)
(2.253249913 -0.4059539669 0.9447780166)
(0.001210452941 -0.003699742032 -0.0002408828514)
(2.506885177 0.07638677728 0.9411502167)
(0.003645580384 -0.007922128613 -0.001374382719)
(1.020676513 -0.3492848384 0.2664298434)
(0.1220325378 -0.1108475651 0.02096141553)
(-6.286013704e-05 -8.031729763e-05 0.0001274566441)
(3.129392408 -0.2742446057 1.209436465)
(-6.319889056e-05 -0.0001283435278 0.0001321713647)
(3.083640514 -0.2109267616 1.191731846)
(2.970743106 -0.2860189834 1.095927739)
(-3.934026498e-05 -0.0003825739843 0.0001656487533)
(5.100200867e-05 -0.0007674254458 0.0001889480751)
(2.736418177 -0.4307581488 1.072830923)
(0.0007486207613 -0.002477989789 -0.0001209657515)
(2.512928578 -0.4394789905 0.9883110292)
(0.001737383255 -0.004284844728 -0.0008013634143)
(1.414458566 -0.4086407323 0.3150743045)
(0.01596145485 -0.02365923479 -0.006838522925)
(3.426735852 -0.013374045 1.257265866)
(3.396537395 -0.1307261798 1.236802195)
(3.389518041 -0.1237893938 1.207956118)
(3.404637114 -0.2539912757 1.170220337)
(-6.176256242e-05 -0.0001246591609 0.0001274978849)
(3.385615668 -0.2210394888 1.124637005)
(-1.581716462e-05 -0.0004190446861 0.0001567119805)
(0.0001422252969 -0.0009535050974 0.0001276747543)
(3.107465513 -0.4150317733 1.070352392)
(0.000558201856 -0.001964109481 9.177955876e-05)
(0.001261772743 -0.003293352655 -0.0003114915754)
(2.838025178 -0.4194267942 1.043645752)
(0.002755877903 -0.00554172741 -0.001123009762)
(0.0102513239 -0.01449704586 -0.005477083481)
(1.593708972 -0.4488956983 0.2908177624)
(0.03001913223 -0.03562738767 -0.01492086001)
(3.755349595 0.02308555179 1.147565215)
(-5.270999408e-05 -4.862046228e-06 0.0001018529502)
(3.745698876 -0.1347402631 1.104619782)
(-5.020955452e-05 -4.335535964e-05 9.496047228e-05)
(3.586957998 -0.104994459 1.147923313)
(-5.099025513e-05 -0.0001581524398 0.0001316586495)
(4.910499662e-06 -0.0004901254988 0.0001495201698)
(3.460406612 -0.3293382382 1.092611443)
(0.0002601532221 -0.001188453832 6.295006737e-05)
(0.0009665198342 -0.002606316829 -0.0001362860469)
(0.002015278295 -0.004312453421 -0.0005662513378)
(3.109853626 -0.2113965545 1.050188476)
(0.006925176155 -0.01054805584 -0.003273211886)
(0.02047758716 -0.02345262688 -0.01127581994)
(0.6987920616 -0.3180197262 -0.02784746751)
(0.05620961106 -0.05483140916 -0.02972631484)
(-5.002641592e-05 -4.971869772e-06 9.00756611e-05)
(-4.502306153e-05 -3.957255464e-05 8.440544967e-05)
(-4.359289713e-05 -7.809583537e-05 9.315322588e-05)
(3.782910703 -0.2323669433 1.182915735)
(-1.044156914e-05 -0.0003321284613 0.0001108320998)
(3.740475511 -0.3322039794 1.11119661)
(7.506228458e-05 -0.0006518775312 0.0001218631718)
(0.0004936300116 -0.001616037843 -5.973252122e-05)
(0.001597025827 -0.003489245632 -0.0004738860456)
(3.526459906 -0.351112262 1.071829208)
(0.006090808815 -0.009298263619 -0.002504039506)
(0.01763171936 -0.0204173193 -0.008721904349)
(2.567784138 -0.5882403343 0.2633617526)
(0.03135084428 -0.03191584756 -0.01845315163)
(4.207089323 -0.01526332467 1.172292712)
(4.189681276 -0.1406603838 1.156870398)
(4.16696263 -0.086152305 1.13817268)
(-4.383645943e-05 -8.436772285e-05 8.77105123e-05)
(4.066435996 -0.2653051078 1.088068694)
(3.766042479e-05 -0.0004548789565 0.0001264261552)
(0.000209889041 -0.0009740603417 6.987433411e-05)
(3.928699229 -0.3367295629 1.194672032)
(0.001041512802 -0.002547754406 -0.0002762483542)
(3.808974787 -0.3170584835 1.087422476)
(0.008865149932 -0.01191321033 -0.004291452266)
(3.342125861 -0.5837457507 0.4696787465)
(0.03951062699 -0.03575306343 -0.0202998925)
(1.222990428 -0.4230001206 -0.1303599535)
(0.185431102 -0.1153032397 -0.09742818599)
(0.09170348921 -0.06906325179 -0.0535615194)
(-3.90768854e-05 -9.205826767e-05 8.310964671e-05)
(4.360609012 -0.2260020181 1.181480687)
(0.0001207394424 -0.0006989521147 0.0001147224273)
(4.20478423 -0.2817410812 1.16451573)
(0.0005197262691 -0.001552886576 -2.900644497e-05)
(4.090660191 0.04867791102 1.277404884)
(0.008224557873 -0.0108678403 -0.004167110009)
(3.624323792 -0.569320488 0.2944160882)
(0.03689154001 -0.03327340078 -0.01959606207)
(0.02317190353 -0.02353533376 -0.01226077209)
(1.733747491 -0.5190326378 -0.2373379368)
(0.105367839 -0.07104267163 -0.06400416245)
(0.0886588309 -0.06139051469 -0.05246266418)
(4.576989718 0.0003404261958 1.176224792)
(-1.112780454e-05 -2.247010523e-06 -6.042887518e-06)
(4.604220996 -0.07020427372 1.139700047)
(4.569910109 -0.07333091696 1.130453394)
(4.529136082 -0.1259728416 1.168959184)
(0.007975350047 -0.01030095712 -0.004008805201)
(4.007607136 -0.416163833 -0.008989716239)
(0.03462675672 -0.03097705433 -0.01951925291)
(0.02156883176 -0.02184412125 -0.01185605826)
(2.142370434 -0.4721379094 -0.333632061)
(0.1828970419 -0.09750160466 -0.1121843413)
(0.1529254202 -0.08496806152 -0.09187065368)
(0.1386258354 -0.08028149647 -0.0768017543)
(0.1040582722 -0.06632074047 -0.05794466337)
(0.0002465449971 8.530097069e-06 -0.0007092271286)
(0.0002335120424 2.373394894e-05 -0.0006757008853)
(0.0004726977155 0.0001454770641 -0.001145575865)
(4.718124028 -0.4026554555 0.2037989019)
(0.006741502596 -0.008891251578 -0.003361274152)
(2.730887565 -0.4780873724 -0.4878489185)
(0.02471614482 -0.02340021722 -0.01360123402)
(0.9081172174 -0.184635818 -0.359419293)
(0.3625857205 -0.1278043198 -0.2116529478)
(0.2895189586 -0.1139454461 -0.1753888836)
(0.2868472507 -0.1147291513 -0.1592508169)
(0.2586566953 -0.1118627358 -0.1375268973)
(0.1912591128 -0.09619560027 -0.1060023983)
(0.1417642845 -0.08000297018 -0.08068543651)
(0.1024664473 -0.06493383095 -0.05858516826)
(0.0792292297 -0.05427599067 -0.04471511002)
(0.0002907143012 9.352590684e-07 -0.000856473879)
(0.0002738204066 2.782644847e-05 -0.0008336537522)
(0.0002860169039 5.072054713e-05 -0.0008710419455)
(3.452323784 -0.1958797388 -0.6791626718)
(0.0004771132609 0.0002030196119 -0.001256671726)
(0.005676566007 -0.007607317071 -0.002075793737)
(1.102332206 -0.1648214911 -0.4196163724)
(0.6040334952 -0.1413267872 -0.2997547972)
(0.5454602696 -0.1343326179 -0.2849103684)
(0.03024209944 -0.02629264828 -0.01528156714)
(0.4587838861 -0.1279312538 -0.2379858197)
(0.4163612465 -0.1265223095 -0.2141506093)
(0.314722272 -0.1189007443 -0.1719705605)
(0.2528345451 -0.1052914111 -0.144009965)
(0.2173677328 -0.09504035105 -0.1231537871)
(0.1823452138 -0.08691312874 -0.1007865363)
(0.1507832164 -0.07853739643 -0.08131844703)
(0.8803978166 -0.02820984647 -0.4409828494)
(0.7631579656 -0.03204515236 -0.4052576521)
(0.0003543526359 -4.277387318e-07 -0.001140500356)
(0.8517571699 -0.02549536514 -0.4312845435)
(0.7630802965 -0.02032706064 -0.4018542355)
(0.0003578863266 5.44741434e-05 -0.001138451703)
(0.8025708318 -0.05760288859 -0.4079299222)
(0.745380085 -0.08402002584 -0.3897503515)
(0.7292920064 -0.07822674173 -0.3863606298)
(0.0003488347658 7.275690337e-05 -0.001139456472)
(0.717443091 -0.0768568803 -0.3736139609)
(0.7023778516 -0.08394900835 -0.3644302526)
(0.7027062787 -0.1060198704 -0.3573742007)
(0.0003775773878 0.0001291868011 -0.001218783584)
(0.5317123027 -0.1113045767 -0.2865865262)
(0.5392955638 -0.104189833 -0.2829841862)
(0.5088868956 -0.1173318303 -0.2639199629)
(0.03323500365 -0.02752662281 -0.01489237254)
(0.3111191529 -0.1020111438 -0.1718479921)
(0.2493989681 -0.09508702503 -0.1410719401)
(0.1941240407 -0.08549428693 -0.1108574978)
(0.1478729977 -0.07396051136 -0.08555097745)
(0.7006621676 0.005715424294 -0.3737752218)
(0.6789184915 -0.02020007698 -0.3630701928)
(0.0004523459459 8.263493385e-07 -0.001607457343)
(0.6598493256 -0.05466176426 -0.3556614594)
(0.6745133116 -0.03842509299 -0.3576876918)
(0.6392706617 -0.04915894251 -0.3422242451)
(0.0004512889701 6.889830787e-05 -0.001614670306)
(0.5950436331 -0.06817278122 -0.3268553253)
(0.5831812461 -0.08631514914 -0.3078170361)
(0.5776690969 -0.07725485915 -0.3058329711)
(0.0004599676812 0.000125087586 -0.001713488741)
(0.47896071 -0.09033151574 -0.2604777895)
(0.4280828683 -0.1018893403 -0.2294809191)
(0.4042232601 -0.1042421531 -0.2112018837)
(0.0003842054587 0.0003715372603 -0.00161314689)
(0.5990239523 -0.01195146841 -0.3156986293)
(0.6076165241 -0.007392931847 -0.3127558564)
(0.5773826383 -0.01544226246 -0.2942994559)
(0.0005638143465 4.390782067e-05 -0.002640078268)
(0.5803835756 -0.05084960537 -0.2966192554)
(0.5403744002 -0.0554090588 -0.2737883855)
(0.0004683191767 0.0001840659044 -0.002533875011)
(0.4732844638 -0.08016050003 -0.2403783414)
(0.4316018397 -0.08388252313 -0.2117946385)
(0.3656073386 -0.0810732788 -0.1707868899)
(0.0004412560846 0.0001725224544 -0.002694034373)
(1.058489253 -0.005463690168 0.6700697538)
(1.012435661 -0.01044307451 0.6941249486)
(1.072648024 -0.003723704914 0.6691524721)
(0.5042404806 -0.003429603303 0.3759771849)
(1.236374704 -0.003113924027 0.5916167427)
(0.4828747341 -0.009615069033 0.3652550824)
(0.08003187852 -0.005250095227 0.1158084938)
(0.0004625226677 -0.0003503026258 0.008972318879)
(0.0004762142061 -0.0005168878049 0.009073053031)
(1.111258492 -0.01716786551 0.666669165)
(1.022042673 -0.04271462244 0.6882119856)
(1.171160564 -0.01451233165 0.665276294)
(0.4374833926 -0.01758289563 0.3436533911)
(1.037055752 -0.005699628173 0.5452093084)
(0.3903518433 -0.01685143529 0.3171166031)
(0.05474049728 -0.008870682065 0.08995406289)
(0.0005879935518 -0.001268704824 0.009312553773)
(0.0006417298754 -0.001397263999 0.009333510681)
(1.215637782 -0.05362909491 0.6543810608)
(1.236404561 -0.03504273233 0.6557487841)
(0.3030347382 -0.04070543445 0.2684316396)
(0.2432251273 -0.02850910939 0.2339359981)
(0.9517237886 -0.08018769534 0.5307838677)
(1.400059883 -0.045880412 0.645727657)
(1.362971173 -0.03469034787 0.6199007412)
(0.2070485048 -0.03546928902 0.2038211647)
(0.5816372478 -0.05828372443 0.3971705073)
(0.009059744741 -0.008712294697 0.02649403676)
(1.098747344 -0.00825586556 0.5536244368)
(0.07106920783 -0.02572482932 0.1012413802)
(0.3096180227 -0.05437088057 0.2606691556)
(1.235580063 -0.0003989696735 0.7889585445)
(1.301909852 -0.005197755765 0.8120198743)
(1.246978967 -0.005925850341 0.7873822643)
(1.187545566 0.0009610296155 0.7448373122)
(1.031395256 -0.002487647379 0.7130689405)
(1.245485864 -0.05710759466 0.7813154305)
(1.307279234 -0.04829901621 0.8006556159)
(1.239015249 -0.05558566416 0.7819224353)
(1.032435346 -0.05693612484 0.7122179128)
(1.148047717 -0.06314764818 0.7386133116)
(1.058635778 -0.05195448984 0.7181750131)
(1.206562504 -0.04163184778 0.7720393851)
(1.20087095 -0.07060410009 0.7594301304)
(1.116997208 -0.05590672765 0.7187406567)
(1.110544267 -0.06997741807 0.7174094594)
(1.112438781 -0.07529578535 0.7553839128)
(1.015912364 -0.07124654139 0.6935156962)
(-0.0004234264258 -0.0008987247081 0.001871843567)
(1.217174667 -0.1225055879 0.7562282347)
(1.247849904 -0.1253532066 0.7586412736)
(1.105314489 -0.1041460273 0.7130026119)
(1.10519014 -0.09934391323 0.7071803105)
(1.13315662 -0.1117268382 0.7403915446)
(1.12883538 -0.04737450041 0.6988728927)
(1.226373275 -0.1462339292 0.7334944454)
(1.083121986 -0.1387819219 0.7150401772)
(1.426859179 -0.06011881907 0.6680204963)
(0.949979086 -0.06780402342 0.5129003596)
(0.02487701461 -0.0205330494 0.04591638828)
(1.231030061 -0.07670263331 0.7308806431)
(1.42958394 -0.07951332103 0.7030471921)
(0.6730164693 -0.09172657176 0.4234653306)
(1.117774045 -0.0308641751 0.559778217)
(0.449565763 -0.07398988757 0.3234932164)
(0.01091917334 -0.01339654426 0.02644988584)
(0.08916101973 -0.04035412482 0.1107126)
(0.003452084084 -0.00829435445 0.01175953016)
(1.486867744 -0.02777354752 0.6499355744)
(1.180506306 -0.03896340246 0.5715221634)
(0.5132848723 -0.08966053491 0.3427986562)
(0.1190673142 -0.05640271047 0.1282335701)
(1.582126695 -0.007635510931 0.9188487067)
(1.588874009 -0.004472622675 0.9184524225)
(1.397006965 0.004678831551 0.8543062267)
(1.570607063 0.0009102934472 0.8704523796)
(1.400170075 -0.008933976694 0.8528260309)
(1.600619437 -0.06745615242 0.9172695346)
(1.600463095 -0.05810577296 0.9162439518)
(1.393207917 -0.05483778031 0.8482949028)
(1.383463396 -0.06739242769 0.8432606178)
(1.493864873 -0.06997659666 0.886778755)
(-0.0001610095571 -9.068543131e-05 0.0002922224864)
(1.631631099 -0.05935015661 0.9018956849)
(1.647549338 -0.07490586216 0.8870947665)
(1.402518772 -0.06688817728 0.838830183)
(1.403261799 -0.08377126769 0.8351174043)
(1.46013618 -0.05898859242 0.881409694)
(1.449479747 -0.08901478942 0.870442412)
(1.334966915 -0.08098383232 0.8112481309)
(1.406617765 -0.1231094047 0.8250766696)
(1.454326149 -0.1344766651 0.8670220341)
(1.517014435 -0.1461020347 0.8619975095)
(1.30012623 -0.1178859909 0.8041825354)
(1.420190779 -0.1328174528 0.8360654895)
(1.440489979 -0.161118909 0.8281657413)
(1.270019031 -0.1473104995 0.7786457025)
(1.229251374 -0.1542923273 0.7633504754)
(1.448083598 -0.1939822896 0.808753721)
(1.412205821 -0.1825535467 0.8045781173)
(1.226140795 -0.1657470465 0.7609967832)
(1.242101605 -0.1520046557 0.7483664418)
(1.325622289 -0.1815043015 0.7859396276)
(1.183751428 -0.1585094454 0.7484627316)
(1.353940792 -0.195395087 0.7483213324)
(1.281660168 -0.1931659381 0.7416222664)
(1.495486634 -0.07639132928 0.6993983568)
(1.466443841 -0.08961717901 0.7476387411)
(1.617561094 -0.02969873957 0.6984936)
(0.4841477916 -0.1209428772 0.3003557132)
(1.087856127 -0.1135291646 0.5373780142)
(0.1128594702 -0.06622801404 0.1120575119)
(1.887076108 0.008800896232 0.9697802807)
(1.950379703 -0.004023440185 1.024184183)
(1.844861694 -0.008329717929 1.012765541)
(1.695749012 0.002999225832 0.9607764158)
(1.835976072 -0.08086958927 0.9902514177)
(1.929700547 -0.06549574875 1.006190705)
(1.806683656 -0.08193504682 0.9897135292)
(1.675459803 -0.07760542024 0.946823826)
(1.781993191 -0.07243084586 0.9859581866)
(1.763812809 -0.09654254106 0.9780902788)
(1.699333359 -0.09740217213 0.9339162187)
(-0.0001371370095 -0.0001294528005 0.0002601666498)
(1.753450949 -0.1687842835 0.9561074417)
(1.789521541 -0.1544776667 0.9596048104)
(1.718372521 -0.1319641007 0.9173881865)
(1.575673115 -0.1487849723 0.8991116513)
(1.866161058 -0.1624511397 0.9395061812)
(1.563038485 -0.1843188962 0.8760957814)
(1.714904353 -0.1647247261 0.948065511)
(1.732919967 -0.2015761705 0.9129021428)
(1.486037801 -0.1836535843 0.874945799)
(1.593773578 -0.2081819494 0.8654632067)
(1.725927617 -0.229995663 0.9101336006)
(1.742677003 -0.2194176899 0.896372942)
(1.632530951 -0.2322486048 0.8981476514)
(1.507857839 -0.1853365675 0.8507462285)
(1.652938961 -0.2063179596 0.8717846092)
(1.661410754 -0.2596361193 0.8405786485)
(1.366412681 -0.2194837989 0.7756253089)
(1.562856527 -0.2702308308 0.8358952387)
(1.42741364 -0.2250972606 0.7623281747)
(1.529979064 -0.2276703096 0.7963097499)
(1.450561572 -0.2416221188 0.7960275658)
(1.470311297 -0.1435937595 0.7722182874)
(1.538784607 -0.1703321549 0.7787373337)
(1.715984346 -0.016186419 0.757666245)
(0.788346627 -0.1446565365 0.4018693544)
(1.440138614 -0.07653465139 0.6332195427)
(0.2929959196 -0.1382816918 0.1923957442)
(0.07731199174 -0.06206171549 0.0653637114)
(2.012111907 -0.0009473768847 1.049451299)
(2.202957524 0.00814816803 1.095406235)
(2.226125684 -0.00479091101 1.078294278)
(-0.0001041782176 -9.386735974e-06 0.0001897263277)
(-9.851848114e-05 -2.484221752e-05 0.0001677154682)
(2.020813732 -0.09074529522 1.032819737)
(2.214293484 -0.1008180151 1.070796497)
(2.181107282 -0.09816654168 1.071127538)
(2.061532737 -0.1039745555 1.012752974)
(2.127095071 -0.1045340506 1.059685557)
(1.969795806 -0.1207116435 1.018966701)
(2.032141369 -0.17214563 1.041091787)
(1.899013064 -0.1669492831 0.9931732231)
(2.056485444 -0.1758607579 1.015318476)
(2.080130681 -0.2169853621 1.002598915)
(1.880267949 -0.2044283365 0.9605502818)
(1.840974102 -0.2205200739 0.9434336593)
(1.986766036 -0.2496438345 0.9822894126)
(1.925608798 -0.2020106706 0.9184181963)
(2.022601815 -0.2420092451 0.9768911985)
(1.89592487 -0.3106254154 0.935118381)
(1.681886262 -0.2788363119 0.8922665979)
(1.851413635 -0.2888410288 0.9027571829)
(1.620270607 -0.2703763761 0.8725369858)
(1.613793388 -0.239590209 0.8372135917)
(1.75217684 -0.2922968864 0.8981446158)
(1.665210122 -0.2316212121 0.8070008119)
(1.637575279 -0.3017814106 0.8217807383)
(1.636973387 -0.1763719457 0.8026875296)
(1.867549063 -0.08496562058 0.8322911316)
(1.880355106 0.01844448058 0.7620814025)
(0.884892318 -0.2021509489 0.394073206)
(1.353169898 -0.1715702836 0.5839675285)
(0.1287629475 -0.09432154935 0.07986111688)
(2.259752768 0.003413201742 1.122914258)
(2.249241217 -0.01322708238 1.117172837)
(2.443486487 -0.01643358881 1.126013734)
(2.27085076 -0.1082970282 1.109000123)
(2.439106189 -0.1202845301 1.128951136)
(-9.597898387e-05 -7.698646482e-05 0.0001776359279)
(2.325235045 -0.09344823813 1.10019942)
(2.357092265 -0.1214649853 1.07433215)
(2.436025558 -0.1169554485 1.13634763)
(2.439484369 -0.1371489792 1.123272177)
(2.322557292 -0.1934028428 1.057893634)
(2.345476054 -0.1786451806 1.035931337)
(2.425496975 -0.1979894888 1.107469928)
(2.425400365 -0.1772614801 1.087579849)
(2.152875533 -0.2107899463 1.071278601)
(2.307008792 -0.1953079281 1.113524017)
(2.287655749 -0.2581489509 1.077478413)
(2.178895173 -0.2450473503 1.034434153)
(2.319691619 -0.2813748441 1.0588643)
(2.061919377 -0.2342590147 1.019963037)
(2.040102455 -0.2995898934 0.9492827658)
(2.226143663 -0.3125329729 0.973333225)
(1.954094067 -0.3125807042 0.9823676187)
(2.063374472 -0.3534677845 0.9917253941)
(2.077593548 -0.320981559 0.9544551079)
(1.990387663 -0.2741518289 0.9133576864)
(1.819979213 -0.3000721493 0.9297025033)
(1.814182106 -0.277105164 0.9018520007)
(1.813017483 -0.3132936596 0.8293425758)
(2.02180205 -0.3294854681 0.934108502)
(1.982527161 -0.3500340113 0.8609252712)
(1.711141738 -0.318393551 0.8587692638)
(1.88160826 -0.3489733694 0.878019123)
(2.108787315 -0.1113231509 0.8850569654)
(2.049921304 0.01895387008 0.8534980787)
(1.679770498 -0.1612346439 0.661358425)
(0.6022041098 -0.2544847221 0.2233837708)
(0.2328772072 -0.150069317 0.09159813467)
(2.569987043 -0.01826469161 1.148520253)
(2.653221584 0.0006604115591 1.180650078)
(-7.725976731e-05 -2.371882819e-05 0.0001383786016)
(2.578096349 -0.1155557508 1.149009683)
(2.575809347 -0.1052778044 1.148483602)
(2.713438684 -0.1269650665 1.175504113)
(2.563065936 -0.1041554513 1.152021619)
(2.548834208 -0.1429318099 1.139509761)
(2.766999723 -0.1123037492 1.16445622)
(2.783047139 -0.1524534103 1.139685482)
(2.582435495 -0.2136966327 1.101861757)
(2.784305394 -0.2006850968 1.125953976)
(2.613893178 -0.2267688681 1.175089605)
(2.612245792 -0.2774763855 1.135274586)
(2.534128287 -0.277025285 1.080453434)
(2.613373461 -0.293725962 1.114454531)
(2.552879981 -0.2415749978 1.048989928)
(2.561000938 -0.2573813221 1.049270098)
(2.34466086 -0.2647188337 1.066803305)
(2.284203765 -0.332092226 1.001778714)
(2.402012626 -0.3351422606 1.022611496)
(2.297248134 -0.3737220826 1.041763339)
(2.336633337 -0.3404934748 0.9991485107)
(2.161079459 -0.3121609789 0.983328352)
(2.020533133 -0.3574393086 0.8968979472)
(2.202704276 -0.4154606195 0.939008814)
(2.100931039 -0.3859775223 0.9342383481)
(2.125108865 -0.3236226442 0.9036145871)
(2.028983156 -0.2295145307 0.8923823696)
(2.071094436 -0.08279835851 0.840712106)
(1.296903124 -0.282460591 0.4283424183)
(2.233062147 -0.009493362663 0.913493972)
(1.612399727 -0.2667181506 0.5434557262)
(0.8614851564 -0.2842795515 0.3103098109)
(2.893189385 0.0008009191175 1.154900713)
(3.01120294 -0.01275387534 1.204417163)
(3.009750344 -0.01383560972 1.200717852)
(2.866474713 -0.1285802465 1.173572592)
(3.015465329 -0.1303190774 1.201010601)
(3.040914724 -0.1194373576 1.199726643)
(-6.688709207e-05 -4.792751191e-05 0.000127314935)
(2.846263791 -0.1112338237 1.187119292)
(2.827888923 -0.1497879597 1.175201272)
(3.110230021 -0.1278681527 1.159022289)
(2.803491453 -0.1860262244 1.105676963)
(2.99116351 -0.231215751 1.094417566)
(2.986242235 -0.2318776878 1.163305966)
(2.97611899 -0.2866555628 1.140325651)
(2.776055121 -0.2799957925 1.133454722)
(2.980777633 -0.304472363 1.108366831)
(2.640994223 -0.3248782856 1.139299524)
(2.756251671 -0.3211211974 1.148966869)
(2.594858239 -0.3595652941 1.010944048)
(2.708718618 -0.2825770433 1.114734986)
(2.661878709 -0.3675427579 1.049961141)
(2.602342462 -0.3877496555 1.073045374)
(2.606648151 -0.3535518566 1.027401348)
(2.412661306 -0.3568074823 1.014216483)
(2.417369589 -0.4374785345 0.9945684109)
(2.391723248 -0.3597412987 0.957904402)
(2.250563967 -0.3343706921 0.9278994024)
(1.922843807 -0.237184149 0.6696191572)
(2.043948055 -0.2606923329 0.6532814919)
(3.156741846 -0.007068952077 1.18638824)
(3.375570637 0.01172994326 1.152143907)
(3.385968153 -0.002790373992 1.120426647)
(3.217272438 -0.1430730252 1.185964943)
(3.367886585 -0.1237576004 1.114165227)
(3.33458961 -0.1197803996 1.125097369)
(3.200493716 -0.1377718776 1.092958146)
(3.227984134 -0.1727993981 1.242664225)
(3.222851092 -0.2540824771 1.212706665)
(3.274152799 -0.2547953725 1.208313329)
(3.097188382 -0.2452264527 1.19858469)
(3.365888095 -0.2090434654 1.168791566)
(3.278716203 -0.2489261274 1.060086432)
(3.048101862 -0.2727996477 1.176726848)
(2.919528439 -0.3183712569 1.165306444)
(3.094159049 -0.3722883462 1.180348107)
(3.027702507 -0.3309689099 1.115143974)
(2.913507457 -0.2794678226 1.085091345)
(2.790262951 -0.3643899983 0.9795252268)
(2.956866198 -0.4099434718 1.048799678)
(2.870407283 -0.3620007787 1.005006431)
(2.785556909 -0.3904236594 1.023038612)
(2.655615992 -0.4223132878 0.9424070314)
(2.79705692 -0.4211904957 0.9953428721)
(2.712987445 -0.4229578511 1.019249612)
(2.705852922 -0.3120600263 1.006564846)
(2.536205579 -0.3466175471 0.9690576627)
(2.208614328 -0.267348685 0.659934345)
(2.32743924 -0.3231856198 0.6382040452)
(0.7882545611 -0.3516974111 0.1422494992)
(3.589859495 0.01579430766 1.212832536)
(3.569358999 -0.0007326518312 1.220977425)
(3.415709567 -0.007434257304 1.248449539)
(3.559756997 -0.1381442873 1.208164025)
(3.573879271 -0.128551159 1.197860803)
(3.390450852 -0.1067368395 1.232547384)
(3.575870439 -0.1271312194 1.169510576)
(3.55232884 -0.1521813174 1.167165597)
(3.391226615 -0.1669503124 1.190069697)
(-6.174231187e-05 -0.000128114143 0.0001402287753)
(3.512841536 -0.2319464789 1.114234016)
(3.484281187 -0.2123406174 1.108174056)
(3.421498871 -0.2619851773 1.181301346)
(3.330605514 -0.3125448441 1.204688864)
(3.363428313 -0.311957778 1.177810502)
(3.207488004 -0.3056843168 1.107861946)
(3.388787932 -0.3432413175 1.148921364)
(3.31257649 -0.2942126798 1.062955661)
(3.300768758 -0.3566399829 1.13874938)
(3.272948989 -0.4193498724 1.0658374)
(3.025161536 -0.4328884175 1.131190863)
(3.241563623 -0.4253920434 1.009633841)
(2.866648051 -0.3947766502 0.9594316146)
(3.251052417 -0.380977063 1.062610282)
(2.977623974 -0.3643037641 1.006560552)
(2.731174138 -0.1653620157 1.022684266)
(2.834454773 -0.01366831616 1.104800251)
(2.283569267 -0.354186712 0.5507789667)
(2.825704425 -0.1918491337 0.9339963389)
(3.770751335 -0.0007268613574 1.107163132)
(3.858529721 -0.01038094764 1.240568967)
(3.661127449 -0.1168863411 1.132185619)
(3.840344227 -0.1377440721 1.232918591)
(3.80709626 -0.1066828451 1.221617585)
(-5.04390549e-05 -5.757438783e-05 9.175891748e-05)
(3.564507962 -0.1236342651 1.109278365)
(3.752614736 -0.1675782506 1.168652467)
(3.527326697 -0.2599887898 1.181491388)
(3.691061456 -0.2666595381 1.093395929)
(3.613965307 -0.2148685954 1.141562814)
(3.558320643 -0.2980911114 1.060146006)
(3.719384939 -0.2324318221 1.087563759)
(3.709353375 -0.3401612014 1.172298635)
(3.6657566 -0.3760921953 1.122268072)
(3.643316212 -0.321527951 1.122641103)
(3.432909827 -0.3826640104 1.149788392)
(3.60185836 -0.2853461218 1.085700574)
(3.3388318 -0.4020944997 1.003806836)
(3.340025683 -0.3746320842 1.08972955)
(3.485710082 -0.4217006297 1.11346129)
(3.475123293 -0.3400670189 1.031652277)
(3.403738654 -0.4153651333 1.106037979)
(3.321324655 -0.3736652507 1.053979274)
(3.140860807 -0.428344734 1.073962755)
(3.159004971 0.04036280701 1.163581841)
(3.163311828 -0.1336395796 1.006204488)
(2.859512394 -0.4356028951 0.5051208274)
(1.554233191 -0.4882333285 0.1244250584)
(3.923558946 0.0120783982 1.200312193)
(4.107668699 0.01706878069 1.11446457)
(4.15225339 0.01471243698 1.061747427)
(-4.729064871e-05 -2.77436634e-05 9.268777302e-05)
(3.918078341 -0.1543408733 1.188903335)
(3.960798154 -0.1314120808 1.160730507)
(4.120661725 -0.1445015904 1.0556088)
(4.059443589 -0.121996482 1.083211366)
(3.918684922 -0.1513950322 1.069354804)
(4.025785992 -0.1510488097 1.236991846)
(3.993208927 -0.1756821769 1.198699565)
(3.969844344 -0.2581114869 1.168329935)
(3.983043651 -0.2330460578 1.147421195)
(3.816540456 -0.2880017393 1.194605028)
(4.025774229 -0.2015338606 1.089820061)
(3.999688476 -0.2696047552 1.0283174)
(3.742629846 -0.3180000913 1.164730254)
(3.717766234 -0.2993416618 1.073024226)
(3.881047798 -0.3685319598 1.117064856)
(3.654739534 -0.384953584 1.057241637)
(3.838291262 -0.2972807162 1.052976513)
(3.806288247 -0.3261183657 1.007619422)
(3.721027531 -0.4238845648 1.117944011)
(3.663764909 -0.3493343248 1.095730882)
(3.672119306 -0.04677238639 1.209310459)
(3.384187009 -0.03085270489 1.149823798)
(3.553915477 0.01290468347 1.30544017)
(3.260289259 -0.3176407856 0.6338568365)
(3.579248355 -0.2392032991 0.817281991)