/*--------------------------------*- C++ -*----------------------------------*\
| =========                 |                                                 |
| \\      /  F ield         | OpenFOAM: The Open Source CFD Toolbox           |
|  \\    /   O peration     | Version:  v1706                                 |
|   \\  /    A nd           | Web:      www.OpenFOAM.com                      |
|    \\/     M anipulation  |                                                 |
\*---------------------------------------------------------------------------*/
FoamFile
{
    version     2.0;
    format      ascii;
    class       volVectorField;
    location    "3.2711";
    object      fD_N2;
}
// * * * * * * * * * * * * * * * * * * * * * * * * * * * * * * * * * * * * * //

dimensions      [1 -1 -2 0 0 0 0];


internalField   uniform (0 0 0);

boundaryField
{
    symmetry
    {
        type            symmetry;
    }
    inlet
    {
        type            calculated;
        value           uniform (0 0 0);
    }
    orion
    {
        type            calculated;
        value           nonuniform List<vector> 
1990
(
(0.9773324824 -0.00309752809 0.467984466)
(0.06905849091 -0.002249788029 0.09811495507)
(0.8860872253 -0.003306970852 0.4479477999)
(0.05599804592 -0.007646819827 0.08513994804)
(0.6943166792 -0.00471338711 0.3931312422)
(0.03791988497 -0.0103214671 0.06498529068)
(0.8904796442 0.00811323922 0.5873065046)
(-0.0002510374757 -6.85171688e-05 0.000396455708)
(0.9040069498 -0.04887368313 0.579447967)
(-0.0002543068089 -9.402606895e-05 0.0004337736665)
(0.8800070476 -0.0441442509 0.5739373046)
(0.7731179481 -0.03918488515 0.5546020232)
(-0.0002749161373 -0.0001870487025 0.0004877849218)
(0.7880192822 -0.07121897013 0.5396130558)
(0.9671965524 -0.05830401464 0.5325805163)
(0.001688197334 -0.004479883042 0.008813777465)
(1.103964515 -0.0245183379 0.490148517)
(0.1301705146 -0.05206069141 0.1300154657)
(1.197892997 0.002543446264 0.6892318876)
(-0.0001466441478 -2.146657581e-05 0.0002375935821)
(-0.0001551957257 -8.066264015e-05 0.0002543245913)
(1.012110398 -0.05173461655 0.6491267263)
(-0.0001668821207 -9.432837917e-05 0.0002633044355)
(1.015795816 -0.1048498241 0.6254822929)
(-0.0001673747722 -0.000192039077 0.0002630856479)
(0.9954723734 -0.09013580768 0.6231445565)
(-0.0002049754801 -0.000637369373 0.0004426493725)
(0.9896923369 -0.06010457774 0.580519782)
(1.178052469 -0.01311112519 0.4926969673)
(0.1727059992 -0.07862262936 0.1439609214)
(1.312385881 0.001414410656 0.7557764801)
(1.281835945 -0.05709558049 0.7419018295)
(1.29234844 -0.06377414009 0.7340182563)
(-0.0001165676282 -0.0001076392968 0.0001972585585)
(1.313919526 -0.1151849068 0.7230465896)
(-0.0001209479431 -0.0001195407933 0.0002053785395)
(1.152027592 -0.159108422 0.6670678071)
(-0.0001450618521 -0.0003956990797 0.0003052331439)
(1.199975696 -0.1389335286 0.644841744)
(1.024837549 -0.1756936648 0.6075440019)
(-9.486045988e-05 -0.001240953761 0.0004614863676)
(1.278132985 -0.02299408467 0.5747834825)
(0.01051829183 -0.01774697394 0.01365719959)
(1.485421068 -0.1391740224 0.7729155018)
(-9.401106955e-05 -0.0001190839262 0.0001444422974)
(1.437967997 -0.1268941393 0.7692851371)
(-0.0001114828925 -0.0002369387408 0.0002470481614)
(1.308545651 -0.1766896764 0.7335895519)
(-0.0001037427303 -0.0004273684203 0.0002342461517)
(1.340237531 -0.2104585241 0.6742134766)
(-6.262183874e-05 -0.0008702908906 0.0002915181433)
(1.143718016 -0.1976272862 0.6412775785)
(1.359881043 -0.002593308657 0.5985536741)
(-7.661219363e-05 -7.460875346e-06 0.0001278460798)
(-7.687930627e-05 -3.360663951e-05 0.0001278931769)
(1.658707142 -0.150516806 0.8173568631)
(-8.222326153e-05 -0.0002187311797 0.0001858347387)
(1.690310744 -0.209381506 0.7976926605)
(-6.759065945e-05 -0.0004203869327 0.0001728885671)
(1.479806933 -0.2307410719 0.7364359051)
(1.362969034 -0.204131454 0.6471482402)
(0.5375917576 -0.1987664345 0.2455459712)
(0.04014407358 -0.04514836822 0.02046045472)
(-6.653116121e-05 -1.22807819e-05 0.000119124126)
(-6.30489572e-05 -2.939609526e-05 0.0001107417372)
(-7.200939035e-05 -6.60727126e-05 0.0001231167281)
(1.921697232 -0.1671250781 0.8774776953)
(-7.12206211e-05 -0.0001685370504 0.0001284204595)
(1.92332531 -0.2290992228 0.8351462354)
(-3.034110478e-05 -0.0005222508968 0.0002164919873)
(1.684939194 -0.2777674416 0.7887327772)
(1.654218302 -0.2284772008 0.7353094937)
(1.519762307 -0.2782453177 0.7102077088)
(0.002269163857 -0.006207879877 -0.0007217021025)
(0.05100963955 -0.05690787848 0.01399533995)
(-6.35965202e-05 -3.581371702e-05 0.0001049269506)
(-6.274647426e-05 -6.712873859e-05 0.0001276730066)
(2.139395283 -0.181495012 0.9288718304)
(2.120993322 -0.2360909575 0.8619145604)
(3.635245788e-06 -0.0005679792708 0.0002103517219)
(1.867523441 -0.309109822 0.8115116446)
(1.8703173 -0.2675646205 0.7642137808)
(1.723297046 -0.3192837312 0.7384932102)
(0.0009945384377 -0.003095290665 -0.0002021620499)
(1.91012207 0.05380950011 0.7340990148)
(0.002978268689 -0.006562959853 -0.001135770571)
(0.7810034674 -0.274712912 0.2096426892)
(0.0959412633 -0.08843677933 0.01686624139)
(-5.525770949e-05 -7.098702056e-05 0.0001094623995)
(2.399416877 -0.2142364436 0.9453988806)
(-5.613667327e-05 -0.0001099720819 0.0001166069248)
(2.362719728 -0.1667295465 0.9315051435)
(2.275053644 -0.2258321057 0.8576469)
(-3.2835687e-05 -0.0003287883987 0.0001420285723)
(3.896919505e-05 -0.0006576638678 0.0001633096317)
(2.096724549 -0.3381094556 0.8389440881)
(0.0006182454099 -0.002071275824 -9.9529003e-05)
(1.921100196 -0.3458673554 0.7716290249)
(0.001440589651 -0.003583296345 -0.0006764711804)
(1.07929407 -0.3212390035 0.2475496105)
(0.01284876512 -0.01929203272 -0.005573580739)
(2.627739017 -0.01064760359 0.982496806)
(2.605443922 -0.1025643915 0.9675471731)
(2.600620249 -0.09782513154 0.9450948556)
(2.61167748 -0.1998402795 0.91580272)
(-5.448501981e-05 -0.0001072938945 0.0001119260328)
(2.591986391 -0.1749104031 0.879453407)
(-1.378986865e-05 -0.0003640211035 0.0001378903039)
(0.000118831516 -0.0008136565109 0.0001094723588)
(2.378499735 -0.327075287 0.8368772814)
(0.0004611405625 -0.001656359259 7.659565629e-05)
(0.001050217172 -0.002767433733 -0.0002588372331)
(2.170449746 -0.3313044444 0.8147822429)
(0.002247421397 -0.004582312294 -0.0009412641073)
(0.008338067058 -0.01193281527 -0.004497069081)
(1.216775594 -0.353143278 0.2287580398)
(0.02400979105 -0.02890926381 -0.01204892813)
(2.878965437 0.01781517658 0.8978587312)
(-4.670520613e-05 -4.679926776e-06 9.107104868e-05)
(2.871075696 -0.1056376033 0.864647582)
(-4.22748486e-05 -3.888787192e-05 8.001833885e-05)
(2.75091186 -0.08350497744 0.8983897261)
(-4.374533363e-05 -0.0001334752256 0.0001129067672)
(2.552221637e-06 -0.0004190699313 0.0001243950706)
(2.651287784 -0.2605993277 0.8544754249)
(0.0002159722188 -0.001009821952 5.473568458e-05)
(0.0008041931984 -0.002185112902 -0.0001217422014)
(0.001658491849 -0.003599252979 -0.0004862599293)
(2.375239973 -0.1705639765 0.8198330397)
(0.005667754727 -0.008721867627 -0.002709080755)
(0.0164439002 -0.01910129617 -0.009145683042)
(0.535290362 -0.2506750177 -0.02152665011)
(0.04462872447 -0.04418923029 -0.02386162271)
(-4.413521445e-05 -4.629108523e-06 7.935505795e-05)
(-3.930200177e-05 -3.418283242e-05 7.395800544e-05)
(-3.783885216e-05 -6.926196509e-05 8.195385315e-05)
(2.900626713 -0.1840575043 0.9247685847)
(-9.417623492e-06 -0.0002778536965 9.082716691e-05)
(2.864512414 -0.2621876774 0.8689050936)
(6.14148013e-05 -0.0005555822511 0.0001034881653)
(0.0004112199791 -0.001361810892 -5.27759545e-05)
(0.001324750524 -0.002917426501 -0.0004061627621)
(2.69775857 -0.2797685535 0.8364582735)
(0.004976342545 -0.007672230417 -0.002068656974)
(0.01424806539 -0.01669490454 -0.007126264157)
(1.959114059 -0.463415495 0.2067547119)
(0.02507549075 -0.02586732985 -0.0149559919)
(3.226949298 -0.01161851626 0.9157290367)
(3.214836891 -0.1102699734 0.9041322683)
(3.196832269 -0.06940533953 0.8898642799)
(-3.937859793e-05 -7.577347209e-05 7.669448389e-05)
(3.118274446 -0.2093808408 0.85142658)
(2.969215294e-05 -0.000386942139 0.000106481267)
(0.0001751374456 -0.0008295065949 6.045080001e-05)
(3.009938132 -0.2669385083 0.9323201049)
(0.0008562058531 -0.002119249376 -0.0002254458979)
(2.914742352 -0.252869127 0.8493453438)
(0.007207650346 -0.009795455966 -0.003529510111)
(2.553174894 -0.4613333251 0.3671151761)
(0.03156723673 -0.02894629691 -0.01643164279)
(0.9340171428 -0.3328391025 -0.1019047434)
(0.145454473 -0.09209795909 -0.07747024784)
(0.07249326514 -0.05543152416 -0.04291751123)
(-3.489651526e-05 -8.244196331e-05 7.457531952e-05)
(3.343922817 -0.1792869567 0.922185827)
(0.0001027370806 -0.0005999648952 9.556196087e-05)
(3.221855384 -0.2246723547 0.908575412)
(0.0004264158805 -0.001302572751 -2.201786212e-05)
(3.131090011 0.03145003099 0.9962117464)
(0.006675153463 -0.008893616348 -0.003419410565)
(2.770979591 -0.450068405 0.2301868448)
(0.02945862797 -0.02692092747 -0.0158497607)
(0.01862916487 -0.01911833698 -0.009985330287)
(1.323405341 -0.4083111118 -0.1857775838)
(0.08333024989 -0.05700032385 -0.05132336798)
(0.07025668842 -0.04935650439 -0.04213127376)
(3.51160641 0.0002954521471 0.91735262)
(-8.464722115e-06 -1.987632497e-06 -5.758809611e-06)
(3.529284234 -0.05617864598 0.8891850363)
(3.505336965 -0.05982751421 0.8827200037)
(3.47203979 -0.1016213116 0.9130665652)
(0.006440628494 -0.008404156793 -0.003281569721)
(3.061490776 -0.3305121902 -0.008029172858)
(0.02761926462 -0.025013722 -0.01577774878)
(0.01722690543 -0.01765477675 -0.009607898023)
(1.635775566 -0.3719082506 -0.2614616116)
(0.1436015663 -0.07787789634 -0.08945032246)
(0.1203820184 -0.06795846565 -0.07337203384)
(0.1091465996 -0.06416060292 -0.06138049877)
(0.08223843675 -0.05318395816 -0.04640789708)
(0.000200928494 8.649285712e-06 -0.0005883730829)
(0.00018970846 1.275145948e-05 -0.0005646443346)
(0.000394668299 0.0001173790435 -0.0009574018268)
(3.611419377 -0.3181554194 0.1575767971)
(0.005453982621 -0.007267040815 -0.002751441168)
(2.087362749 -0.3766085119 -0.3830404931)
(0.01979577628 -0.01895569992 -0.01102497175)
(0.6958255659 -0.1462123982 -0.283086054)
(0.2817597453 -0.1015976296 -0.1680702007)
(0.2251673334 -0.09059704431 -0.1391884789)
(0.2230282746 -0.09109712809 -0.126449198)
(0.2013452803 -0.08879192591 -0.1091440805)
(0.1497014976 -0.07659049543 -0.08429202401)
(0.1114755766 -0.06387237252 -0.0643872866)
(0.08072857398 -0.05192216418 -0.04688834909)
(0.06262180328 -0.04343618473 -0.03586648927)
(0.0002445129634 -2.511163834e-07 -0.000726070427)
(0.0002238220933 2.451508029e-05 -0.0006928649605)
(0.0002367747076 4.158394607e-05 -0.0007288767488)
(2.636576525 -0.1552408113 -0.5331515954)
(0.0003923559719 0.0001648624601 -0.001050589049)
(0.004618895729 -0.006242513372 -0.001709297503)
(0.8456262214 -0.1304228533 -0.3311610751)
(0.4650760603 -0.1119071998 -0.2371086118)
(0.4197872636 -0.1062467308 -0.2252143825)
(0.0241385369 -0.02119274299 -0.01231905997)
(0.3532023192 -0.1010886045 -0.18818117)
(0.3209612977 -0.09994222464 -0.1693393872)
(0.2439141946 -0.09419598976 -0.1361403055)
(0.1966530607 -0.08345820887 -0.1142127682)
(0.1693185833 -0.07549657065 -0.09774201197)
(0.1422808085 -0.06904844591 -0.08006608949)
(0.1181661112 -0.06249091566 -0.06480276366)
(0.6758319704 -0.02223969927 -0.3484393804)
(0.5847228279 -0.02509681357 -0.31949937)
(0.0002915059418 -8.866568602e-07 -0.0009531062264)
(0.6539269483 -0.02044463187 -0.3405406415)
(0.5843303304 -0.01620098946 -0.3167767734)
(0.00029584897 4.179148001e-05 -0.0009455448206)
(0.6164346387 -0.04547515329 -0.3225547151)
(0.572507619 -0.06641029066 -0.3076864541)
(0.5588535052 -0.06167458865 -0.3045646718)
(0.0002864975898 5.705239935e-05 -0.0009546029726)
(0.5502847311 -0.06086017128 -0.294849149)
(0.5375881018 -0.06620280306 -0.2870242311)
(0.5371519055 -0.0834053068 -0.2811590271)
(0.000313032041 0.0001093099968 -0.001021413564)
(0.4095076128 -0.0879362495 -0.2264256148)
(0.4140856713 -0.08226175323 -0.2231675118)
(0.3906507313 -0.09244216359 -0.2080281568)
(0.02641736547 -0.02208907938 -0.01199983874)
(0.2406345476 -0.08077807542 -0.1359098978)
(0.1936075899 -0.07525881421 -0.1116808334)
(0.1513039543 -0.06775317968 -0.08796177582)
(0.115576591 -0.05869403627 -0.0679433748)
(0.5362534571 0.004515531598 -0.2940386848)
(0.5186836081 -0.01590781035 -0.2853310481)
(0.0003709102333 -2.416532663e-06 -0.001343033622)
(0.505667037 -0.04296286047 -0.2800007446)
(0.5160474069 -0.03029524938 -0.2813987849)
(0.4886644822 -0.03850213799 -0.2689984736)
(0.0003683595927 5.630650531e-05 -0.001333342433)
(0.456266101 -0.05362647082 -0.2575628671)
(0.4465170275 -0.06778003555 -0.2421811318)
(0.4418713707 -0.06067303799 -0.2404537982)
(0.0003802876969 0.0001027644871 -0.001436271846)
(0.367904157 -0.07122138231 -0.2052244502)
(0.3282762474 -0.08010998879 -0.1805405933)
(0.3101813771 -0.0819597187 -0.1662518442)
(0.0003164002971 0.0003102310843 -0.001351031931)
(0.4579780396 -0.00937742064 -0.248085137)
(0.4644071917 -0.0058281964 -0.2456413588)
(0.4411318022 -0.01215996224 -0.2311110517)
(0.0004666193157 4.108575399e-05 -0.002195940267)
(0.4436286925 -0.03986359088 -0.2330259294)
(0.4127888836 -0.04334854795 -0.2148983053)
(0.0003874198231 0.0001538807271 -0.002119881973)
(0.3630613314 -0.06307971769 -0.18917442)
(0.3305399848 -0.06568609696 -0.1665316016)
(0.2802850772 -0.06352131099 -0.1341891189)
(0.0003599100651 0.000139519992 -0.002250986558)
(0.8105927653 -0.004458015278 0.5241209548)
(0.7774612454 -0.008347852421 0.5441320713)
(0.8219815595 -0.003042896572 0.5237084586)
(0.3886347744 -0.002755619891 0.2954160052)
(0.9464048474 -0.002496030342 0.462956996)
(0.3721544131 -0.007638850958 0.286978538)
(0.06310163424 -0.004096004671 0.09247758589)
(0.0003599590189 -0.0002910968556 0.007420352102)
(0.000364707104 -0.0004288433255 0.007504635599)
(0.8506954278 -0.01360659499 0.521508152)
(0.7850903305 -0.03341996387 0.5400030572)
(0.8971993334 -0.01172788683 0.5206119069)
(0.3377793086 -0.01397887421 0.2704829678)
(0.7947742014 -0.004842676747 0.426833945)
(0.3023407398 -0.01331729397 0.249991099)
(0.04319612096 -0.007131569141 0.0720061776)
(0.0004546374548 -0.001058032715 0.007690575511)
(0.0005011426971 -0.001130998985 0.007737625358)
(0.930241067 -0.04197579639 0.5115877024)
(0.9472393177 -0.02747759937 0.5132165681)
(0.2354016362 -0.03219573315 0.2120786897)
(0.1896215097 -0.02245203856 0.185316821)
(0.7285668103 -0.06255436296 0.4153409767)
(1.071349415 -0.03633159927 0.5050469854)
(1.044233087 -0.0274597274 0.484956957)
(0.1614162281 -0.02807064367 0.1612354091)
(0.4474244793 -0.04594916694 0.3117261787)
(0.007259410043 -0.00710041747 0.02157592628)
(0.8428253433 -0.007191286512 0.4341282648)
(0.0560360619 -0.02058824286 0.08096887764)
(0.240528212 -0.04302752117 0.205966995)
(0.9463822518 -0.0004752122396 0.6177348643)
(0.9996999249 -0.004041044606 0.6367038685)
(0.9554675647 -0.004966846727 0.6164506688)
(0.9118151507 0.0005516914287 0.5841958607)
(0.791092879 -0.001930190949 0.5589963224)
(0.9546734488 -0.04475341536 0.6119438683)
(1.004299673 -0.03819845434 0.6285018931)
(0.9494590511 -0.04371243264 0.6122386232)
(0.7923151629 -0.04449641627 0.5583737821)
(0.8814443031 -0.04969002235 0.5795536095)
(0.8121925213 -0.04088089843 0.5627726816)
(0.9257771901 -0.03310958938 0.6052390907)
(0.9219788725 -0.05552340894 0.5957137568)
(0.8571027213 -0.04418841867 0.563360213)
(0.8523709466 -0.05521787612 0.5623853719)
(0.8533534745 -0.05933812831 0.5922984727)
(0.779034147 -0.05590630352 0.5432778296)
(-0.0003583669434 -0.0007608069504 0.001576061902)
(0.9351506747 -0.09660275091 0.5932798963)
(0.9582626031 -0.09872865559 0.5951548477)
(0.8486985757 -0.08168331076 0.5591487062)
(0.8487900082 -0.07827216912 0.5546831923)
(0.8692070504 -0.08783310901 0.5801792163)
(0.8651694277 -0.03741280751 0.5471557839)
(0.9407464097 -0.1149070725 0.5751373786)
(0.8299684264 -0.1086238676 0.5598235242)
(1.091157362 -0.04750668937 0.5222138125)
(0.7277089114 -0.05357720107 0.4017771338)
(0.01982288913 -0.01653881521 0.03711997714)
(0.9417130114 -0.06071260506 0.5711775919)
(1.092373888 -0.06304506559 0.5491384227)
(0.5167508433 -0.07190598145 0.3322241086)
(0.855459127 -0.02484712773 0.438092817)
(0.3475111703 -0.05846982027 0.2546174106)
(0.008770442436 -0.01088750113 0.02156854388)
(0.07026139565 -0.03223213494 0.08839564145)
(0.002772954069 -0.006792754901 0.009665092604)
(1.137843087 -0.02314042757 0.5086735453)
(0.9043337837 -0.03174066129 0.447759625)
(0.3961281814 -0.0709374112 0.2699023022)
(0.09332611665 -0.04492069546 0.1021591097)
(1.212220068 -0.005845162379 0.7191428454)
(1.218067376 -0.003922976752 0.7192470349)
(1.070656548 0.003407299109 0.6688319196)
(1.204731804 0.0004626456404 0.6824927107)
(1.072597417 -0.007235701048 0.6677544529)
(1.228170385 -0.05296232832 0.7191354928)
(1.228131479 -0.04558414085 0.7178822324)
(1.06866522 -0.0431445559 0.6647450933)
(1.061238811 -0.05300052657 0.6606158191)
(1.144921788 -0.055098909 0.6942425588)
(-0.0001377095379 -7.623634361e-05 0.0002464327968)
(1.252499558 -0.04691861747 0.7070396452)
(1.264536671 -0.05935285375 0.6955122478)
(1.07631121 -0.05279750785 0.6575909212)
(1.077697515 -0.06586271535 0.6547583191)
(1.118989048 -0.046720214 0.6901176358)
(1.111131996 -0.07012440118 0.6816543897)
(1.02396128 -0.06395345695 0.6356209839)
(1.08001557 -0.09673136964 0.6470624683)
(1.115312734 -0.1056741146 0.6788221834)
(1.163841781 -0.1150561246 0.6755048093)
(0.9974749058 -0.09272381196 0.6300277318)
(1.08835731 -0.1044086589 0.6542828279)
(1.103976956 -0.1266638855 0.6483599431)
(0.975178516 -0.1158239845 0.6108950033)
(0.9422218493 -0.1214144668 0.5981001701)
(1.110189165 -0.152070565 0.6339830608)
(1.083601331 -0.1436277014 0.6311304512)
(0.9397305441 -0.1301622247 0.595913499)
(0.9531006387 -0.1198546648 0.5864624512)
(1.015281169 -0.1424661569 0.6150956181)
(0.9069938773 -0.1244277717 0.5859430407)
(1.037943932 -0.1535604528 0.5865186551)
(0.9806878215 -0.15172305 0.5802770782)
(1.142519181 -0.06117296704 0.5463798728)
(1.120622547 -0.07135519185 0.5842085329)
(1.235728624 -0.02509190418 0.5457097211)
(0.3732173429 -0.09512841433 0.2362841391)
(0.8316781496 -0.08974351157 0.4204230514)
(0.08880016215 -0.05281661854 0.08946432153)
(1.447837635 0.007193546382 0.7599790089)
(1.495956384 -0.003609772957 0.8020705518)
(1.413600586 -0.006846318478 0.7923095102)
(1.299223456 0.002074408944 0.7520337986)
(1.406937225 -0.06349241554 0.7751616666)
(1.481169237 -0.0514790221 0.788628188)
(1.384415974 -0.06412180259 0.7747872463)
(1.284920263 -0.06077590044 0.7413530692)
(1.365921725 -0.0567816849 0.7718174402)
(1.351873582 -0.07582222299 0.7657482455)
(1.302367439 -0.0763287494 0.7311110869)
(-0.0001176468454 -0.000107063997 0.0002195926166)
(1.344374257 -0.1323810798 0.7490922113)
(1.371962575 -0.121269275 0.7512583877)
(1.318639042 -0.1042375484 0.7186881082)
(1.207527567 -0.1166345326 0.7037840065)
(1.432520176 -0.1277845154 0.7365357069)
(1.19942372 -0.1447553397 0.6867835785)
(1.314473584 -0.129475799 0.7417892735)
(1.327546015 -0.1583222998 0.7145447921)
(1.138799274 -0.1438386013 0.68498551)
(1.223093732 -0.1632212396 0.6786892572)
(1.322215441 -0.1805398788 0.712470589)
(1.33691665 -0.1727529611 0.7025111595)
(1.249498592 -0.182090747 0.7026919649)
(1.154711912 -0.1459697648 0.6657978866)
(1.265314036 -0.162547174 0.6820996627)
(1.273257086 -0.204400146 0.6588067342)
(1.046112265 -0.1723504538 0.6072311249)
(1.196136356 -0.2119071122 0.6540898577)
(1.093451842 -0.1767805824 0.5972326361)
(1.171892891 -0.1793262301 0.6232510158)
(1.109397752 -0.1898461 0.6222848019)
(1.123645697 -0.1136346669 0.6032990249)
(1.176435529 -0.1347785523 0.6084874687)
(1.311925922 -0.01557422237 0.5928047546)
(0.6048647213 -0.1141967394 0.3153839104)
(1.099668129 -0.06190519644 0.494874972)
(0.2272443619 -0.1091489814 0.1520763431)
(0.06098944297 -0.04967399044 0.05237136222)
(1.542386032 -0.001081580122 0.821387119)
(1.689191579 0.00633220617 0.8572876434)
(1.706582982 -0.003964495615 0.8440140306)
(-8.98100443e-05 -8.685141944e-06 0.0001582708674)
(-8.571562272e-05 -2.212148939e-05 0.0001460081433)
(1.549475597 -0.0714431704 0.8083770521)
(1.69783531 -0.07878378592 0.8383094923)
(1.671744227 -0.07655189728 0.8383022801)
(1.581614853 -0.08216212694 0.7939390923)
(1.630708002 -0.08232695842 0.8293548173)
(1.509540995 -0.09467371893 0.7972997911)
(1.558078493 -0.1355182916 0.814664092)
(1.456619222 -0.131325837 0.7775843739)
(1.577074724 -0.1381731229 0.7949743588)
(1.595022863 -0.1705515839 0.7849894139)
(1.443160735 -0.160367821 0.7532507418)
(1.409656916 -0.1734757434 0.7380482748)
(1.521094876 -0.1959514041 0.7681681523)
(1.474877279 -0.1593698235 0.7190440782)
(1.547635197 -0.1905175293 0.7636569119)
(1.451079207 -0.2436623736 0.7315738551)
(1.287632539 -0.2190748771 0.6980491495)
(1.417509282 -0.2272301379 0.7062377773)
(1.240318692 -0.2124519134 0.6825676666)
(1.235668268 -0.1888625044 0.6550782398)
(1.340984141 -0.2293915031 0.7023720113)
(1.274648352 -0.1829672762 0.6320201027)
(1.252397648 -0.237022874 0.642594785)
(1.251672445 -0.1396025033 0.6271728584)
(1.425563641 -0.06914858039 0.6496357824)
(1.436406132 0.0108296761 0.5955658718)
(0.6773795741 -0.159018008 0.30903892)
(1.032974465 -0.1357756032 0.4566169152)
(0.1010483246 -0.07508590257 0.06368459077)
(1.733115826 0.002712701837 0.8789105305)
(1.725688422 -0.01024186289 0.8748056513)
(1.873851139 -0.01297633981 0.8814591897)
(1.741329373 -0.08472894789 0.8681709458)
(1.869530473 -0.09407725417 0.8834954335)
(-8.393230262e-05 -6.631083098e-05 0.0001513835821)
(1.78235329 -0.07331089335 0.8609259878)
(1.806461831 -0.09536998229 0.8409605342)
(1.867526668 -0.09208138722 0.8895535427)
(1.870183313 -0.1076733686 0.8789944034)
(1.77956574 -0.1516249804 0.8275954234)
(1.799468067 -0.1405683241 0.8117365834)
(1.859341037 -0.1554135971 0.8664750642)
(1.860010204 -0.1393146552 0.851543869)
(1.65058745 -0.1651680464 0.838317911)
(1.767543563 -0.1536637043 0.8708439576)
(1.753174349 -0.2025341803 0.8432920694)
(1.670192537 -0.1922164944 0.8098356129)
(1.777356976 -0.2210765733 0.8285228234)
(1.579301467 -0.184931966 0.7978494327)
(1.564233583 -0.2359654421 0.7442405331)
(1.705527645 -0.2459059177 0.7617791004)
(1.497009026 -0.2452297509 0.7685650552)
(1.580561464 -0.2778334113 0.7756668492)
(1.590587922 -0.2523471883 0.7462522828)
(1.524767043 -0.2161986759 0.7151082725)
(1.393332105 -0.2358922819 0.7269937268)
(1.387826262 -0.2185784066 0.7048752093)
(1.389389536 -0.2470118838 0.6498247076)
(1.546916617 -0.2591901751 0.7303373134)
(1.516770252 -0.2755161192 0.6734462123)
(1.30972706 -0.2504144702 0.6715343748)
(1.437932573 -0.2741875397 0.6859156188)
(1.608831579 -0.09058487262 0.6904856532)
(1.563049176 0.01012876526 0.6656395022)
(1.280505233 -0.1286874475 0.5166842856)
(0.4628366203 -0.2005074262 0.1760032567)
(0.1809460723 -0.1189783855 0.07275087136)
(1.97126671 -0.01423918679 0.8988480476)
(2.034529605 0.0004544202931 0.9238726724)
(-6.677750316e-05 -2.174089821e-05 0.0001176994816)
(1.976695817 -0.09010019152 0.8993937373)
(1.975324222 -0.08252825933 0.8985930892)
(2.08012462 -0.099634885 0.919638666)
(1.964773482 -0.08173599421 0.9016637435)
(1.953331909 -0.112079706 0.891537011)
(2.121201774 -0.08865340908 0.9113122472)
(2.13354331 -0.1196192528 0.8921106051)
(1.979924814 -0.1678376921 0.8626343222)
(2.134511719 -0.1578062569 0.8815930279)
(2.002912485 -0.1778964101 0.9187043033)
(2.001063539 -0.2182465726 0.8878365444)
(1.942160152 -0.2172885512 0.8458675876)
(2.001841137 -0.2311207734 0.8714549136)
(1.954204261 -0.1905907076 0.8206728351)
(1.963719593 -0.203308241 0.8215998148)
(1.795879338 -0.20885387 0.8342915404)
(1.750656529 -0.261420345 0.7842697001)
(1.840538543 -0.2640976223 0.800306857)
(1.759975474 -0.293615468 0.8146938291)
(1.789924365 -0.2683733721 0.7816520229)
(1.655373081 -0.2461282025 0.769118921)
(1.546419607 -0.2815362754 0.7017826151)
(1.685779563 -0.3262739606 0.7341439095)
(1.605401708 -0.3032629352 0.7294475597)
(1.622949621 -0.2549168633 0.7051817545)
(1.549404387 -0.1822060283 0.6961119212)
(1.578168827 -0.06867038984 0.6557433574)
(0.9904231811 -0.222486233 0.336131074)
(1.701719335 -0.01237441316 0.7122712046)
(1.229906401 -0.2109543347 0.4253733655)
(0.6591834415 -0.2234577768 0.243632644)
(2.219081594 0.0001253887378 0.903633525)
(2.309053129 -0.0102666743 0.9420956132)
(2.308864479 -0.01114850758 0.939380035)
(2.198215731 -0.1007764795 0.9184948355)
(2.312739681 -0.1015894147 0.9396257212)
(2.331820564 -0.09365408827 0.9389149545)
(-5.816019972e-05 -4.108644231e-05 0.0001091473311)
(2.182569468 -0.08784449604 0.9288165148)
(2.168644583 -0.1178900274 0.9199959971)
(2.384296394 -0.1012391862 0.9069485037)
(2.147814109 -0.1466640611 0.865356171)
(2.29137047 -0.18129607 0.856323476)
(2.28782264 -0.1826002811 0.9097261852)
(2.280501418 -0.2254582603 0.891871621)
(2.127408371 -0.2200602648 0.8866918826)
(2.283348611 -0.2400399263 0.8669358905)
(2.023708474 -0.2551493464 0.8906177894)
(2.112469221 -0.2526287168 0.897860094)
(1.987083882 -0.2831977918 0.7909718897)
(2.076536288 -0.223632572 0.8720291247)
(2.040882791 -0.2895745468 0.8223016618)
(1.993092926 -0.3047399603 0.838973193)
(1.996432465 -0.2789959206 0.8037669227)
(1.848901736 -0.2812546432 0.7937214845)
(1.850466396 -0.3441369882 0.7774574089)
(1.82725359 -0.2841648233 0.7479678428)
(1.719339539 -0.2637173803 0.7242785565)
(1.466493143 -0.188526516 0.5234679616)
(1.557680564 -0.2074404379 0.510388666)
(2.421876516 -0.006237728164 0.9288695532)
(2.584681494 0.008721457092 0.901127871)
(2.595146021 -0.002785761864 0.8771330816)
(2.46812543 -0.1119708739 0.9284015164)
(2.58129214 -0.09684852748 0.872313724)
(2.555310375 -0.09449380439 0.8808187929)
(2.452119133 -0.1092605413 0.8565824367)
(2.474781783 -0.1364200861 0.9718233457)
(2.47093601 -0.1991263667 0.9484863825)
(2.509011382 -0.2004107693 0.944381181)
(2.373596301 -0.1924420508 0.9370919222)
(2.578998021 -0.165419767 0.9141240238)
(2.51016065 -0.1968391222 0.8297910037)
(2.33536456 -0.2152477208 0.9207173849)
(2.238727877 -0.2505585967 0.9111760834)
(2.370750316 -0.2923020023 0.9226207189)
(2.321203485 -0.2608414568 0.8722614422)
(2.233765029 -0.2212032547 0.8490766275)
(2.135996063 -0.2871260431 0.767379725)
(2.264046755 -0.3224364885 0.8204358429)
(2.195293551 -0.2854744844 0.785937488)
(2.133608801 -0.3080988537 0.8005112209)
(2.030834931 -0.3331655281 0.7368026395)
(2.139378023 -0.3324487452 0.7783181967)
(2.073097513 -0.3334686721 0.7958130296)
(2.067146027 -0.2480363163 0.7853431777)
(1.93715042 -0.2742071355 0.756656049)
(1.683279202 -0.213280122 0.5160009366)
(1.773411268 -0.2561874024 0.4991524368)
(0.6031535086 -0.2765127418 0.1122709628)
(2.753556317 0.01213061043 0.9486740713)
(2.737508678 -0.001264154555 0.954989668)
(2.619713595 -0.006520947251 0.9758962809)
(2.730826444 -0.1084966352 0.9451173207)
(2.741663015 -0.1012103161 0.9369611725)
(2.60089117 -0.08403860713 0.9637081619)
(2.743565744 -0.1008138688 0.9155049542)
(2.725868041 -0.1206619039 0.9137518998)
(2.602081566 -0.1320083811 0.9310325502)
(-5.564621362e-05 -0.0001106166842 0.0001232444787)
(2.69296039 -0.1825324771 0.8722815433)
(2.672746501 -0.167806038 0.8675570408)
(2.623492426 -0.2062797467 0.9239791762)
(2.552140094 -0.2455815822 0.9411909549)
(2.579134541 -0.2457216898 0.9211072506)
(2.460432904 -0.2420366299 0.8672019851)
(2.598088587 -0.2706296419 0.8986004479)
(2.537469992 -0.2327200058 0.8320351387)
(2.530576011 -0.2808889067 0.8904783153)
(2.50804293 -0.3306122404 0.8332119196)
(2.318157196 -0.3400737942 0.8842378198)
(2.479822617 -0.3348009136 0.7900423608)
(2.190683515 -0.3121258918 0.7505636746)
(2.486598421 -0.3014707418 0.8295033282)
(2.277092515 -0.2891577614 0.7860959418)
(2.085216167 -0.1348419736 0.7981405345)
(2.162728208 -0.01746987917 0.8609359485)
(1.740419125 -0.2804020868 0.4308907174)
(2.155460096 -0.1561136379 0.7287245719)
(2.891831678 -0.0008677945374 0.8674961392)
(2.958164782 -0.0088272982 0.969485279)
(2.809202799 -0.09232455398 0.8867373019)
(2.945727493 -0.1079518323 0.9636903186)
(2.919755076 -0.0841146914 0.9547510168)
(-4.446803032e-05 -4.981012653e-05 7.88461278e-05)
(2.734424531 -0.09832131336 0.8687499824)
(2.87847222 -0.1324557986 0.9142230657)
(2.706532423 -0.2046196171 0.9243180091)
(2.828889544 -0.2097948448 0.8551629077)
(2.77162129 -0.1703264262 0.8931106213)
(2.726817283 -0.2353285806 0.8300564785)
(2.850731035 -0.1840517213 0.8517453468)
(2.843031634 -0.2675156213 0.9160143479)
(2.808879684 -0.2960735387 0.8773591768)
(2.793436312 -0.2547501146 0.8777902225)
(2.631201114 -0.3012381277 0.8984649068)
(2.757483563 -0.2271344207 0.8492873037)
(2.55817402 -0.3171083668 0.7862405382)
(2.555393829 -0.2967234441 0.8509022001)
(2.667726826 -0.3332419488 0.8690087074)
(2.658541351 -0.2702749137 0.8067080546)
(2.604284332 -0.3283513004 0.8629679893)
(2.53933341 -0.2965228054 0.8223982437)
(2.403465451 -0.3384201051 0.8384153616)
(2.413822297 0.02401657201 0.9073592257)
(2.414632181 -0.1117600191 0.7852720507)
(2.181714098 -0.3451004911 0.395319074)
(1.185803086 -0.3838643408 0.09791324585)
(3.011163775 0.008449650273 0.9391386465)
(3.150318759 0.01299896881 0.8718779784)
(3.183514842 0.01041087967 0.8309764648)
(-4.116245275e-05 -2.474334277e-05 8.082322488e-05)
(3.005149859 -0.1209971526 0.9296267636)
(3.038166254 -0.1030924494 0.9075259919)
(3.161707576 -0.1135952162 0.8266537412)
(3.113270158 -0.09716678309 0.8477681388)
(3.003781008 -0.1197385003 0.8368190737)
(3.087467662 -0.1190699452 0.9656631966)
(3.062888745 -0.1389503416 0.9368245164)
(3.044241604 -0.2034037631 0.9132566654)
(3.055387944 -0.1843906723 0.8966398435)
(2.926853527 -0.2265395261 0.9334784538)
(3.084132926 -0.1604194452 0.8528009326)
(3.064490406 -0.213764263 0.8049688678)
(2.869907832 -0.2506574853 0.9103452994)
(2.849088076 -0.237622961 0.8394579724)
(2.973937578 -0.2912697078 0.8724326503)
(2.798800203 -0.3048336477 0.826585045)
(2.940067403 -0.2369131144 0.8232835397)