/*--------------------------------*- C++ -*----------------------------------*\
| =========                 |                                                 |
| \\      /  F ield         | OpenFOAM: The Open Source CFD Toolbox           |
|  \\    /   O peration     | Version:  v1706                                 |
|   \\  /    A nd           | Web:      www.OpenFOAM.com                      |
|    \\/     M anipulation  |                                                 |
\*---------------------------------------------------------------------------*/
FoamFile
{
    version     2.0;
    format      ascii;
    class       volScalarField;
    location    "3.2711";
    object      Ma_mixture;
}
// * * * * * * * * * * * * * * * * * * * * * * * * * * * * * * * * * * * * * //

dimensions      [0 0 0 0 0 0 0];


internalField   nonuniform List<scalar> 
60268
(
4.877614499
4.672884762
4.552156317
4.444883386
4.358693447
4.291186561
4.239393255
4.204884379
4.186267047
4.180624615
4.214407463
4.924064436
4.701006419
4.555252473
4.448495696
4.365238794
4.298496794
4.245723435
4.209844851
4.191019994
4.184803874
4.219466658
4.739729267
4.573276536
4.472382819
4.384389603
4.314549353
4.262073343
4.225863861
4.205119795
4.21780314
4.247123833
4.814135088
4.624626197
4.505806435
4.417336467
4.344713857
4.291116537
4.255745075
4.230740237
4.254064222
4.72868641
4.552292735
4.454396153
4.379541631
4.323664466
4.311622901
4.302112689
4.298386809
4.694317473
4.561595275
4.487153533
4.418408468
4.400606247
5.437580356
5.098170426
4.892383823
4.701241587
4.47982863
4.240922934
4.119633356
4.029945789
3.967577757
3.930455108
3.914051674
3.91588807
3.934251742
3.966570449
4.044669768
4.10613207
4.14945561
4.198645857
4.251233607
4.315599455
5.425924059
5.122635339
4.910838097
4.727034778
4.515626795
4.308904355
4.14437744
4.052386286
3.989159487
3.950322184
3.931528854
3.931233726
3.948865117
3.979499641
4.052942063
4.113274721
4.156929797
4.205709415
4.257272836
4.319277339
5.468389626
5.150160004
4.935473959
4.74941025
4.56946231
4.374358161
4.171685915
4.078456625
4.012091331
3.971656885
3.951032757
3.950545266
3.967206028
4.025025817
4.076316511
4.126916243
4.16789243
4.215783827
4.274145538
4.337215018
5.487362466
5.180771582
4.969030217
4.778433672
4.612564283
4.42696169
4.250200605
4.112579174
4.04542226
4.002566012
3.981270978
3.977784608
3.993462031
4.055410177
4.105126742
4.143667607
4.184781032
4.230650457
4.293947192
5.586940999
5.267706475
5.034360882
4.836750038
4.666673629
4.516823628
4.362695585
4.213857499
4.102481999
4.054032449
4.028521873
4.057520897
4.071627942
4.100744217
4.137548939
4.167633945
4.205604691
4.250659684
4.311849237
5.369580375
5.086132717
4.892630473
4.722785478
4.581487919
4.454441971
4.323748518
4.228632003
4.173952095
4.138352483
4.131865507
4.139185299
4.154256533
4.173365066
4.199123252
4.235050222
4.284375638
4.340828067
5.473479499
5.18807505
4.983610842
4.81086527
4.663177659
4.54068179
4.435791702
4.347617108
4.287969594
4.246110759
4.220001091
4.207326701
4.205915837
4.219580554
4.243028089
4.284660338
4.335581768
5.34489761
5.082160651
4.897856632
4.75221039
4.625576476
4.519655437
4.434367534
4.368518598
4.318572383
4.287475712
4.269866845
4.264649012
4.272371219
4.302981497
4.348073097
5.245155015
5.010701524
4.84904501
4.72056817
4.610335784
4.521464693
4.451373515
4.396824804
4.359305677
4.334563785
4.322570055
4.339913329
4.37593873
5.166073453
4.999673462
4.82726093
4.701790681
4.609938637
4.53452549
4.476150729
4.434736702
4.428660175
4.424927378
4.431296283
4.995590268
4.855854253
4.767387915
4.687815256
4.616667895
4.560941043
4.542699715
5.976623488
5.578969166
5.30053948
4.93539836
4.547328876
4.322545086
4.135186286
3.9862288
3.871249604
3.785761561
3.728695398
3.697848284
3.688015462
3.696836839
3.723912977
3.763947326
3.814532433
3.874577549
3.940970894
4.011747639
4.0857922
4.161759695
4.255720991
4.329130714
6.001187276
5.592374039
5.303074981
4.94875953
4.550347949
4.322764917
4.139026342
3.990334031
3.875793937
3.791862461
3.734895726
3.704502669
3.695132551
3.703965823
3.731105058
3.770439099
3.82110134
3.879867425
3.946126618
4.016623775
4.090936932
4.166507137
4.259169464
4.332820972
6.020592357
5.617607456
5.336053809
4.975934211
4.587898704
4.35729479
4.16750687
4.015867813
3.898014526
3.812673923
3.754162647
3.721190117
3.710756293
3.718446341
3.744201196
3.783512688
3.833629682
3.892445421
3.958162763
4.027922981
4.101014048
4.193514893
4.272979592
4.34144022
6.056277649
5.6570613
5.3721855
5.021748532
4.639725167
4.40797428
4.2173009
4.06380307
3.944223745
3.854726823
3.795402644
3.760731117
3.746524812
3.752818526
3.777169822
3.812795412
3.860129382
3.916218901
3.980177635
4.048878747
4.121902924
4.216343894
4.294500253
4.355037594
6.162008335
5.743148201
5.431371294
5.102502529
4.768287828
4.468757638
4.272374103
4.114987673
3.993409669
3.90176826
3.839298024
3.79999786
3.78467667
3.788583449
3.807552379
3.84315032
3.889251486
3.943409882
4.005455596
4.072569122
4.143850508
4.237178927
4.314265099
4.373775752
5.87054709
5.507472907
5.232726346
4.913696846
4.577197374
4.369735193
4.204736665
4.074091326
3.974957314
3.904016825
3.859471856
3.838383185
3.836835465
3.852805262
3.882883735
3.92539159
3.977306617
4.037485755
4.102872005
4.189758354
4.265984568
4.333833749
4.394293255
6.015978606
5.611169254
5.322748386
5.025136804
4.7230067
4.450735185
4.280496367
4.145022934
4.043436913
3.969645889
3.921148941
3.897320378
3.892561177
3.904103983
3.930961951
3.970509471
4.019929508
4.076998865
4.162021941
4.236025591
4.302137403
4.358263637
4.424278671
5.780329983
5.437734201
5.18759594
4.917239743
4.649517148
4.412303372
4.265128864
4.151144196
4.069897526
4.012444675
3.979167835
3.967066693
3.973546599
3.993942803
4.028646025
4.072985262
4.151902441
4.220182699
4.282199284
4.333961201
4.393224793
4.454269991
5.921741433
5.56271561
5.295648831
5.074430336
4.829992247
4.593148128
4.389344656
4.269400933
4.176767607
4.113546488
4.07238808
4.054980832
4.05428988
4.068704449
4.098200983
4.164241049
4.223675824
4.2782449
4.323843052
4.371767475
4.434255979
5.780166693
5.443411928
5.213229568
5.010413108
4.797842018
4.618611435
4.460899882
4.314572087
4.240180029
4.1896768
4.162562612
4.153832707
4.196944981
4.224019054
4.259027613
4.300420146
4.335412489
4.375222901
4.42500875
4.480413861
5.662005253
5.348010868
5.134667509
4.962129685
4.801406707
4.645014844
4.519033586
4.440618401
4.379689821
4.33788248
4.31278037
4.314329452
4.331465511
4.347788992
4.366968018
4.395058918
4.436692668
4.487061201
5.566832728
5.307523515
5.117682321
4.966699826
4.833071914
4.71766011
4.631689055
4.560299008
4.507004589
4.468617007
4.445091327
4.432524065
4.432665125
4.456721922
4.484312433
4.511671006
5.541359482
5.334681232
5.14047908
4.97961586
4.868284687
4.766501973
4.688602506
4.626124662
4.578217831
4.547554781
4.546196828
4.550813173
4.563020735
5.345790804
5.185226343
5.072645122
4.969682828
4.88274666
4.805593613
4.743068322
4.694388095
4.683605095
6.723328226
6.264226949
5.887697985
5.411384035
4.868888144
4.547908029
4.279781193
4.058256714
3.878722506
3.734337354
3.625779633
3.547531482
3.499054987
3.47617014
3.476910147
3.495367503
3.531524132
3.580866811
3.640930196
3.709062458
3.782654571
3.858947914
3.937965922
4.018252119
4.097551116
4.176097835
4.253223206
6.761555736
6.268898088
5.902601598
5.427154082
4.900197353
4.572983018
4.301335196
4.073698321
3.889403076
3.742981099
3.630345792
3.551357122
3.500973045
3.476757884
3.47648258
3.495810402
3.531547655
3.581274107
3.64075446
3.7086726
3.782344761
3.859685491
3.939202871
4.018715296
4.098689078
4.177567009
4.254852727
6.824337317
6.317909421
5.917268696
5.445102982
4.915213789
4.591117596
4.318297679
4.09464543
3.910194548
3.764750598
3.654685493
3.574925305
3.523792235
3.498979297
3.497397228
3.513815415
3.548452803
3.596267785
3.655493081
3.721757385
3.794213801
3.870655397
3.949182099
4.02866491
4.107869437
4.1864411
4.263748427
6.461919496
5.988457437
5.527364516
5.021159242
4.691946584
4.41135876
4.180831395
3.99079629
3.83777451
3.71964173
3.63333346
3.575716962
3.546078861
3.539474718
3.552419876
3.583003611
3.628143506
3.683015277
3.74678837
3.817902386
3.891754398
3.969298035
4.047531851
4.126302888
4.204021122
4.280899385
6.516465459
6.047296471
5.617726688
5.1744409
4.761135785
4.475924743
4.241143677
4.045570353
3.887446556
3.764863489
3.677094201
3.616398763
3.583106135
3.573137263
3.584660383
3.612530657
3.655238164
3.709710798
3.771686425
3.840101152
3.913845426
3.990469272
4.068438363
4.146730734
4.22448924
4.301465626
6.573831942
6.117734285
5.757269336
5.320712791
4.83855514
4.543779126
4.302721567
4.106221341
3.945008757
3.819326719
3.728381621
3.666183142
3.630252847
3.618238731
3.626061241
3.650920177
3.690106655
3.741753106
3.801854108
3.869161167
3.941003799
4.015749769
4.093006862
4.170404956
4.247660187
4.324660552
6.686913085
6.226817177
5.866313992
5.456630859
5.039725134
4.661992673
4.409428481
4.201730448
4.035718799
3.904763235
3.804376105
3.735311917
3.694543395
3.676279082
3.678833717
3.698852037
3.734335672
3.782461763
3.839648047
3.903697595
3.973544613
4.047583124
4.122933222
4.198885128
4.275745076
4.362991379
6.421058051
5.995525949
5.659511697
5.253826764
4.80559192
4.541359962
4.320479943
4.144509798
4.004698723
3.89719984
3.82072876
3.772001502
3.746675955
3.743920044
3.759376014
3.788945928
3.832112954
3.884947879
3.946376568
4.013320936
4.084801721
4.1582031
4.232779508
4.324834097
4.399813784
6.572424993
6.125026933
5.787796603
5.417192861
5.038329469
4.692161831
4.465289593
4.277648541
4.128350369
4.014823303
3.928934263
3.870592984
3.837336818
3.82703875
3.835447134
3.858466779
3.896307364
3.943448695
3.999849856
4.063012177
4.130692996
4.202010407
4.275388493
4.367861852
4.443113986
6.38016833
5.956695056
5.625762248
5.280295139
4.931697786
4.614867595
4.418180723
4.257907708
4.132955774
4.04167301
3.97677054
3.937325572
3.919851198
3.92081014
3.938679887
3.970391955
4.012796071
4.064245536
4.123523815
4.187902671
4.256155414
4.342857493
4.418983976
4.48430229
6.164266419
5.782799798
5.509593134
5.194751642
4.88254126
4.610336502
4.438250552
4.302292033
4.195426342
4.120281731
4.069089362
4.040855666
4.032673638
4.041210422
4.063976745
4.09922501
4.144242727
4.198616696
4.258437391
4.339616334
4.412013797
4.476316776
4.530767582
6.366199605
5.989523194
5.693272873
5.4365623
5.152129807
4.871734583
4.623544126
4.475638858
4.358975868
4.271049929
4.2101982
4.171974464
4.153133139
4.153093743
4.167550155
4.195559893
4.234947893
4.308720933
4.36426124
4.420512374
4.477932838
4.532227887
4.589640376
6.241647445
5.887533366
5.624344587
5.390565099
5.134406243
4.921533952
4.730832373
4.540081587
4.437970001
4.365287426
4.317033517
4.290374635
4.280923565
4.287953496
4.342910813
4.377895585
4.418862453
4.463298348
4.501166929
4.546807043
4.602290211
6.154511178
5.897259887
5.604997957
5.376478413
5.192784497
4.995422536
4.834391297
4.727485959
4.640242648
4.573674975
4.52572199
4.496491533
4.479853669
4.488407775
4.511129001
4.52909616
4.549887965
4.584315264
4.630620987
5.874021632
5.587761197
5.386587189
5.227532631
5.087428765
4.970812892
4.877179789
4.797898543
4.736155464
4.690061325
4.658534678
4.638520736
4.629212832
4.643331259
4.664124191
4.684160553
5.850537108
5.65386061
5.504472432
5.303745428
5.162875948
5.054855118
4.966234525
4.894772198
4.838201965
4.816472281
4.802793761
4.775741805
4.776285851
5.566559171
5.407728663
5.294368836
5.193878858
5.105705709
5.03299815
5.002327886
7.250132632
6.71667976
6.151093648
5.520571986
5.07455362
4.700722936
4.377212816
4.104245361
3.879966232
3.696727032
3.551127658
3.438598794
3.360429126
3.311125173
3.290880401
3.294366037
3.318210345
3.359483003
3.415553339
3.482556165
3.556782546
3.63620803
3.718396211
3.801785908
3.88569354
3.968103342
4.049071698
4.126890939
4.202802443
7.337587705
6.740598665
6.154277805
5.529021214
5.079609683
4.698722865
4.375228248
4.101942441
3.876070315
3.690965988
3.545884479
3.434052885
3.356212824
3.308926488
3.288222347
3.292298405
3.317189032
3.359494274
3.416153901
3.482783757
3.55733579
3.636487802
3.719521794
3.803268795
3.886720426
3.969251902
4.049644135
4.129168392
4.205213198
6.85986851
6.227312574
5.679054253
5.140144876
4.759009054
4.434704423
4.156057843
3.924260598
3.733866862
3.581286488
3.465840138
3.383541507
3.332621004
3.308199475
3.310139171
3.332206289
3.372645236
3.427835473
3.493427991
3.566548001
3.645933728
3.728054547
3.811664826
3.894902249
3.977382321
4.058496455
4.137285836
4.213759548
6.920212759
6.360087954
5.801189342
5.178732394
4.785888236
4.457559593
4.180221019
3.946560117
3.759891707
3.610076155
3.494092659
3.412632195
3.360914304
3.336911136
3.337123795
3.358400404
3.396722269
3.450208036
3.514202494
3.586450447
3.663860765
3.744972798
3.82761861
3.910925087
3.993383563
4.073462239
4.15158404
4.227876344
6.985389028
6.446777147
5.891147833
5.265603266
4.866542233
4.527831714
4.242011365
4.006915485
3.812602361
3.659004663
3.538520878
3.453324698
3.399450825
3.372707063
3.370401666
3.38886767
3.4252346
3.476813532
3.539107137
3.609396918
3.685599754
3.766115104
3.848413223
3.930914102
4.012754668
4.093137054
4.172032199
4.248724769
7.069850786
6.549967342
6.007018655
5.40475905
4.996379581
4.649692447
4.354162563
4.107677754
3.904925387
3.741850866
3.615010677
3.521834727
3.461192614
3.42909442
3.420166795
3.434309093
3.465869798
3.513375795
3.572129118
3.639987256
3.714477557
3.792660138
3.873452291
3.954822478
4.035751444
4.115991728
4.195313119
4.272292702
7.199648851
6.65571311
6.136936812
5.602901033
5.096175766
4.742841841
4.443563215
4.193275004
3.98550826
3.818590081
3.688476851
3.592074731
3.526097096
3.489694379
3.477519881
3.486780394
3.51500855
3.557540007
3.612926884
3.678408726
3.749645339
3.826064874
3.905377653
3.985149272
4.064901223
4.144732371
4.22304218
4.299523079
6.860516853
6.337398933
5.826167211
5.246395187
4.879442656
4.565700501
4.303683494
4.086492894
3.910980191
3.773416957
3.671897196
3.600198227
3.557210434
3.539048468
3.543651755
3.567290121
3.606334759
3.65805914
3.719300028
3.788461184
3.862858897
3.940028513
4.018380673
4.097509152
4.176365506
4.253840647
4.330428362
7.04771367
6.518842874
6.026318226
5.531766777
5.0650803
4.732014068
4.458801227
4.226810938
4.040213695
3.89084233
3.777348112
3.695940981
3.643926504
3.618342613
3.615912809
3.632344544
3.665640569
3.712727102
3.769792921
3.83482161
3.906155082
3.980088424
4.057103939
4.134908505
4.213397073
4.290880263
4.366587753
6.750799258
6.245306827
5.799565176
5.331019306
4.892526486
4.606232788
4.366482027
4.171522081
4.017716242
3.895192221
3.806105465
3.748500021
3.715379662
3.705551917
3.715428005
3.742310525
3.783000314
3.834390881
3.894410222
3.960759938
4.0324602
4.106282931
4.182466584
4.258494086
4.334819998
4.410802349
6.953008015
6.466036083
6.077489269
5.628952847
5.128618555
4.824248708
4.569061715
4.357027538
4.187457006
4.055165195
3.954643607
3.883977328
3.839964298
3.81962737
3.81913955
3.837657691
3.869263367
3.914199241
3.968648677
4.029809191
4.096148659
4.166893208
4.240069268
4.314724787
4.389621971
4.463875861
6.779563114
6.293175793
5.852572941
5.426374111
5.030792544
4.763361361
4.5352885
4.354160071
4.209611875
4.099134304
4.019012104
3.966492021
3.937210943
3.928949725
3.938596195
3.964070475
4.001318284
4.048925036
4.104781692
4.167319589
4.233134449
4.302885591
4.37398466
4.464835312
4.535150666
6.552619723
6.136017225
5.754463283
5.371596786
5.010726543
4.771582756
4.572717628
4.415168026
4.291084197
4.194914573
4.128210438
4.087219652
4.066804135
4.065785259
4.080034944
4.107886569
4.146159206
4.194617565
4.249614023
4.310892724
4.376585982
4.46343203
4.539123018
4.603529654
6.788593882
6.378689599
6.051661382
5.702249294
5.398969545
5.109130829
4.81572772
4.633389338
4.492819515
4.385132942
4.305059236
4.251759616
4.217640204
4.204643583
4.208913687
4.226023442
4.256076283
4.295970204
4.344650406
4.400529147
4.479664278
4.550455211
4.611868294
4.666447764
6.699718439
6.389145098
6.027460469
5.736162693
5.446800172
5.153740934
4.895194433
4.736225351
4.609484241
4.514578674
4.44377066
4.397377103
4.371313401
4.361576984
4.368972084
4.388556149
4.418493429
4.488332588
4.537520746
4.587638712
4.63825553
4.683911401
4.737079522
6.377714715
6.002895462
5.750694558
5.495586842
5.276686251
5.106718443
4.933574042
4.758675346
4.670702629
4.610692036
4.56938687
4.547171639
4.58153211
4.599793612
4.610039036
4.635782328
4.669684874
4.706718488
4.741432359
4.774631982
6.31202765
6.067719868
5.796140654
5.577403344
5.417798546
5.231151331
5.078660031
4.979893047
4.901736211
4.839692139
4.796403294
4.780337477
4.781190196
4.775501688
4.774412458
4.788208246
4.823352566
6.086687163
5.875232846
5.658034319
5.483901558
5.352848763
5.242418828
5.148112989
5.070243134
5.011968701
4.966166505
4.946390738
4.936579777
4.917007538
4.922051466
5.958841024
5.769187748
5.644969954
5.52007428
5.407027324
5.31075611
5.231843911
5.163279903
5.136762887
7.413176477
6.633819463
5.893592365
5.357129173
4.901284431
4.513563935
4.187757516
3.909742867
3.680745705
3.495685855
3.349277381
3.237690233
3.160452131
3.115296615
3.098461511
3.106900392
3.137599877
3.186065932
3.249758868
3.323464432
3.405232689
3.491422591
3.579743763
3.668263072
3.755651068
3.841166928
3.923827541
4.00377959
4.080347956
4.153763087
7.404197729
6.683074666
6.028629961
5.390104592
4.934231488
4.54351909
4.212544687
3.931703116
3.698872306
3.508718472
3.359228838
3.246732104
3.167422571
3.119985712
3.101472456
3.109388529
3.139549914
3.188491742
3.251491782
3.325308313
3.406682211
3.492820027
3.580821703
3.669533994
3.757845507
3.842859873
3.926003878
4.006595086
4.083880101
4.15739537
7.431846283
6.805789337
6.150435966
5.412357883
4.950781613
4.555583017
4.220301723
3.943065139
3.708290702
3.518897646
3.369212362
3.25571681
3.177719905
3.13067446
3.112833687
3.120515945
3.150109851
3.197876881
3.260951017
3.334799081
3.415519784
3.501261905
3.58926521
3.67782681
3.765562047
3.85106326
3.934415541
4.01461671
4.092770557
4.167127631
7.509650491
6.888999973
6.236629411
5.504643764
5.035411353
4.636093977
4.295158002
4.009297818
3.77036853
3.575286052
3.420378757
3.302729693
3.218754153
3.168231983
3.146043894
3.150503544
3.177261285
3.222756357
3.283313443
3.354962301
3.434714822
3.518625904
3.605749427
3.693643779
3.780469146
3.866025967
3.949231894
4.029671418
4.10702725
4.18170644
7.578901751
6.969623109
6.335345257
5.61747876
5.14080116
4.734225132
4.388850972
4.097423669
3.851096614
3.650906419
3.49045926
3.364737781
3.274745813
3.218309196
3.192048051
3.191678579
3.214505701
3.255383023
3.312973911
3.381970107
3.458361533
3.541064244
3.626809045
3.713978399
3.800304503
3.885572678
3.968547366
4.049123191
4.126335221
4.200955552
7.70605045
7.092407483
6.431028598
5.713496456
5.223348665
4.809605353
4.454217845
4.15745569
3.905675892
3.700795149
3.537340949
3.410274507
3.318503461
3.258960724
3.230194847
3.227157992
3.248011492
3.286714115
3.342437274
3.409068972
3.484994912
3.565860585
3.651075629
3.737213543
3.822720261
3.907799456
3.990999178
4.071695213
4.1496632
4.224713904
7.290649975
6.586697427
5.969422348
5.367473558
4.941256595
4.578987506
4.272882964
4.014506695
3.801698587
3.62788961
3.494075951
3.395704079
3.32994128
3.294285823
3.285988561
3.300389279
3.335175307
3.385950038
3.448774764
3.521678843
3.600828586
3.683683059
3.768399024
3.853145788
3.937250537
4.019952109
4.1008703
4.179404432
4.254537039
7.397908923
6.822329566
6.214495631
5.548151562
5.102343802
4.726466432
4.408716582
4.139279215
3.915586815
3.733297629
3.591601081
3.485248308
3.412680178
3.370314958
3.355258513
3.364784136
3.393363465
3.438668281
3.498058935
3.566550143
3.642189671
3.722968172
3.805271466
3.888318347
3.971989133
4.054165518
4.134091987
4.21184918
4.287280322
7.589308266
7.017882987
6.414815926
5.821762046
5.256027522
4.862348152
4.530802929
4.252215199
4.020955385
3.831576801
3.684198342
3.572616976
3.493550422
3.445352375
3.425977434
3.429045279
3.453325073
3.494413605
3.549205315
3.614527062
3.687120996
3.764939056
3.845516652
3.927122458
4.009189525
4.090650636
4.171009193
4.24919912
4.324843959
7.219630725
6.681958387
6.120977058
5.490639798
5.086810234
4.738145928
4.447135689
4.202907787
3.99985773
3.839178462
3.714587693
3.622468525
3.563469477
3.532140705
3.525129511
3.539714238
3.57290921
3.620349596
3.679125078
3.74629521
3.818606966
3.895647292
3.975336185
4.055760855
4.13590459
4.214718925
4.292284721
4.367878184
7.475587391
6.922276324
6.374610658
5.821857401
5.298149477
4.928654306
4.622751911
4.367757437
4.154242312
3.982480757
3.849260562
3.750291777
3.681871308
3.642622636
3.62796756
3.633997459
3.659435956
3.699130208
3.750852168
3.812171251
3.880495918
3.953924182
4.03102733
4.108984625
4.186671433
4.265159035
4.342134128
4.417109031
7.179947189
6.667790489
6.175252606
5.661349267
5.178017481
4.851628882
4.577153723
4.349564425
4.163352624
4.016073648
3.904211783
3.823238379
3.770918272
3.745400445
3.74236729
3.756848485
3.788689516
3.833382303
3.887722965
3.951463815
4.0199701
4.092218988
4.167294344
4.242766532
4.319173251
4.395342371
4.470685109
7.44932763
6.916738932
6.48767343
5.989852107
5.430926306
5.084091627
4.794936167
4.552713991
4.354516591
4.195605105
4.072359214
3.981883567
3.919515354
3.882913394
3.868291179
3.873006797
3.895391311
3.930554621
3.977255787
4.032653938
4.095457105
4.163213149
4.233357196
4.306752486
4.380663426
4.454496256
4.528221423
7.259694743
6.767253698
6.291625592
5.822263027
5.374025682
5.063354012
4.799530137
4.582759313
4.405432724
4.263664654
4.158344267
4.080879543
4.031803347
4.005014414
3.998735132
4.010017043
4.03651933
4.075273754
4.12322516
4.17950101
4.241680862
4.308405077
4.377669552
4.448339077
4.520420518
4.606892073
7.102716866
6.625737881
6.187575621
5.816639541
5.447488397
5.062277318
4.822420656
4.629164349
4.474502816
4.353258316
4.2631226
4.200011376
4.16326135
4.145563536
4.146485492
4.162591104
4.192161194
4.231503589
4.28051661
4.336367533
4.39678567
4.460946356
4.528508212
4.614273324
4.685472621
7.00742982
6.572138347
6.2309964
5.866422817
5.488971688
5.142271747
4.925484694
4.750952051
4.61235581
4.503237976
4.422722122
4.370247142
4.336503366
4.322149403
4.324110174
4.340498811
4.36956862
4.407195551
4.453572886
4.506545918
4.590750065
4.653428634
4.712566905
4.770875455
6.934702816
6.519882869
6.212896556
5.880001044
5.592941109
5.327745949
5.049919822
4.890232777
4.761346165
4.663698699
4.59256453
4.543169204
4.515088188
4.503129032
4.506227519
4.522026636
4.550163528
4.587235065
4.65654902
4.717832809
4.769839662
4.814823152
4.856443397
6.864339743
6.582125491
6.24872519
5.973179742
5.711492185
5.469074194
5.266757253
5.051660769
4.934353165
4.844384134
4.777041469
4.734873205
4.709136527
4.69932185
4.741743641
4.764847245
4.781927096
4.808289902
4.842118186
4.873434423
4.915213055
6.637402511
6.362802484
6.08363381
5.857909698
5.646392849
5.462685477
5.335564372
5.228124308
5.139225279
5.069987913
5.016053067
4.977096589
4.965006239
4.965764854
4.961488187
4.969864161
4.980232819
4.993475047
6.461982124
6.223990205
6.050550891
5.8396875
5.678540791
5.554917137
5.449851651
5.359815153
5.287092122
5.229180218
5.19940449
5.171550516
5.137460489
5.128211718
6.154839105
5.963461173
5.84173389
5.727647706
5.619536341
5.524688872
5.447307195
5.406876734
8.063377547
7.402762834
6.660647594
5.80999876
5.260528582
4.792625862
4.394274644
4.053800685
3.768879771
3.526956376
3.333636172
3.18168982
3.064279306
2.984845553
2.937541005
2.921138189
2.931568578
2.966343792
3.0194702
3.089087244
3.169792889
3.257678682
3.3495152
3.442349407
3.53558033
3.626470919
3.714779102
3.799933254
3.881682743
3.959392817
4.033111009
4.103706232
8.072010666
7.414968504
6.66695166
5.818900859
5.261055634
4.79012913
4.3893069
4.044645775
3.758187964
3.518451052
3.325320516
3.172415345
3.058344632
2.980088999
2.934356884
2.9181628
2.929360858
2.963830032
3.01836265
3.088429938
3.169430403
3.25769889
3.350030021
3.443417796
3.536449361
3.628010327
3.716873734
3.802466436
3.884688354
3.963217384
4.036851533
4.107731107
8.099808944
7.447962773
6.706893655
5.871075018
5.315801132
4.836392524
4.431126329
4.086560025
3.793649699
3.555220543
3.357265777
3.201516535
3.08485911
3.00285986
2.95493428
2.936788575
2.947180194
2.979877338
3.032897564
3.101404871
3.18103323
3.268605878
3.360006913
3.453155213
3.546019251
3.637652646
3.726377971
3.812359052
3.893817994
3.971805926
4.046682476
4.118419178
8.244725393
7.553964346
6.798503232
5.966573757
5.403223244
4.92000005
4.510310646
4.159893131
3.865356397
3.619738611
3.417340864
3.25711057
3.134088209
3.047749079
2.995010659
2.972896691
2.978601576
3.008392052
3.058753726
3.124979533
3.202932109
3.28811908
3.378624467
3.470636958
3.562857234
3.653644404
3.742180841
3.827496768
3.909521706
3.987682229
4.062549948
4.133505052
7.730700451
6.886568444
6.06013721
5.484795276
4.99427437
4.577741296
4.219328162
3.920176824
3.667446665
3.462846696
3.297709301
3.173694003
3.084517695
3.028430552
3.004489827
3.00869189
3.036216383
3.084283142
3.148485932
3.224722663
3.309110179
3.397873685
3.48985667
3.581952333
3.672456379
3.760793486
3.846294893
3.928271343
4.007085543
4.082299128
4.154038228
7.818125867
7.030237401
6.304534763
5.594406237
5.080764411
4.652249924
4.286179112
3.978729353
3.721193122
3.509768804
3.340952657
3.213380762
3.120535264
3.063964931
3.037316013
3.039282333
3.06488299
3.111543146
3.1740897
3.249281796
3.332255347
3.420791207
3.51197699
3.603263588
3.693890955
3.782702667
3.867822607
3.950697593
4.029966274
4.105631211
4.178385273
7.911549545
7.256309954
6.55095524
5.751956215
5.237057112
4.791633085
4.412518031
4.095493131
3.831315036
3.610605264
3.43447463
3.298585704
3.199672566
3.13594672
3.102826203
3.099254998
3.119869615
3.160579728
3.218913511
3.290029907
3.370411642
3.456802828
3.546025257
3.635479387
3.725396918
3.812965296
3.899106304
3.981918147
4.061295569
4.13782488
4.210106305
8.109145495
7.448694556
6.731207648
5.943223167
5.41251805
4.951475142
4.562650729
4.239191535
3.965064496
3.735689749
3.550396437
3.40593302
3.300239384
3.228737482
3.18790904
3.175718884
3.189879477
3.225210518
3.277341483
3.343420594
3.419124044
3.501853765
3.588119176
3.67607843
3.764283462
3.851705706
3.936391626
4.01797139
4.097559183
4.17379751
4.246943771
7.702525138
6.943864525
6.271820516
5.609462719
5.133510738
4.732818312
4.390487809
4.101446784
3.862320334
3.665150633
3.51133213
3.395478031
3.316260118
3.267826701
3.249144124
3.256624891
3.286095936
3.333405377
3.395469246
3.467357114
3.546605214
3.630793664
3.717078742
3.803918918
3.889942449
3.974435142
4.057511036
4.136730835
4.21282865
4.286339799
7.938252942
7.255579017
6.564573382
5.80988162
5.317759279
4.89437205
4.538946185
4.238072718
3.992963952
3.788687929
3.628506012
3.506475937
3.419002484
3.364315529
3.339481271
3.339995732
3.36200963
3.403140661
3.458445911
3.525319474
3.60047992
3.6804677
3.763958615
3.849563364
3.934181862
4.0177149
4.099346856
4.179342415
4.256972932
4.330592131
7.579814083
6.842230252
6.196627056
5.572195164
5.128931165
4.753940577
4.434079875
4.168649082
3.952754461
3.775599762
3.642303163
3.544222456
3.479560913
3.443959839
3.435187997
3.449357998
3.482519969
3.530978934
3.59243162
3.661637315
3.737814568
3.818112886
3.900423497
3.984111121
4.06693129
4.148675336
4.228417689
4.305412043
4.380734884
7.837183456
7.210847003
6.557960271
5.847688725
5.379053906
4.984781448
4.651032218
4.369284621
4.138816258
3.950483944
3.802820963
3.69272304
3.6170456
3.570544926
3.55083895
3.55513197
3.578434829
3.618080072
3.670351292
3.733866292
3.805302731
3.88079752
3.959306907
4.0398552
4.120658107
4.200712942
4.279876367
4.357237791
4.431904712
7.544218286
6.860892116
6.270531373
5.694769549
5.274886927
4.920187978
4.619980333
4.372205695
4.164234352
4.001221759
3.874523647
3.783073707
3.722072941
3.689186943
3.679999123
3.691587709
3.721237332
3.764881491
3.819672448
3.883550819
3.953652663
4.027614482
4.104213351
4.182426752
4.260563334
4.337637363
4.413684143
4.489004596
7.810272722
7.226148668
6.656739613
6.09529323
5.542069179
5.164470096
4.844724636
4.580848315
4.362710451
4.186595067
4.049701685
3.947031862
3.874533803
3.831105143
3.812066222
3.814355492
3.833202778
3.868787265
3.915757891
3.972167586
4.03561023
4.104132814
4.176569086
4.251808284
4.327459475
4.403230899
4.478329
4.552281668
7.578964621
7.066558853
6.53690294
6.013848165
5.51303045
5.175314757
4.889294045
4.652878152
4.456471878
4.298051243
4.176878862
4.087048715
4.02567841
3.990719747
3.976662421
3.981977623
4.003617002
4.038188973
4.08369674
4.138763812
4.200022707
4.265760916
4.334340383
4.406088038
4.478906832
4.552145207
4.623905763
7.509191955
6.989072146
6.489324043
5.995600339
5.540452819
5.22936926
4.963854733
4.747763014
4.570811835
4.428870346
4.318834635
4.240233534
4.187181427
4.156118486
4.146317998
4.153945692
4.176507079
4.21049763
4.255169565
4.307366911
4.365528357
4.42846951
4.494736709
4.562645092
4.632359996
4.702352275
7.369935353
6.87506798
6.403438404
5.958018528
5.533609044
5.246789766
5.014216528
4.820149833
4.666669818
4.5405185
4.448502417
4.383409131
4.3402216
4.318680291
4.316048306
4.326126337
4.349381219
4.383233214
4.427744521
4.477268371
4.533794044
4.594671602
4.658462572
4.742270555
4.807582363
7.303197109
6.858493718
6.44146389
6.079748108
5.742186106
5.381757148
5.163132903
4.982301679
4.836589582
4.719245269
4.63504097
4.573444141
4.532667436
4.511118077
4.50767265
4.517602375
4.539176688
4.570744927
4.610821442
4.65781848
4.710310828
4.785924338
4.852753207
4.908506399
7.270198256
6.855243295
6.534366125
6.191393001
5.883499099
5.607882289
5.307797665
5.140183743
5.004590733
4.8981677
4.819886967
4.763128237
4.726411054
4.707398234
4.703733799
4.71265567
4.73334556
4.762934823
4.827931682
4.873290846
4.91604348
4.968276428
5.004964016
7.287176267
6.985421589
6.632226326
6.35305044
6.071833206