/*--------------------------------*- C++ -*----------------------------------*\
| =========                 |                                                 |
| \\      /  F ield         | OpenFOAM: The Open Source CFD Toolbox           |
|  \\    /   O peration     | Version:  v1706                                 |
|   \\  /    A nd           | Web:      www.OpenFOAM.com                      |
|    \\/     M anipulation  |                                                 |
\*---------------------------------------------------------------------------*/
FoamFile
{
    version     2.0;
    format      ascii;
    class       volScalarField;
    location    "3.2711";
    object      Ma_O2;
}
// * * * * * * * * * * * * * * * * * * * * * * * * * * * * * * * * * * * * * //

dimensions      [0 0 0 0 0 0 0];


internalField   nonuniform List<scalar> 
60268
(
5.065727986
4.85472767
4.726463519
4.610402475
4.518199841
4.445866389
4.387197849
4.351585836
4.330249028
4.326238995
4.358875043
5.114753638
4.884505885
4.727399055
4.613908621
4.524844807
4.454010064
4.396025194
4.356456861
4.334711131
4.327006154
4.361009584
4.920219161
4.744870625
4.640521165
4.545790356
4.466178407
4.4101365
4.372278542
4.351310709
4.362212056
4.39014493
5.003107206
4.80525215
4.673451818
4.577655209
4.503264035
4.443905577
4.405767574
4.377393014
4.402101398
4.905988672
4.719096176
4.617740219
4.537017961
4.476361283
4.461654233
4.450521754
4.442885343
4.86418482
4.72345438
4.642727262
4.575066762
4.551191946
5.666589623
5.306529236
5.089884193
4.894818935
4.658486943
4.41230662
4.279631031
4.181134129
4.11486437
4.072348896
4.053866424
4.054820707
4.073120606
4.106043604
4.185241461
4.248777744
4.294377407
4.346297771
4.401899277
4.47106919
5.658765554
5.334774792
5.112297316
4.918846261
4.697810386
4.477155889
4.30332447
4.205857293
4.138813129
4.094575264
4.071553775
4.070811514
4.087049666
4.118677831
4.194706876
4.256124688
4.303020714
4.353906303
4.409193071
4.472491421
5.692259183
5.354290714
5.137901051
4.941256658
4.75144211
4.547149698
4.333247901
4.233224937
4.159146041
4.115556271
4.091660401
4.090584432
4.10730329
4.165563243
4.216991326
4.268551238
4.313366651
4.3643044
4.426083884
4.491559308
5.711469382
5.389479928
5.170114685
4.967962845
4.7949471
4.600672792
4.41544482
4.263373041
4.195269879
4.14641947
4.12388233
4.117527925
4.133304323
4.195808235
4.245327278
4.286060537
4.329901278
4.377494071
4.443582736
5.820336045
5.483221386
5.237291948
5.032025139
4.85203103
4.693979564
4.528880242
4.37152331
4.255742279
4.202442163
4.174996293
4.203671444
4.21484982
4.242820917
4.280145154
4.312065954
4.351412435
4.399226174
4.462287489
5.589354214
5.292289565
5.091542141
4.907549732
4.759563068
4.620062116
4.487221951
4.385929495
4.325743142
4.286675811
4.276601376
4.282682741
4.296766799
4.315956278
4.342031826
4.38172713
4.43220165
4.490999599
5.701239166
5.391199938
5.179741151
4.99741239
4.843497862
4.714282854
4.602206135
4.509722218
4.444124296
4.397166516
4.367462583
4.354543712
4.351254816
4.365712958
4.388686172
4.432723759
4.484635567
5.562170295
5.282274742
5.089461486
4.933971012
4.801403089
4.688500518
4.597863429
4.527684779
4.474206316
4.439378619
4.420856311
4.414051267
4.420280945
4.450243865
4.497894284
5.444731373
5.205510234
5.033697618
4.900809814
4.785743753
4.686396055
4.609932364
4.554716839
4.513336175
4.486286837
4.470298104
4.48818359
4.526016638
5.364883832
5.185696359
5.008136774
4.878835154
4.774862983
4.695651843
4.634284272
4.591473303
4.583912163
4.577296476
4.584337591
5.183482384
5.037638504
4.9398368
4.856740019
4.781607456
4.720590393
4.7016273
6.232637084
5.822809941
5.523845568
5.14543976
4.74115244
4.500380691
4.304091301
4.14769751
4.023125253
3.929745242
3.86890775
3.833455115
3.82195369
3.829043938
3.855265449
3.896334381
3.949941907
4.011021014
4.081639846
4.156105237
4.234120901
4.315246193
4.4148911
4.492394149
6.263629545
5.834769535
5.536513218
5.163030546
4.742437609
4.502444193
4.310660607
4.148232738
4.024484895
3.937816122
3.874348084
3.839329552
3.825966572
3.834172978
3.861039124
3.902548964
3.95526302
4.017076501
4.087940038
4.161483278
4.240004435
4.319445681
4.416067516
4.494697883
6.279697086
5.851207431
5.560353186
5.190122137
4.776673394
4.537931652
4.343098815
4.176764647
4.051129134
3.957058335
3.891918691
3.856010361
3.84373965
3.851167265
3.876437862
3.915722816
3.967496162
4.028819777
4.098546873
4.172128963
4.250880312
4.346902773
4.430768569
4.503380753
6.319946491
5.888914177
5.595677711
5.233612859
4.831581315
4.588572482
4.387435606
4.225984328
4.098140627
3.999710218
3.936036962
3.897336347
3.881113599
3.885538437
3.90994687
3.945960446
3.994881835
4.053328054
4.121029608
4.193381053
4.271043818
4.369748502
4.451953071
4.517794601
6.43683269
5.983696854
5.665049445
5.312996147
4.965803165
4.653670329
4.444682962
4.276301848
4.148547382
4.049161609
3.984392994
3.93982096
3.920232664
3.924233292
3.942015174
3.977089121
4.025390213
4.082441999
4.147729043
4.218662145
4.293759961
4.392505866
4.473481934
4.536687878
6.117097753
5.739640879
5.453450535
5.119096706
4.767957511
4.549131775
4.372977303
4.232800368
4.126757437
4.05080942
4.002398329
3.979819743
3.972875806
3.987534768
4.01874244
4.062643034
4.116779246
4.180064992
4.248420042
4.340117305
4.421417604
4.492548222
4.557364946
6.260908691
5.848367073
5.546439288
5.230897914
4.915687122
4.628582463
4.44969589
4.307832162
4.198490374
4.118920989
4.064980152
4.038865182
4.031628467
4.042950074
4.069382791
4.10936144
4.159479067
4.221360404
4.30948168
4.38714954
4.45614652
4.517294713
4.587200413
6.018807028
5.667274825
5.40156587
5.12050095
4.838030558
4.588994714
4.429753795
4.311703017
4.223137578
4.160711383
4.124455833
4.109111821
4.113495634
4.134950831
4.170986104
4.217811871
4.298538
4.369112412
4.433811323
4.488704313
4.551929379
4.616996394
6.166955862
5.793209362
5.512102081
5.279050576
5.023255738
4.774917751
4.562417635
4.435205869
4.33220311
4.26304378
4.221672491
4.199310525
4.197717542
4.212428025
4.242207669
4.309978529
4.372281512
4.42929526
4.475596899
4.52662958
4.59205851
6.012547733
5.660831989
5.426813594
5.208579512
4.984948468
4.79715718
4.632278882
4.476679643
4.395747487
4.343520441
4.314283877
4.303402035
4.344589371
4.373277179
4.407275907
4.450103006
4.487635661
4.530930462
4.582215715
4.637807484
5.892571072
5.556053067
5.340425705
5.156135536
4.987748423
4.825381482
4.689159061
4.6068863
4.542452544
4.496079418
4.468241658
4.467812751
4.481440183
4.499322552
4.517649882
4.547506667
4.591467454
4.646140067
5.792792539
5.523308946
5.319264625
5.161074043
5.016930066
4.89474733
4.804536718
4.728377541
4.668980514
4.628606732
4.600510653
4.588127469
4.588516233
4.61249142
4.640088771
4.667911069
5.755991445
5.542980719
5.33946401
5.163694236
5.051182112
4.943228423
4.859519514
4.791659375
4.740660668
4.708360574
4.705273915
4.709535164
4.721235625
5.557159254
5.380610749
5.260730415
5.150911385
5.061000817
4.97707716
4.911962751
4.859833967
4.847088376
7.011706171
6.542816752
6.14304172
5.647727554
5.080583945
4.744512818
4.458226822
4.224175312
4.034297135
3.88277238
3.765050795
3.679273382
3.626375993
3.601309537
3.599567341
3.616399542
3.65380687
3.705039013
3.767882952
3.839355321
3.917425469
3.997686757
4.082672203
4.168339093
4.25303316
4.336754753
4.418666562
7.051022837
6.53712102
6.152397045
5.666324764
5.115647395
4.773814567
4.482968673
4.241323376
4.049186717
3.89192467
3.769623181
3.683975772
3.629239108
3.600834126
3.598517498
3.616204653
3.652837823
3.703948608
3.766990814
3.837872571
3.917530172
3.998488899
4.082905608
4.168157762
4.253315182
4.338033965
4.421441689
7.11693719
6.590419264
6.171364031
5.67965077
5.122882326
4.784696392
4.497759282
4.261626353
4.069339785
3.913755506
3.794996373
3.708791102
3.651782423
3.621602675
3.618957433
3.6351861
3.671815503
3.720707308
3.782546555
3.852294302
3.930027527
4.010749781
4.093355117
4.176701323
4.262058499
4.346491698
4.429053338
6.743560699
6.253559705
5.771301079
5.233286485
4.890679226
4.598989522
4.355516725
4.154287965
3.993122183
3.864815813
3.773656177
3.708930957
3.675522744
3.665459181
3.678676184
3.708450009
3.75503861
3.811615707
3.878122264
3.953825241
4.031813151
4.114708547
4.19866145
4.281906041
4.364588798
4.44508741
6.804766757
6.310539316
5.864302857
5.394148775
4.966040607
4.662967927
4.419043021
4.212621376
4.043985539
3.912465812
3.81685472
3.752307069
3.715752902
3.701165682
3.710264238
3.739434376
3.783456423
3.838072548
3.904117106
3.977642708
4.055606198
4.136965183
4.22016963
4.303994098
4.385881787
4.469012913
6.862881639
6.376655427
6.005427865
5.551244247
5.042736631
4.73556263
4.481244085
4.27335785
4.100073943
3.967169643
3.869142445
3.802616856
3.762092954
3.748465922
3.754867232
3.7778726
3.817743174
3.871401116
3.93431473
4.005488738
4.08182799
4.161395133
4.243731817
4.326556978
4.409025639
4.491487471
6.983280003
6.491898425
6.119099341
5.686563894
5.253931756
4.857283506
4.590782395
4.373540903
4.197069018
4.056253467
3.950144208
3.87527148
3.830196674
3.808005064
3.809238251
3.828896083
3.864878289
3.914938292
3.974415582
4.041479083
4.114723386
4.193280881
4.273620663
4.354932806
4.436812484
4.528288217
6.70090087
6.258477856
5.901639335
5.476599063
5.011751415
4.730746096
4.497844899
4.312555857
4.16103094
4.047149044
3.964460455
3.909898983
3.881227502
3.876073885
3.890393634
3.920203536
3.965663366
4.021733174
4.085340071
4.156526073
4.230963017
4.309129911
4.389719964
4.486057661
4.565781398
6.857056427
6.388997226
6.034454819
5.645706174
5.251029811
4.886012182
4.648668529
4.450959456
4.291146534
4.171962176
4.079365123
4.011215231
3.977269447
3.96450441
3.970449404
3.994021614
4.032961011
4.082375441
4.141760001
4.208707914
4.279878101
4.354297278
4.432441634
4.529726246
4.609845856
6.657726616
6.207720064
5.862890056
5.50042265
5.131289464
4.803957324
4.593378188
4.425973231
4.289218241
4.193365486
4.12201342
4.079820471
4.058895397
4.059513725
4.077214565
4.108932882
4.153785343
4.207159957
4.269843077
4.338634917
4.411228706
4.500458246
4.581390423
4.650727928
6.42035199
6.025692106
5.736909973
5.409442895
5.083834374
4.795792605
4.615445523
4.470362924
4.358452451
4.278888399
4.221981253
4.188550878
4.178473226
4.186339194
4.208675913
4.245698439
4.291320459
4.347478771
4.410618596
4.496052189
4.572043424
4.640317275
4.697950286
6.6339138
6.243755468
5.931528187
5.661038873
5.364157107
5.06880556
4.809077779
4.65207189
4.528386722
4.435182644
4.368297755
4.323681498
4.305168587
4.303379134
4.317327406
4.346384157
4.386382839
4.461054633
4.519745917
4.579938809
4.640803984
4.696063418
4.756944337
6.507642859
6.138110408
5.858051562
5.614224832
5.345741677
5.121322004
4.91823477
4.716202111
4.606384997
4.530702725
4.475930503
4.446301202
4.436855437
4.44369382
4.498555281
4.534113643
4.577246163
4.623242079
4.662534826
4.709390422
4.76769149
6.398907705
6.128649611
5.831371822
5.592797074
5.40181486
5.190924972
5.020730151
4.909139275
4.817688205
4.745248092
4.693096113
4.659589806
4.639930964
4.648292967
4.671576255
4.689574926
4.712478878
4.746329438
4.794292715
6.108749294
5.812743402
5.594797098
5.428190861
5.281506043
5.158291054
5.060100784
4.975557133
4.90954023
4.861027449
4.826765719
4.803915365
4.792018511
4.807294697
4.828647894
4.849882658
6.078475453
5.871348738
5.716320347
5.50753313
5.35747344
5.244347097
5.14894994
5.07733716
5.014437478
4.989847767
4.974036627
4.942617305
4.945317178
5.780091028
5.612811234
5.48828397
5.386640058
5.290348323
5.216920544
5.180536831
7.57143446
7.01206632
6.423635482
5.763211606
5.296813011
4.910416313
4.566559829
4.279602339
4.040195574
3.847090166
3.694466708
3.572525296
3.486396607
3.431372864
3.408857882
3.409462382
3.432986913
3.474878195
3.532776467
3.603638906
3.682100669
3.765139802
3.851950083
3.941104338
4.031256525
4.119385395
4.206717853
4.288698748
4.370408253
7.669050532
7.039568529
6.426453727
5.770347815
5.30292137
4.905926875
4.564149185
4.278242753
4.039351417
3.841071522
3.687142393
3.565919777
3.482573472
3.429925111
3.403465528
3.406546832
3.431066238
3.474462973
3.532836548
3.602744228
3.680017228
3.766084818
3.853965499
3.942768264
4.031709249
4.120041103
4.205316397
4.290415154
4.37247152
7.156793265
6.496168733
5.936047145
5.362378574
4.966927514
4.624648366
4.333095879
4.088441151
3.889114515
3.724693852
3.600498737
3.51201837
3.454666491
3.425741875
3.425599764
3.446925774
3.488435101
3.545134752
3.613982438
3.69103799
3.774999675
3.861655503
3.951047793
4.040048777
4.129312305
4.215385387
4.29841482
4.379725123
7.232087203
6.647640473
6.05792582
5.410667143
4.993600209
4.64575181
4.355817308
4.109731299
3.911646744
3.752299417
3.628109073
3.541052316
3.483400834
3.456132327
3.454244393
3.47490672
3.512803728
3.568682732
3.635378952
3.710849425
3.793200087
3.87925645
3.9675828
4.057104929
4.145518269
4.230791922
4.313814641
4.395570203
7.308510591
6.743122433
6.152760146
5.493280727
5.083825445
4.721007305
4.420626435
4.174970208
3.969865012
3.803636878
3.673419475
3.581821695
3.522428465
3.493790586
3.487839335
3.505734929
3.541157738
3.595441644
3.659664255
3.733832712
3.815823274
3.900882924
3.988940744
4.07737823
4.164360086
4.24957751
4.334319506
4.41546574
7.374290299
6.851521687
6.270578961
5.640390576
5.210654145
4.85222642
4.540648696
4.284351092
4.065970752
3.892468279
3.755606681
3.655639341
3.589487875
3.553872525
3.541101899
3.554923056
3.585730708
3.634086804
3.695053923
3.7662944
3.845672504
3.928200314
4.014480373
4.100684665
4.187685434
4.272797773
4.358014373
4.440571363
7.504099656
6.94349321
6.407563099
5.854752538
5.321073507
4.946038322
4.632232473
4.368881131
4.147625996
3.973387482
3.832105214
3.726991257
3.656795021
3.615555588
3.599460687
3.607906917
3.637714361
3.680329908
3.737866955
3.80706187
3.882389921
3.963258179
4.047003172
4.132059644
4.217266492
4.303223766
4.386721267
4.469424626
7.161168407
6.617474623
6.083952762
5.474800522
5.088150893
4.761090877
4.48644936
4.255223139
4.067019381
3.920511034
3.813093914
3.734029985
3.684492794
3.662666609
3.668087385
3.689856066
3.730393597
3.785217508
3.848608473
3.921126177
4.000710641
4.082311017
4.165115058
4.250526407
4.333819876
4.417603661
4.499534497
7.358872272
6.803111451
6.283360057
5.777447909
5.288976092
4.935611702
4.64538589
4.401594133
4.20234754
4.043894379
3.920904963
3.834662745
3.777099332
3.748063245
3.743990173
3.758022796
3.79278563
3.842139308
3.901325337
3.968291242
4.044374196
4.123006677
4.204569046
4.287988577
4.37211691
4.453760331
4.534939249
7.049033927
6.52397296
6.054368319
5.559434449
5.095531031
4.797698442
4.543748374
4.339882076
4.174452286
4.044818406
3.947671055
3.885900277
3.848320464
3.836387177
3.845947659
3.873299284
3.915074499
3.967976988
4.031570442
4.100650332
4.177708224
4.256055756
4.335613107
4.417254595
4.499272908
4.580841216
7.255335054
6.739477609
6.352328374
5.869273321
5.345343995
5.02560505
4.75687237
4.533166375
4.35438228
4.213944134
4.105885254
4.030568443
3.981457702
3.957349954
3.955542787
3.972953639
4.004742949
4.05196412
4.109553683
4.172814737
4.242692599
4.318332593
4.395273192
4.474872967
4.55423039
4.633973475
7.073764885
6.572250208
6.107985841
5.661922737
5.242518604
4.959240088
4.718891497
4.526114435
4.373451011
4.257369439
4.16933825
4.113225696
4.079890064
4.068181124
4.077061875
4.102222117
4.142318281
4.191956123
4.251155839
4.317489939
4.385776854
4.460356185
4.535892808
4.631548342
4.706226541
6.838579726
6.396003919
6.003469378
5.597480448
5.220131776
4.969240469
4.755808323
4.586876915
4.45823528
4.35349144
4.284990795
4.237935813
4.215129566
4.213029804
4.225806579
4.253289299
4.292681677
4.343509647
4.402883897
4.465623989
4.534528266
4.627704063
4.707622136
4.775613938
7.07534427
6.638387157
6.307025898
5.939722076
5.626320836
5.318612346
5.008529471
4.815988212
4.666850806
4.555679428
4.467927525
4.410606864
4.371448131
4.355282949
4.360593494
4.377456638
4.406544323
4.449503317
4.500426115
4.558881116
4.641651531
4.716576981
4.781859867
4.838812402
6.967813787
6.661320963
6.277836885
5.962276517
5.668880407
5.360144592
5.092680751
4.925672434
4.789645465
4.687292874
4.610990949
4.561577548
4.531636378
4.519730006
4.524710282
4.544019899
4.577658808
4.650516182
4.701038933
4.753419385
4.806375813
4.85432113
4.910608001
6.640001511
6.242089974
5.98623667
5.716830467
5.487889514
5.312270214
5.130056302
4.944950426
4.849189752
4.78519115
4.73913262
4.715864708
4.751751641
4.766816342
4.776964377
4.804384204
4.836955773
4.873747546
4.911822229
4.948068138
6.567484847
6.310243339
6.030507762
5.798633645
5.627609364
5.431377085
5.27439194
5.171897721
5.085361483
5.022501889
4.972994445
4.954209452
4.952770865
4.946800622
4.945892512
4.959713718
4.996890607
6.331630668
6.10315697
5.871921785
5.694936904
5.554402728
5.439741992
5.340336876
5.257890222
5.192543798
5.143837041
5.12186109
5.111990197
5.092371753
5.096140803
6.188172517
5.982729369
5.85396911
5.727887836
5.60453413
5.50560721
5.423624379
5.347330821
5.32083253
7.750286765
6.929171066
6.167724012
5.597657918
5.117743135
4.709806905
4.374218773
4.076026924
3.833212476
3.637320025
3.479596095
3.362490807
3.276345838
3.225713766
3.205758274
3.213877426
3.244192364
3.293317888
3.359285163
3.437429976
3.523585241
3.614570774
3.708850921
3.803169397
3.896710157
3.987663218
4.075982548
4.160923241
4.24347843
4.322055612
7.721572141
6.993688858
6.298849627
5.630010896
5.154519643
4.745437653
4.396459408
4.098535718
3.857020475
3.651350868
3.491928916
3.371390872
3.285053376
3.232983383
3.210130906
3.214479983
3.246411051
3.295608926
3.360763698
3.438757115
3.523814902
3.616105212
3.709032648
3.803238359
3.897479531
3.988735337
4.077156722
4.163462217
4.246467979
4.325830713
7.743943214
7.104828038
6.420535977
5.656060307
5.175618134
4.756846005
4.402660274
4.112570953
3.861446939
3.661747664
3.500650112
3.378227618
3.295419946
3.242886176
3.22165124
3.22782112
3.256141474
3.305325748
3.370389708
3.448657525
3.533900279
3.624368843
3.718282482
3.812327218
3.905997065
3.998062364
4.087140372
4.172875281
4.257052072
4.335895018
7.829515595
7.199161027
6.521449885
5.761170977
5.260031614
4.844400743
4.481074004
4.181441526
3.928753274
3.72131946
3.555892807
3.42912901
3.337901424
3.28356473
3.257926889
3.257741006
3.284307421
3.330956933
3.394458758
3.468804999
3.55371309
3.643204474
3.735101242
3.828789414
3.921527737
4.012940846
4.10125417
4.187484094
4.271063293
4.351294573
7.913496185
7.281550116
6.624050298
5.876559259
5.365486306
4.937857491
4.5852851
4.271955752
4.012840601
3.802730499
3.63046435
3.495703869
3.398118385
3.336929791
3.306174043
3.30276478
3.324568442
3.365250636
3.425696337
3.497589136
3.578248298
3.666041161
3.756986937
3.850169252
3.943032327
4.032847998
4.121497595
4.207225393
4.289821906
4.37030411
8.056289103
7.41809594
6.717701573
5.971128751
5.45690708
5.020720699
4.646745529
4.33952689
4.070568157
3.852927249
3.680487515
3.544731651
3.441881592
3.376573829
3.345071123
3.338287453
3.358230351
3.397815296
3.455340046
3.525072905
3.604709396
3.69029093
3.78093228
3.872645646
3.964304652
4.055573346
4.144247771
4.230535807
4.314404056
4.395067542
7.617519226
6.871207523
6.235470653
5.607275612
5.163668042
4.782028248
4.45486888
4.179745272
3.958324862
3.772321422
3.632687774
3.524750171
3.452509502
3.411079296
3.400911004
3.414403469
3.448412714
3.501720819
3.566913566
3.644355391
3.728153897
3.815256521
3.904102069
3.995732312
4.086031474
4.173660062
4.2603815
4.343937811
4.424701732
7.730876214
7.123192598
6.492226456
5.797820591
5.331338653
4.931102851
4.599107813
4.317798394
4.080805725
3.88581938
3.733654964
3.617997186
3.53971381
3.4900712
3.472031303
3.481091037
3.507912495
3.55538768
3.618331673
3.6895307
3.769025055
3.854660722
3.941818691
4.031291019
4.121063804
4.208741788
4.293873989
4.37701136
4.456789622
7.913721882
7.348420427
6.698805111
6.087234891
5.491548741
5.074164756
4.727690094
4.43236159
4.188690309
3.985477179
3.827127862
3.70849055
3.621591766
3.568479421
3.546581759
3.54772042
3.571333373
3.613371094
3.670611609
3.739791393
3.815051475
3.897533143
3.983468655
4.069216629
4.156824974
4.244240422
4.330983886
4.415192835
4.496554156
7.539212078
6.97149831
6.384380685
5.73091608
5.307786715
4.94098228
4.633110479
4.373498144
4.163318189
3.9921669
3.859708879
3.761058803
3.694377814
3.660873021
3.648169013
3.663436395
3.697223909
3.745282761
3.806074011
3.877425508
3.952778028
4.034664496
4.1193948
4.204343894
4.291071994
4.374137546
4.456766135
4.537953886
7.802761124
7.223654241
6.652002827
6.081923029
5.537546154
5.136944365
4.821692991
4.548346457
4.325043788
4.139435538
4.001877769
3.896247441
3.822735366
3.775755242
3.759173575
3.761926176
3.786784746
3.82827669
3.881753521
3.94547424
4.01685929
4.094914179
4.176382153
4.259707453
4.343373391
4.426417806
4.509340376
4.588652114
7.478534281
6.958080021
6.453137318
5.914578591
5.404761871
5.063944938
4.77205647
4.529421433
4.333104918
4.176117253
4.055128605
3.966374789
3.90925768
3.88166818
3.876142393
3.888196488
3.921366061
3.967710453
4.025351851
4.091413543
4.164318243
4.240211175
4.321729158
4.400852714
4.482417388
4.563617842
4.644424202
7.773836406
7.198540845
6.775307175
6.250060049
5.666931542
5.302090851
4.998116734
4.739718757
4.529180464
4.359687233
4.231100903
4.133699859
4.065903401
4.024071683
4.006623739
4.010723725
4.033160568
4.068823638
4.116580752
4.175959266
4.242273097
4.313173869
4.388660359
4.467649723
4.544442631
4.622829942
4.70235735
7.560140055
7.059282154
6.556421749
6.066199808
5.604549212
5.27767608
4.99711887
4.769551239
4.582530442
4.430766248
4.318647476
4.235530842
4.182052888
4.151948563
4.141002877
4.152197427
4.176885484
4.217366712
4.269702446
4.328718798
4.395169035
4.465231896
4.538307381
4.61474898
4.689694578
4.781317045
7.411940481
6.903429769
6.441053412
6.066047425
5.673248932
5.265933571
5.020930325
4.818497442
4.653181788
4.522101557
4.425592098
4.356663995
4.315500943
4.295603233
4.295044917
4.31216738
4.341137236
4.382600747
4.432556581
4.489470056
4.555270349
4.624192505
4.696088382
4.786142969
4.859963067
7.293835579
6.845995768
6.484493607
6.117011387
5.714975301
5.35031075
5.123796741
4.939015533
4.794517987
4.676794621
4.5928242
4.536006286
4.494268607
4.480362899
4.482732277
4.496697759
4.526627125
4.566708949
4.61479598
4.670101848
4.758147317
4.823453738
4.886162612
4.948836088
7.215947403
6.790746078
6.469236126
6.12527339
5.817890399
5.544525013
5.246566601
5.081575984
4.946767777
4.841105018
4.76532442
4.714629013
4.678874297
4.666094677
4.67007203
4.686370842
4.713996263
4.752017714
4.825232135
4.888892609
4.941012716
4.988303085
5.032760831
7.150665702
6.849903822
6.500258223
6.220818883
5.942352291
5.689462969
5.473090385
5.243501896
5.12854497
5.024416074
4.956800425
4.911294448
4.882980485
4.870974921
4.915350167
4.936226689
4.955261831
4.9831778
5.016522557
5.048597348
5.092850328
6.901419906
6.623323135
6.329515074
6.090214946
5.871014612
5.676718788
5.541981051
5.42766997
5.332726047
5.261813349
5.204387927
5.163692035
5.148811432
5.148352165
5.1422651
5.149961259
5.160442949
5.173706256
6.726104241
6.47681086
6.290302319
6.074095623
5.898036188
5.769325751
5.654805701
5.562065964
5.484452705
5.423755537
5.390605578
5.362865515
5.328249374
5.319434647
6.393073139
6.191350983
6.057510946
5.940602777
5.828678171
5.728650476
5.645125652
5.60462093
8.420600211
7.728958178
6.961733419
6.069501003
5.502306659
5.008687688
4.588020409
4.231334795
3.932324906
3.675288108
3.470062181
3.308226287
3.180819833
3.094690146
3.042671852
3.021263619
3.030866692
3.06576917
3.119482748
3.191609438
3.277058673
3.36936289
3.467093283
3.565519843
3.665122604
3.762464836
3.856469756
3.947527909
4.035253636
4.117921466
4.197814512
4.273088543
8.429580766
7.754155084
6.958724314
6.084822042
5.503635711
5.005838905
4.589989555
4.220440218
3.919106708
3.663317178
3.462291331
3.296082786
3.173806241
3.08878321
3.03849564
3.017530843
3.026570765
3.061418331
3.11855329
3.191414256
3.276004367
3.369352251
3.466720665
3.566960224
3.666248734
3.764214269
3.858728662
3.950105875
4.038086099
4.12249115
4.200594399
4.276652622
8.459215473
7.785143333
6.999162077
6.141551671
5.558944395
5.059962386
4.630936935
4.26372838
3.957265953
3.703698608
3.493308401
3.325014934
3.201071477
3.113551847
3.06004442
3.038261125
3.046701476
3.078761956
3.133357777
3.203698093
3.287357023
3.380795876
3.478667329
3.576288418
3.675570177
3.772932605
3.867874271
3.959746886
4.04773469
4.131134935
4.210949257
4.286344378
8.617953937
7.882285374
7.10119521
6.236045825
5.644236571
5.134066201
4.713334277
4.343023521
4.027958381
3.772186252
3.557306379
3.385790506
3.254747677
3.160064098
3.102543457
3.077627022
3.080296948
3.108807062
3.161655579
3.2296763
3.310868024
3.400703688
3.497201074
3.594697224
3.692976146
3.789935973
3.88393086
3.975777383
4.062852009
4.1454336
4.22639761
4.303375208
8.05929586
7.201178476
6.338212734
5.731236281
5.21923783
4.781486965
4.402073135
4.091427752
3.823353253
3.602712297
3.429622099
3.296967826
3.200594559
3.137123509
3.109568987
3.111206019
3.137447504
3.186632904
3.253620911
3.333720539
3.422030488
3.516369403
3.614915307
3.711567396
3.809063431
3.904059142
3.994546744
4.082058142
4.166415392
4.247023322
4.324112936
8.174901421
7.345893557
6.59936972
5.856464533
5.309635687
4.859158339
4.475049804
4.149038583
3.875591423
3.652175053
3.471397509
3.33656181
3.235483505
3.171821854
3.141468261
3.141543933
3.165536521
3.213288934
3.278302566
3.356721154
3.444996715
3.538572283
3.636104707
3.734265541
3.830302331
3.924727617
4.016309449
4.1053785
4.190232964
4.270594408
4.347588932
8.270821026
7.590517271
6.849205859
6.009641334
5.469186875
5.008277479
4.607391714
4.269844831
3.993174879
3.757426512
3.572153326
3.425584068
3.319415932
3.249250308
3.211185267
3.205095807
3.22488602
3.265338101
3.325387861
3.399792241
3.484284511
3.576356751
3.671790656
3.766291068
3.862839929
3.956591357
4.04804289
4.13546302
4.219716996
4.302990166
4.380478722
8.459008025
7.780852536
7.028957661
6.213896975
5.657451232
5.172198103
4.756511173
4.424455133
4.130456088
3.889890149
3.692940462
3.539778654
3.424035832
3.346236584
3.301269252
3.284010927
3.297887236
3.334367913
3.387404873
3.455799655
3.535356683
3.622960717
3.714598712
3.808466586
3.902469415
3.995161153
4.085837949
4.17286738
4.259620379
4.339875592
4.417160356
8.045851868
7.249493511
6.558659961
5.853253222
5.364027936
4.946492557
4.579953454
4.27457353
4.024097861
3.8117469
3.647165741
3.525420561
3.435947412
3.38355318
3.361595363
3.367793423
3.39612276
3.4448466
3.50924568
3.584525152
3.668597533
3.758262798
3.850301467
3.941798165
4.034784616
4.125173142
4.213350236
4.297597104
4.379653091
4.458367697
8.297296164
7.582623766
6.852807869
6.062912789
5.549405697
5.112104151
4.731290166
4.4181912
4.156364346
3.941304664
3.770729864
3.640204697
3.544763294
3.485002651
3.456382633
3.454234746
3.475282226
3.517482816
3.575258997
3.644623134
3.724633619
3.808739932
3.897919951
3.98875771
4.078905756
4.168081014
4.254634927
4.341372546
4.424046256
4.50297656
7.918199271
7.156699966
6.46973276
5.826244329
5.361303031
4.963156355
4.62396773
4.343325007
4.114629082
3.926191783
3.784022673
3.679159053
3.609131053
3.565379792
3.555940162
3.567186838
3.59941347
3.650874805
3.714163355
3.787017614
3.867169949
3.952438804
4.040650022
4.12957668
4.2175191
4.305297274
4.389697319
4.47320749
4.553957904
8.205088664
7.533180889
6.842276853
6.094298848
5.62226022
5.205666709
4.852751229
4.55695579
4.309499502
4.109343506
3.951067024
3.833457503
3.750613463
3.697734357
3.675665192
3.67748997
3.700690134
3.740515572
3.795342687
3.861220764
3.937515832
4.017153064
4.10086434
4.185915141
4.271927265
4.359070009
4.442842714
4.525511122
4.605189943
7.875797267
7.16463508
6.537446119
5.948654967
5.505411459
5.130364202
4.820169064
4.552000229
4.334365447
4.161196773
4.02389624
3.92798286
3.860882537
3.822834392
3.809983788
3.820071598
3.849562732
3.89487717
3.951939483
4.018999947
4.09371796
4.17146614
4.252451514
4.336368691
4.419628692
4.502047462
4.58386312
4.663345082
8.139998579
7.542457591
6.94546703
6.357949011
5.773355552
5.384325452
5.049563114
4.765705591
4.539100705
4.354124692
4.206460137
4.095250684
4.017451518
3.969279293
3.947193783
3.948594604
3.967763262
4.003436382
4.051655495
4.112173121
4.177331641
4.249133905
4.325436394
4.405764238
4.486933029
4.568035281
4.64934474
4.728494259
7.903347705
7.373082673
6.817860185
6.268571885
5.743052002
5.395828
5.092371441
4.840726972
4.634570514
4.466779849
4.336184012
4.240450111
4.17451463
4.13666636
4.118628348
4.123686302
4.14601541
4.180941501
4.226212904
4.285307756
4.349729003
4.419103086
4.490471454
4.567712973
4.645339359
4.724809594
4.80089997
7.839969991
7.290646024
6.764004133
6.25002881
5.77673597
5.447825821
5.166979484
4.943648403
4.754093477
4.604381953
4.486244146
4.402185366
4.344777886
4.308858029
4.296741322
4.303452324
4.325796689
4.360887976
4.408446729
4.463246038
4.52363685
4.590134815
4.659149199
4.730799201
4.806225455
4.881459626
7.666663959
7.157570014
6.679494563
6.21780668
5.764635811
5.463445286
5.215637855
5.013882789
4.848810036
4.711577686
4.6157291
4.544133903
4.502207996
4.477027083
4.472704154
4.48116319
4.504471462
4.53941371
4.58679362
4.6396474
4.698334606
4.762882296
4.830016568
4.917086589
4.986266043
7.60191169
7.142163823
6.708892739
6.32877051
5.983425723
5.605600606
5.374599717
5.184269574
5.025124176
4.901104237
4.812879107
4.746230538
4.702274792
4.67832547
4.673239184
4.681082508
4.703642856
4.737244023
4.779309248
4.82920502
4.883605349
4.961523829
5.031818097
5.089915674
7.576414231
7.141372056
6.803728729
6.443751713
6.129094743
5.83530268
5.522070796
5.349754396
5.199814038
5.087752779
5.002925834
4.942031582
4.903309967
4.883135807
4.877717014
4.887326128
4.906060918
4.936286342
5.002280249
5.051565071
5.09781249
5.149443052
5.189838168
7.570974635
7.269643189
6.905807679
6.615839938
6.321951144
6.062614559
5.873430609