/*--------------------------------*- C++ -*----------------------------------*\
| =========                 |                                                 |
| \\      /  F ield         | OpenFOAM: The Open Source CFD Toolbox           |
|  \\    /   O peration     | Version:  v1706                                 |
|   \\  /    A nd           | Web:      www.OpenFOAM.com                      |
|    \\/     M anipulation  |                                                 |
\*---------------------------------------------------------------------------*/
FoamFile
{
    version     2.0;
    format      ascii;
    class       volScalarField;
    location    "3.2711";
    object      mct_N2;
}
// * * * * * * * * * * * * * * * * * * * * * * * * * * * * * * * * * * * * * //

dimensions      [0 0 1 0 0 0 0];


internalField   nonuniform List<scalar> 
60268
(
0.0005385369829
0.0005154988256
0.0004973655876
0.0004788617342
0.0004626729483
0.0004478874597
0.0004351941668
0.0004224810586
0.000413025988
0.0004039495102
0.0004007291152
0.000438015777
0.0005108660916
0.0004967253064
0.0004802918399
0.0004642241238
0.0004494625897
0.0004357253353
0.0004243379601
0.0004142247763
0.0004041916791
0.0003996775629
0.0005053177609
0.0004989973314
0.0004823102801
0.0004659028482
0.0004512375036
0.0004380353623
0.0004263970934
0.0004150940339
0.0004753586613
0.0003255138014
0.0004240950909
0.0004976422064
0.0004842865706
0.0004683472477
0.0004544989916
0.0004407336006
0.0004282253033
0.0004156010087
0.0003978866393
0.0004012754364
0.0004840412122
0.0004725619638
0.0004573396268
0.000443423042
0.0005056871522
0.0004085149822
0.0003486780943
0.0004004514301
0.0004788468169
0.0004694497815
0.0004496496444
0.00035767397
0.0006056137647
0.0005787096461
0.0005585861663
0.0005362302107
0.0005095704327
0.0004827699177
0.0004638987755
0.0004468312668
0.0004314449398
0.0004180962251
0.0004064830605
0.0003966291791
0.0003885188663
0.0003823302751
0.0003797871099
0.0003803142457
0.0003772641698
0.0003747140456
0.0003759824348
0.000378010323
0.0006091397301
0.0005773023253
0.000556363954
0.0005428379697
0.0005184802314
0.0005050806899
0.0004629460597
0.0004460032867
0.0004310268878
0.0004179399752
0.0004065030651
0.0003967421715
0.0003889223108
0.0003827543231
0.0003808759579
0.00038070645
0.0003774606468
0.0003759118396
0.0003740526714
0.0003783158066
0.0006152686917
0.0005803395688
0.0005588323125
0.0005354592132
0.000508834786
0.0004959262937
0.0004661440887
0.0004492216548
0.0004340170959
0.0004206015274
0.0004089541948
0.0003990772619
0.0003910715853
0.0003886499532
0.0003727317526
0.0003861089586
0.0003788052402
0.0003762890971
0.0004309378427
0.0003066498028
0.0006207549749
0.0005844634194
0.0005623943798
0.0005430013264
0.0005270561534
0.0005078680138
0.0004926052535
0.000454806557
0.0004392449355
0.0004257288322
0.0004137532159
0.0004035118118
0.0003953184885
0.0003840512886
0.0004045950688
0.0003807421774
0.000380614966
0.0003778849887
0.0003652873595
0.0005014605065
0.0005924866167
0.0005648411476
0.0005436242854
0.0005242790043
0.0005041080845
0.0004959931029
0.0004792636447
0.0004443505677
0.0004305117835
0.000418572477
0.0004130573714
0.0003963853709
0.000392292075
0.00040063166
0.0003894326802
0.0003835359386
0.0003803416471
0.0003809185394
0.0005846203397
0.0005713547044
0.0005510380043
0.0005311624225
0.0005117292574
0.0004929642505
0.0004923827649
0.0004573402466
0.0004417402794
0.000429697949
0.0004081192001
0.0004289239663
0.0004134563477
0.0003938642363
0.0003914165075
0.0003862114055
0.0004421685448
0.0003135077471
0.0004911556779
0.0005822772963
0.000553410899
0.0005336059055
0.0005150101348
0.0004981608062
0.0004735215655
0.0004641086062
0.0004522031356
0.0004386619376
0.0004326032729
0.0004134305207
0.0004096777521
0.0004004493554
0.0003936313241
0.0004520528182
0.0003068414226
0.000462199592
0.0005670672251
0.0005401078016
0.0005211173175
0.0005035227522
0.0004851578151
0.0004702391336
0.0004568322933
0.0004446426373
0.0004330038798
0.0004222869274
0.0004130094463
0.0004053532708
0.0004631427649
0.000313582872
0.0004513674942
0.0005564973753
0.0005316111991
0.0005123261622
0.0004947142568
0.0004795722739
0.0004640727583
0.0004517364965
0.0004401973217
0.00042967773
0.0004193767355
0.0004778246965
0.0003242042138
0.0004594355316
0.000522156506
0.0005255877741
0.0005036464038
0.0004882807438
0.0004739126764
0.0004598399143
0.000447348497
0.0005032718953
0.0004153151605
0.0003452248795
0.0004348699456
0.0005191185642
0.0005028371713
0.0004867666796
0.0004713599278
0.0004589461082
0.0003672671715
0.000652802347
0.0006208629939
0.0006005204414
0.0005653844065
0.0005273038952
0.0005027624704
0.0004800502633
0.0004593804467
0.0004407533961
0.0004238618335
0.0004087834001
0.0003958073528
0.0003844956779
0.0003751023475
0.0003677659177
0.0003622937443
0.0003585851599
0.0003568388794
0.0003568233749
0.0003585634515
0.0003619061157
0.0003667183344
0.000373350562
0.0003823038402
0.0006604206037
0.0006270622086
0.00060064207
0.0005681602908
0.0005329174621
0.0005075842193
0.0004844030367
0.0004631213075
0.0004437768885
0.0004262427006
0.0004106487948
0.0003972435758
0.0003857967328
0.0003761806917
0.0003687978999
0.0003631044161
0.0003594347259
0.000357561978
0.0003575861619
0.0003591874474
0.0003623924974
0.0003670325849
0.0003732211845
0.0003829595508
0.0006652760321
0.0006260498365
0.0006036367042
0.0005688997868
0.0005349419959
0.0005100661169
0.000487161558
0.0004664106097
0.0004472337608
0.0004300224932
0.0004145314145
0.0004008609528
0.0003891830713
0.0003793174025
0.0003715658505
0.0003657656542
0.0003618203609
0.0003598296814
0.0003594812247
0.00036079721
0.000363648124
0.000372008298
0.0003644744654
0.0003876837134
0.0006706623404
0.000632940749
0.0006053606934
0.0005725648125
0.0005395781383
0.0005143859037
0.0004911062179
0.0004697384913
0.0004503540605
0.000432798413
0.0004172699026
0.0004038041377
0.0003919834336
0.000382233296
0.0003745556084
0.0003685122274
0.0003644075386
0.000362105744
0.0003616540946
0.0003628462513
0.0003655775417
0.0003663343879
0.0003914892833
0.0003781436173
0.0005428250896
0.0006454389615
0.0006203497747
0.0005930832791
0.0005719496645
0.0005225039747
0.0004987601329
0.0004772007899
0.0004576672396
0.0004399712965
0.0004241457246
0.0004101281726
0.0003982367836
0.000388186122
0.0003798772498
0.0003737783725
0.0003693622499
0.0003666177185
0.0003656666085
0.0003663209925
0.0003686114787
0.0003730481383
0.0003814580968
0.000385509249
0.000628353202
0.0006111990801
0.0005791289093
0.0005637864479
0.0005263339004
0.0005028542433
0.0004818172473
0.0004627312117
0.0004454354723
0.0004300093272
0.0004164254879
0.0004045311527
0.0003944704732
0.0003862126814
0.0003797000274
0.0003750003688
0.0003719036597
0.0003705063796
0.0003707153175
0.0003764228442
0.000367393051
0.0003876110047
0.0003876629151
0.0005338827593
0.0006326502453
0.0006091152452
0.0005820646917
0.0005601531793
0.0005167042
0.0004949191549
0.0004748423419
0.0004568418515
0.0004404520233
0.000426043445
0.0004135228188
0.0004029584455
0.0003940169997
0.000386942677
0.0003816912629
0.0003781811976
0.000376302901
0.0003795047195
0.0003624534529
0.0004021394481
0.0003790823543
0.0004236373453
0.0006200353439
0.0006021815178
0.0005806979496
0.0005700156231
0.0005450267107
0.0005026845579
0.0004831783091
0.0004652534725
0.0004495177181
0.0004350968448
0.0004224740397
0.0004117143124
0.0004027869189
0.0003953662051
0.0003897789327
0.0003857575579
0.0003872133323
0.0003679816048
0.0004051284875
0.0003827124209
0.0004416376658
0.0003167980285
0.0005259751419
0.0006259697322
0.000591645517
0.0005702908993
0.0005595924737
0.0005347452452
0.0004952724591
0.0004771123321
0.0004606801744
0.0004462758954
0.0004333560675
0.0004225302127
0.0004132187411
0.0004054126519
0.0003994159194
0.0003992342404
0.0003776573482
0.0004133393481
0.0003889353255
0.0003901942037
0.0003730569821
0.0004945784424
0.0006095669762
0.0005779880831
0.0005572171967
0.0005572381028
0.0005058635014
0.0005078740814
0.0004723307031
0.0004576025335
0.0004444640913
0.0004332017068
0.0004234555803
0.0004213134462
0.0004057896061
0.0003962930423
0.0004247939463
0.0003973043613
0.0003966118376
0.0004523054935
0.0003234718013
0.0004855808579
0.0006025860915
0.0005727104451
0.0005425797694
0.0005418836243
0.0005341392668
0.0004931201883
0.0004786146867
0.0004651662036
0.0004537813007
0.0004411036931
0.0004206497358
0.0004433572565
0.0004270927274
0.000408430191
0.0004062600416
0.0004624036212
0.0003180397247
0.0004816787817
0.0005914858237
0.000561975182
0.0005458520667
0.000517743622
0.0005090342118
0.0004942011216
0.0004793298529
0.0004672514548
0.0004566347507
0.000451342105
0.000430804986
0.0004268414417
0.0004832240531
0.0003952764835
0.0003372435824
0.0004863558574
0.0005537167131
0.000562448805
0.0005347656963
0.0005202075283
0.0005041805307
0.0004913633614
0.0004775635759
0.0004667596563
0.0004548043369
0.0005112107802
0.000422664961
0.0003549540494
0.0004678792068
0.000556553455
0.0005413219164
0.0005229494893
0.0005072146712
0.0004918410746
0.0004789685067
0.0004680153613
0.0003754541397
0.0007100848059
0.0006794535579
0.0006520094999
0.0006146724688
0.0005743320819
0.0005447579446
0.0005171794201
0.0004914382298
0.0004674236906
0.000445054286
0.0004247673486
0.0004063679396
0.0003901408039
0.0003760932111
0.0003644123858
0.0003548740537
0.0003476600145
0.000342722837
0.0003400306473
0.0003394749454
0.0003408838375
0.0003440206324
0.0003488944863
0.0003554486012
0.0003634390731
0.0003728670925
0.0003835347032
0.0007157067246
0.0006810501397
0.0006550631585
0.00061543053
0.0005742560931
0.000544835557
0.0005179646466
0.0004927591774
0.0004692563174
0.000447509468
0.0004274105354
0.0004093122507
0.0003931146647
0.0003790191639
0.0003672300465
0.0003576474478
0.0003503053615
0.0003452273602
0.0003421736826
0.0003413392209
0.0003424395603
0.0003455108685
0.0003502869357
0.0003565214774
0.00036433636
0.0003734596282
0.0003837817382
0.0005836090264
0.0006931916704
0.0006566742617
0.0006197167067
0.0005816395672
0.000551698687
0.0005236920504
0.0004976577558
0.0004731515886
0.0004507094225
0.0004302212335
0.0004116713481
0.0003952934511
0.0003811909935
0.0003693376516
0.0003594902034
0.0003520523095
0.0003468081787
0.0003439554403
0.0003430220231
0.0003439385485
0.0003467473253
0.0003512473859
0.0003574301518
0.0003648966858
0.0003738915458
0.0003840987269
0.0006747483
0.0006532575161
0.0006168438168
0.0005779509216
0.0005479624709
0.0005201378986
0.0004947192237
0.0004711415017
0.0004494113331
0.0004297210889
0.0004117981388
0.0003959767525
0.000382303032
0.0003706637359
0.0003610465543
0.000353867267
0.0003487912969
0.000345681287
0.0003445656976
0.0003454108804
0.0003479149175
0.0003521823767
0.0003580899515
0.0003654084417
0.0003740334106
0.0003839909033
0.000707943378
0.0006717292929
0.0006400059058
0.0006169939159
0.0005558282464
0.0005278255125
0.0005021243444
0.000478397088
0.0004565935263
0.0004365326668
0.0004186691574
0.0004024875037
0.0003884982341
0.0003766354338
0.0003669791353
0.0003591733824
0.0003537284268
0.0003503234752
0.0003486416936
0.0003489309144
0.0003511202207
0.0003549678222
0.0003603254434
0.0003671900836
0.0003753669559
0.000384730198
0.0007175577181
0.0006652973258
0.0006301134249
0.0006106378195
0.0005679564517
0.0005396868751
0.000513667774
0.0004895902262
0.0004670928518
0.0004463499868
0.0004278103237
0.0004112454119
0.0003966827968
0.0003843185424
0.0003741221267
0.0003660421687
0.0003600270304
0.0003560234358
0.0003539671696
0.0003537583745
0.0003553084812
0.0003585245315
0.0003634120002
0.0003697109832
0.0003772438854
0.0003861354502
0.0005781430194
0.0006898853249
0.0006595166675
0.0006297000264
0.0006058112225
0.0005468597218
0.0005207058484
0.0004966619458
0.0004748104351
0.0004547563437
0.0004363203765
0.0004200054203
0.0004057517446
0.000393308937
0.0003829122762
0.0003744099117
0.0003679752296
0.0003635925893
0.000361074477
0.0003602545152
0.000361177765
0.0003637977583
0.0003678462705
0.0003733859499
0.0003802536353
0.0003883691397
0.0006735648942
0.0006497433938
0.0006157547901
0.0005974901102
0.0005581471266
0.0005325296411
0.0005084069135
0.0004864556037
0.0004663412947
0.0004477980755
0.0004312284068
0.000416632637
0.0004038648376
0.0003932048213
0.0003844158033
0.000377433531
0.0003723669472
0.0003691527164
0.0003677705943
0.0003679869171
0.0003698939221
0.0003731880139
0.0003778118455
0.0003884246493
0.0003691878821
0.0005683928016
0.0006809162377
0.0006518632339
0.0006220317889
0.000596494009
0.0005439923483
0.0005195600647
0.0004970683269
0.0004767236426
0.0004584200358
0.0004417618214
0.0004271188321
0.0004141877349
0.0004032924671
0.0003942416825
0.0003868742056
0.0003814416255
0.0003775651042
0.0003754838074
0.0003750738375
0.0003760840993
0.0003786732562
0.0003825542445
0.0003832374302
0.0004109258601
0.0005368280912
0.0006626385482
0.0006228833637
0.0006141060413
0.0005858433664
0.0005360136897
0.0005133722079
0.0004923024027
0.0004733082553
0.0004561773665
0.0004408238742
0.0004273408561
0.0004157807548
0.0004058585982
0.0003978569474
0.0003915681965
0.0003869182031
0.0003839163488
0.0003826164393
0.0003828414832
0.0003845498823
0.0003931036087
0.0003809806893
0.0004063631017
0.0006525972306
0.0006336014193
0.0006115845941
0.0006015288273
0.0005726963394
0.0005246767952
0.000503704893
0.0004848684509
0.0004676385467
0.0004524949486
0.0004390376871
0.000427359043
0.0004174031684
0.0004090464771
0.0004023002125
0.0003971625688
0.0003936165097
0.0003917584519
0.0003911835354
0.0003975382391
0.0003778030948
0.0004198905135
0.0003982243838
0.0005534096891
0.0006657580384
0.0006238808835
0.000601976683
0.0005920354051
0.0005640258558
0.0005208566585
0.0005015659861
0.000484086396
0.0004684588729
0.0004547292019
0.0004427453856
0.0004320962114
0.0004232681434
0.000415842506
0.0004100054867
0.000405774945
0.0004091332521
0.0003988868471
0.0003915486249
0.0004236952235
0.0004545195185
0.0003792686692
0.0005247969527
0.0006538492205
0.0006166003983
0.0005944904743
0.0005966790683
0.000539396799
0.0005417913038
0.0005039106287
0.0004876497901
0.0004731168276
0.0004602859426
0.0004490477906
0.0004392938085
0.0004311879186
0.0004311507314
0.0004170154411
0.0004058033204
0.0004334858247
0.0004196342126
0.0004625351246
0.0003232882953
0.0005376234401
0.0006087928497
0.0006244705086
0.0005785021315
0.000578729005
0.0005731041931
0.0005274982071
0.0005107977642
0.0004979162004
0.0004843242258
0.000473740361
0.0004622919249
0.0004521717804
0.0004311205715
0.0004566869716
0.0004394321965
0.0004195919986
0.0004835266382
0.00033186831
0.0004968088706
0.0006164583137
0.000588344757
0.0005599218477
0.0005497372371
0.0005335335161
0.0005176539429
0.0005035997963
0.0004913895791
0.0004795475791
0.0004696711067
0.0004645920095
0.0004431859088
0.0005064145228
0.0004169524063
0.00035391308
0.0005092878423
0.0006091829048
0.0005627423602
0.0005739393216
0.000546841914
0.0005327734625
0.0005191558301
0.000504218597
0.0004923984484
0.000551846691
0.0004573801105
0.0004633960464
0.0003734552467
0.0004747029179
0.000568636941
0.0005521996121
0.0005368335002
0.0005224143607
0.000509254836
0.0004064934293
0.0007437656707
0.0007126642377
0.000669291224
0.0006242004802
0.0005886192891
0.0005559396335
0.0005252693517
0.0004966065854
0.0004701625855
0.0004457007642
0.0004230111503
0.0004022316971
0.0003837088668
0.0003673604077
0.0003535374388
0.000342187125
0.0003331970037
0.0003268053195
0.0003229654485
0.0003215535677
0.0003224170023
0.0003254720911
0.0003304894329
0.0003374074855
0.0003460864981
0.0003561908724
0.0003677331996
0.0003805424984
0.0003944758758
0.0006082343519
0.0007210037416
0.0006734127296
0.0006295891067
0.0005940912313
0.0005612525356
0.0005306341471
0.0005019195231
0.000475346689
0.000450497873
0.0004277278079
0.0004067766927
0.0003879779001
0.0003714320316
0.0003571912848
0.0003454317554
0.0003361550702
0.0003294524482
0.0003254164652
0.000323735003
0.0003244097271
0.000327159836
0.0003320967107
0.0003387664922
0.0003470988844
0.0003570520838
0.0003683459579
0.0003809635957
0.0003946975292
0.0007163825871
0.000685466493
0.0006618348688
0.0005926761941
0.0005592213493
0.0005289836056
0.000500704466
0.0004746585488
0.000450461505
0.0004281951244
0.0004078736937
0.0003894692916
0.0003732925792
0.0003592213515
0.0003476974188
0.0003384834685
0.0003317695814
0.0003276469632
0.0003258642513
0.0003262528444
0.0003288557514
0.0003333969367
0.0003398731682
0.0003479850838
0.0003576200949
0.0003687211461
0.0003810656637
0.0003946037572
0.0007238626743
0.0006753363292
0.0006544014684
0.0006034461851
0.000570726062
0.0005402327423
0.000511365901
0.0004840647461
0.0004589787103
0.000435617662
0.0004142472556
0.0003950784756
0.0003782026489
0.0003637628934
0.0003517241376
0.0003421655134
0.0003351842854
0.0003306434812
0.000328435226
0.0003286085979
0.0003308387229
0.0003350448414
0.0003411513076
0.0003489196376
0.0003581703835
0.0003688180082
0.0003807415244
0.0003938675555
0.0007400162395
0.0006955392573
0.0006520722092
0.0006102047507
0.0005773598757
0.000547024768
0.0005183453735
0.000491557531
0.0004663234307
0.0004431252922
0.0004215789955
0.0004022363032
0.0003851998932
0.0003703730551
0.0003580894581
0.0003481480636
0.0003407149303
0.0003357130859
0.0003330540928
0.0003325284993
0.0003341526786
0.0003379187449
0.0003434569553
0.0003506798391
0.0003594079207
0.0003695331799
0.0003809770928
0.0003935706739
0.0007509682164
0.000696488041
0.000653073714
0.0006134400017
0.0005802980616
0.0005495757335
0.0005210161721
0.0004944413408
0.0004700844366
0.0004473724508
0.0004265138026
0.0004076234523
0.0003908617149
0.0003763569075
0.0003639726654
0.0003540076054
0.0003463368221
0.0003410890413
0.0003380587073
0.000337199456
0.0003383650166
0.0003415248311
0.0003465152968
0.000353137916
0.0003611931789
0.0003706463696
0.0003815076053
0.0003934249466
0.0006041448926
0.0007381106149
0.0006832363152
0.0006536420604
0.0005937150529
0.0005625369452
0.0005333480041
0.0005061181688
0.0004807632714
0.0004573452956
0.0004359602222
0.0004167572725
0.0003994923437
0.0003846984288
0.0003721366841
0.0003618803521
0.0003538603228
0.0003480512225
0.0003445590493
0.0003432290096
0.0003437823918
0.0003463103888
0.000350636558
0.0003564932504
0.0003638524419
0.0003725466246
0.0003826066486
0.0003938694729
0.0006949741186
0.0006709067218
0.0006509783797
0.0006075961588
0.0005768606396
0.0005477459756
0.0005204076388
0.000494975845
0.000471440584
0.000449814169
0.0004303667562
0.0004129336781
0.0003976794441
0.0003844355274
0.0003734750857
0.0003648651565
0.0003583546323
0.0003539878762
0.0003517662235
0.0003515433017
0.0003531662989
0.0003565151172
0.0003613914933
0.0003678237548
0.0003757294989
0.000384717863
0.0003950110179
0.0005937211996
0.0007276235186
0.0006734491888
0.000644194691
0.0005865013827
0.0005572137651
0.0005307350388
0.0005057851482
0.0004828959814
0.0004617908607
0.0004425910385
0.0004252425884
0.0004099077602
0.0003965224033
0.0003853045184
0.0003761366202
0.0003690524152
0.0003640689876
0.0003610463584
0.0003599903596
0.0003606756007
0.0003630149761
0.0003669898388
0.0003723758353
0.000379191528
0.000387288433
0.0003964638531
0.0006927043402
0.000677262846
0.0006670293469
0.000634850048
0.0005753932701
0.0005478049597
0.0005223017993
0.000498750419
0.0004773599725
0.0004573100567
0.0004393509092
0.0004235277708
0.0004097341818
0.0003978851445
0.0003880333973
0.0003801949579
0.0003744073314
0.0003705391692
0.0003684179733
0.0003681811499
0.0003696745991
0.0003726472838
0.0003771212396
0.000382785965
0.0003898892207
0.0003981500845
0.0005889628852
0.0007037145128
0.0006487248931
0.0006270642053
0.00058723761
0.0005599198758
0.0005345838247
0.0005111493853
0.0004896674951
0.0004702307985
0.000452429606
0.0004364950079
0.0004225407802
0.0004105280133
0.0004002747073
0.0003920520387
0.0003855602131
0.0003809339414
0.000378095662
0.0003770029329
0.0003773905974
0.0003792531432
0.0003826340435
0.0003873393756
0.0003932940723
0.0004003470663
0.0005574294413
0.0007120585029
0.0006587489888
0.0006290596518
0.0005805924538
0.0005550309628
0.0005308718557
0.0005090348964
0.000488929543
0.0004706502915
0.0004542770409
0.0004396765507
0.0004269144066
0.000416043872
0.000406929415
0.0003996918719
0.0003940186582
0.000390160732
0.0003878479728
0.0003872287505
0.0003880042494
0.0003901221158
0.0003935364419
0.0004046606531
0.0004031462457
0.0006792339177
0.0006602320795
0.0006518253697
0.0006187246941
0.0005712515322
0.0005472715098
0.0005251876265
0.0005052031008
0.000486847658
0.0004702386357
0.0004554151805
0.000442563288
0.0004313685395
0.0004219338072
0.0004140847836
0.0004078278279
0.0004030785833
0.0003999558584
0.0003982108684
0.0003980061683
0.0003990596429
0.0004068544434
0.0003868585761
0.0004242753304
0.0005824952809
0.0007003632682
0.0006568413124
0.0006563066889
0.0005877245986
0.0005929142477
0.0005459838005
0.000525195602
0.0005066374016
0.0004898576384
0.0004748592334
0.0004615588291
0.0004497285002
0.0004395687747
0.0004309927846
0.0004238503539
0.000418307364
0.0004140131807
0.0004112454151
0.0004099002305
0.0004158330373
0.0003939468441
0.0004340489469
0.0004499992523
0.0005740170639
0.0006521989169
0.0006499840155
0.0006368653386
0.0006178655569
0.0005868729992
0.0005451834331
0.0005262163999
0.0005091471504
0.0004939269819
0.0004802103007
0.0004680925197
0.0004574567344
0.0004481826455
0.0004404853434
0.0004340413284
0.0004288719233
0.000432785762
0.0004200085261
0.0004105468431
0.0004431464644
0.000473375714
0.0003245069089
0.00052434902
0.0006603617093
0.0006216699478
0.0006255724914
0.0005706065036
0.0005470720064
0.0005507224065
0.0005141515764
0.0004999439577
0.0004875593417
0.0004764401595
0.000466706899
0.0004661941686
0.000450275911
0.0004487060433
0.0004313401385
0.0004574795102
0.0005087872957
0.0004083075723
0.0003517427815
0.0005473496353
0.0006243112588
0.0006231620259
0.0006022190205
0.0005948004126
0.000590544462
0.0005441409058
0.0005301418549
0.0005169577039
0.0005054135641
0.0004922968086
0.0004705290702
0.0004946456208
0.0004709671329
0.0004654379853
0.0005059686478
0.0003532674499
0.0005266110339
0.0005983116927
0.0006226306393
0.0005766855877
0.0005717034949
0.0005555690898
0.0005421915604
0.0005280976877
0.0005179402522
0.000510046349
0.0005503088572
0.0004669228247
0.0004749693196
0.0003832778081
0.0005112974266
0.0006075328846
0.0005949619471
0.0005804018785
0.0005621163267
0.0005473840301
0.0005371739738
0.0005256635184
0.00042006027
0.0007589657719
0.0007053646399
0.0006582864011
0.0006201690788
0.0005842684088
0.000550421555
0.0005185257872
0.0004883052756
0.0004599971001
0.0004337153922
0.0004094325066
0.0003869729773
0.0003670636649
0.0003497302372
0.0003349799948
0.0003229976895
0.0003139921466
0.0003079128998
0.0003047739139
0.0003043512564
0.0003066649545
0.0003114544366
0.000318483532
0.0003275326924
0.0003383851461
0.0003508863994
0.0003648513218
0.0003801414016
0.0003965834854
0.0004140298253
0.0007699724449
0.0007194233687
0.0006952618743
0.000619163495
0.0005829702302
0.0005491755599
0.0005176747485
0.0004880610334
0.0004602889187
0.0004345002814
0.0004106359146
0.0003888073537
0.0003690383466
0.000351673992
0.0003369899337
0.0003250781943
0.000315921276
0.0003098631046
0.0003066273446
0.0003061244986
0.0003082236232
0.0003128060759
0.0003196434826
0.0003285050831
0.0003392162808
0.0003514537241
0.0003651868199
0.0003803324335
0.0003966253305
0.0004138362631
0.0007534261835
0.0007073788945
0.0006827288299
0.0006269066758
0.0005911051535
0.0005575090363
0.0005257522022
0.0004960449738
0.0004677087331
0.0004413342387
0.0004168403736
0.0003943002358
0.0003741418446
0.0003564356525
0.0003413330086
0.0003290516353
0.0003195925416
0.0003130174206
0.0003094973285
0.0003086647807
0.0003104345329
0.0003146939711
0.0003211482553
0.0003297144171
0.0003401397674
0.0003521148849
0.0003654749135
0.0003802516216
0.0003961677555
0.0004131517717
0.0007694705599
0.0007220861636
0.0006774786061
0.0006280337389
0.0005919437693
0.0005581636184
0.0005266075107
0.0004970463297
0.0004693562766
0.0004434512335
0.0004194143408
0.0003973974803
0.000377399389
0.000359851297
0.0003447720547
0.0003325142478
0.000322998355
0.0003163162748
0.0003124753937
0.0003113942209
0.0003129284509
0.0003167160765
0.0003228537614
0.0003309451898
0.000340758303
0.000352341115
0.0003654690664
0.0003797772028
0.0003952849944
0.0004118452985
0.0007737144288
0.000726945763
0.0006782812433
0.0006314436814
0.0005945741598
0.0005604655878
0.0005285979325
0.0004991997525
0.0004715803231
0.0004460916402
0.0004224937746
0.0004006422206
0.0003810268257
0.0003638130912
0.00034910881
0.0003369304921
0.0003274822969
0.0003206952923
0.0003166997199
0.0003153032591
0.0003161892568
0.0003196593034
0.0003253018951
0.0003328651696
0.0003422189929
0.0003531983678
0.0003656727651
0.0003794520772
0.0003942824743
0.0004102226513
0.000626804023
0.00075251002
0.0006859055827
0.0006442566906
0.000607497028
0.0005736345736
0.0005416008848
0.0005117564759
0.0004836532762
0.0004576583532
0.0004335346398
0.0004112659206
0.0003912569791
0.0003734037903
0.0003580623823
0.0003453095995
0.0003352585594
0.0003278074617
0.0003231923649
0.0003210587714
0.0003214610938
0.0003241062609
0.0003290523845
0.0003358310443
0.0003443151977
0.0003545468082
0.0003662692793
0.0003792722963
0.0003934545568
0.0004087649801
0.0007469415218
0.0007147061553
0.0006852609686
0.0006158829164
0.0005808684814
0.0005486189128
0.0005187686209
0.0004909112894
0.0004649094693
0.000440834768
0.0004188729639
0.0003990667927
0.0003813879511
0.0003661776659
0.0003533757985
0.0003430337814
0.0003353704375
0.0003301604153
0.000327485662
0.0003272216207
0.0003291948827
0.0003333177494
0.0003394180604
0.0003471222194
0.0003564084107
0.0003671999784
0.0003794376754
0.0003929163696
0.00040720365
0.0007638751705
0.0007008453464
0.0006772550491
0.0006258388587
0.0005906517416
0.0005587037529
0.0005290685158
0.0005012659077
0.0004755615345
0.0004517384826
0.0004299599142
0.0004101205974
0.0003924064783
0.0003769930643
0.0003638235249
0.0003531324904
0.0003448864125
0.0003390342215
0.000335708484
0.0003347326084
0.0003358624655
0.0003391057756
0.0003442002708
0.0003509470096
0.0003593716227
0.0003692052313
0.0003804245417
0.0003927775625
0.0004061538591
0.0006249113348
0.0007666094255
0.000707473646
0.0006784666177
0.0006102460032
0.0005778339362
0.0005476256264
0.0005195274719
0.0004932931567
0.0004688944094
0.0004465711459
0.0004261714439
0.0004077774136
0.0003915371642
0.0003776793027
0.0003661560819
0.0003570940859
0.0003504403202
0.0003461193786
0.0003440755344
0.0003442048651
0.0003463115411
0.0003501995268
0.0003558193951
0.0003630818679
0.0003717590147
0.0003817628263
0.0003929417082
0.0004053612539
0.0007216770409
0.0006923472119
0.0006678579686
0.0006187761761
0.0005853786833
0.0005546138843
0.0005267291704
0.0005010807408
0.0004771141185
0.0004554567792
0.0004355942958
0.0004176488313
0.0004021012933
0.0003884312448
0.0003770520561
0.0003676467764
0.0003605883296
0.0003557800632
0.0003529840808
0.0003522221361
0.000353331699
0.0003562223506
0.0003608460023
0.0003670257625
0.0003745642514
0.0003834452289
0.0003934665814
0.0004045735074
0.0006183714952
0.0007602170769
0.0006994452406
0.0006684520903
0.0006056760727
0.0005747161714
0.0005461260347
0.0005199298487
0.0004953621543
0.0004730010075
0.0004524497484
0.0004340573062
0.0004176055735
0.000403512297
0.0003914431766
0.00038146656
0.0003736386158
0.0003677655206
0.0003639912795
0.0003622065349
0.0003622046726
0.0003639272304
0.0003673616464
0.0003722096494
0.0003784427903
0.0003860645535
0.0003948313999
0.0004046764976
0.0007224856025
0.0007017736233
0.0006893022996
0.0006540614451
0.0005903621753
0.0005615694518
0.0005352860988
0.0005111926715
0.0004889649277
0.0004688170268
0.0004506712659
0.0004342998764
0.0004198343775
0.0004073443107
0.0003968411882
0.0003882567506
0.0003817132358
0.0003769353653
0.0003739639858
0.0003729639216
0.0003734605919
0.0003755087348
0.0003790736114
0.000384000891
0.0003902314866
0.0003976057107
0.0004060880301
0.0006209590016
0.0007415845103
0.0006789748759
0.0006557508646
0.0006147550835
0.0005852909931
0.0005582266236
0.0005332011581
0.0005101550433
0.0004891865919
0.0004702115771
0.0004532711
0.0004381950509
0.0004250560457
0.0004138592579
0.0004044382275
0.0003970140444
0.0003913561913
0.0003873816588
0.0003850712957
0.0003844258726
0.0003853284879
0.0003875106406
0.0003911576448
0.0003960476472
0.0004020624358
0.000409115435
0.0005801532504
0.000750885873
0.0006886437766
0.0006552958851
0.0006056190471
0.0005788123489
0.0005541835848
0.0005315041221
0.0005106334838
0.0004916154693
0.0004745798942
0.0004592039054
0.000445726406
0.0004338407192
0.0004237550313
0.0004153935367
0.0004087117989
0.0004035995631
0.0004000306709
0.0003980843622
0.0003974008384
0.0003982215258
0.0004003292383
0.0004035837742
0.0004081969226
0.0004137172289
0.0005812654262
0.0007246087386
0.0007019087371
0.0006284862559
0.0006332900992
0.0005813092706
0.0005577482125
0.0005362540353
0.0005167628839
0.0004989011967
0.0004827834774
0.000468388501
0.0004558307896
0.0004446332234
0.0004351276178
0.0004271931799
0.0004209702072
0.0004160547607
0.0004128292708
0.0004109393028
0.0004102811169
0.0004108792051
0.0004127594213
0.0004209480624
0.0003993431724
0.0005747395615
0.0006965149843
0.0006780964715
0.0006609934989
0.0006269970447
0.0005794951263
0.0005575514671
0.0005376381662
0.0005195494098
0.0005031478529
0.0004882871441
0.0004754086415
0.0004639031585
0.0004537493888
0.0004450290231
0.000438016243
0.0004324725085
0.0004279934704
0.0004250120866
0.0004233051091
0.0004296828538
0.0004211796425
0.000414025504
0.0004525111117
0.0005625708712
0.0007110716896
0.0006671812514
0.0006706406094
0.0006012103891
0.0006065348346
0.0005618699756
0.000543329092
0.0005264036048
0.0005114055167
0.000497884098
0.0004856470378
0.00047518081
0.0004659229367
0.0004578029404
0.0004510038104
0.0004457050987
0.0004416267778
0.0004458636569
0.0004180985051
0.000453858496
0.0005059556921