/*--------------------------------*- C++ -*----------------------------------*\
| =========                 |                                                 |
| \\      /  F ield         | OpenFOAM: The Open Source CFD Toolbox           |
|  \\    /   O peration     | Version:  v1706                                 |
|   \\  /    A nd           | Web:      www.OpenFOAM.com                      |
|    \\/     M anipulation  |                                                 |
\*---------------------------------------------------------------------------*/
FoamFile
{
    version     2.0;
    format      ascii;
    class       volScalarField;
    location    "3.2711";
    object      mct_O2;
}
// * * * * * * * * * * * * * * * * * * * * * * * * * * * * * * * * * * * * * //

dimensions      [0 0 1 0 0 0 0];


internalField   nonuniform List<scalar> 
60268
(
0.002451459864
0.002354549345
0.002275642777
0.002193206352
0.002121519693
0.00205453996
0.001996036628
0.001938569973
0.001893393835
0.001851555728
0.001832905688
0.001992126037
0.002332173861
0.002270323423
0.002198892355
0.002128536239
0.002061947792
0.001999246312
0.001947028676
0.001899636207
0.001852297858
0.00182928242
0.002304038996
0.002280176482
0.002208241057
0.002135685997
0.002068614851
0.002009133422
0.001956779297
0.001904532941
0.002178567394
0.001488821171
0.001934568477
0.002275594446
0.002214390874
0.002143311563
0.002082331257
0.00201946343
0.001962908203
0.001904538254
0.001822852041
0.001829773116
0.002212510782
0.002163971941
0.002095645843
0.002032566539
0.002317980632
0.001870737871
0.001593430135
0.001826832743
0.002187710436
0.00214584228
0.00205947819
0.001636506471
0.002736606629
0.002625783142
0.002541784162
0.002448480754
0.002332489738
0.002220198234
0.002135821702
0.0020591472
0.001990509943
0.001928603026
0.001874395157
0.001827600669
0.001788494762
0.001756784673
0.001740710845
0.00173880315
0.001721093719
0.001705684346
0.001705844084
0.001710536275
0.002755298231
0.002618973423
0.002530564195
0.002475372988
0.002371996764
0.002316189352
0.002128521907
0.002053754021
0.001986698114
0.001926255278
0.001872333146
0.001826964815
0.001788939922
0.001757874069
0.001745734857
0.001740500537
0.001721610602
0.001709724631
0.001697095803
0.001710507015
0.002778080251
0.002629363603
0.002542347555
0.002442194447
0.002327044822
0.00227422623
0.002143523974
0.002068153725
0.001998945664
0.001939019621
0.001884684776
0.001838152947
0.001799788239
0.001784247963
0.001707149832
0.001764408115
0.001727773772
0.001711837755
0.001955191968
0.001386125206
0.002801535888
0.00264746243
0.00255559532
0.00247399039
0.002408128439
0.002327515196
0.002263386937
0.002092343766
0.002023770786
0.00196135577
0.001907309023
0.001858610619
0.00181914164
0.001762926317
0.001853385407
0.001741202904
0.001736985984
0.00171959453
0.001658611251
0.002263230053
0.002681302364
0.002564144736
0.002475263408
0.002392654308
0.002305826276
0.002273043453
0.002201033068
0.002044608187
0.001981840653
0.001927101505
0.001899578516
0.001820539307
0.001799266282
0.001834388899
0.001780333933
0.00174946673
0.001730669795
0.001726922626
0.002643473364
0.002593433428
0.002508911102
0.002422743325
0.002340291626
0.002256207381
0.002259368882
0.002101733041
0.002030974904
0.001976077542
0.001875119411
0.00196949781
0.001896221766
0.001803890071
0.001790007395
0.00176325921
0.002012869588
0.001422898025
0.00222025392
0.002637888163
0.002514044127
0.002429402919
0.002349826476
0.002277903127
0.002168265125
0.002128322765
0.002074723123
0.002012455361
0.001984731491
0.001896204106
0.001876902027
0.001832578562
0.001797956076
0.002061184719
0.001395962613
0.00209130778
0.002573321426
0.002457060084
0.002374556578
0.002299092065
0.002218396113
0.002152008422
0.002091624935
0.002036995178
0.001983072507
0.001934120602
0.001890157187
0.001853045123
0.002113422422
0.001428022229
0.002042610139
0.00252871814
0.002419996927
0.002336786723
0.002260828993
0.002192185796
0.002122421246
0.002068616537
0.002015831102
0.001967152263
0.001917098683
0.002181938346
0.001478264545
0.002083234513
0.002371248346
0.002393525409
0.002299211485
0.00222966827
0.002165781616
0.002103020831
0.002046965495
0.002301027823
0.001897731595
0.001577013266
0.001976398356
0.002364180053
0.002290373366
0.002220039658
0.002150701786
0.002094741753
0.001675378505
0.00293313658
0.002802127411
0.002716468858
0.002570931811
0.002410589384
0.002303758643
0.002206516823
0.002117484805
0.002033701971
0.001957365547
0.001890076032
0.001829725585
0.001777031678
0.001732311202
0.00169583145
0.001667585973
0.001648010038
0.001635299892
0.001631672804
0.001633908494
0.001643500627
0.001659616125
0.001684400564
0.001718970541
0.002968062066
0.002830089679
0.002721960274
0.002584924233
0.002436949768
0.00232904922
0.002229859274
0.002134520663
0.002048456837
0.001971504325
0.001900531267
0.001838410568
0.001783435799
0.001737960738
0.001701132824
0.001672050853
0.001651337961
0.001638122498
0.001634064246
0.0016364622
0.001646465413
0.001661874145
0.001683815359
0.001722595789
0.002987184457
0.002821429766
0.002730279213
0.002587832074
0.00244329282
0.002338751315
0.002242880554
0.002149941381
0.002065677634
0.00198806435
0.001916885154
0.001854208374
0.001799902838
0.001753185468
0.001714914682
0.001684915391
0.001662691942
0.001649149075
0.001643699062
0.001644391223
0.001652800556
0.001685171252
0.001645595035
0.001744603084
0.003011484534
0.002849669464
0.002736354579
0.002601404308
0.002463706537
0.002356770449
0.002256420444
0.002163990004
0.002078167041
0.00199842049
0.001928962357
0.001866953201
0.001812032306
0.001765134941
0.001727323801
0.001696711314
0.001674831423
0.001659679531
0.001652841698
0.00165370425
0.001661189204
0.001659242116
0.00176771432
0.001702026704
0.002436026945
0.002905291158
0.00280544245
0.002690679958
0.002607891861
0.002393354893
0.002290225499
0.002195388057
0.002109741187
0.00203050624
0.00196004526
0.001894891731
0.001838551142
0.001791499404
0.001751460349
0.001719921942
0.001695948164
0.001679769908
0.001671626295
0.001669977399
0.001675260267
0.001690965144
0.001723448992
0.001734840918
0.002824719382
0.002759467118
0.0026230241
0.002564148997
0.002405282607
0.00230464574
0.002213378507
0.002128415504
0.002052339964
0.001983755761
0.00192198104
0.001868046001
0.001819215043
0.001778663626
0.001746612351
0.001721927743
0.001704357845
0.001693974018
0.001690206543
0.00171255516
0.001667451987
0.001753191383
0.001746841463
0.002394239132
0.002853672573
0.002757437118
0.002643240908
0.00255404448
0.002365064327
0.002271188177
0.002185056253
0.002105193746
0.002032144795
0.001966437556
0.001908817353
0.001859184337
0.00181624305
0.001780906939
0.001753470637
0.001733262374
0.001721389694
0.001731587666
0.001648864512
0.001823466332
0.00171462062
0.001909247435
0.002790020262
0.002721467854
0.00263089622
0.002592431875
0.002487164447
0.002301453062
0.002215591413
0.002138231585
0.002067473771
0.002003343047
0.001946309453
0.001895931625
0.001852661416
0.00181651654
0.001789000854
0.001768494368
0.001770265609
0.001678305572
0.001842899608
0.001736538567
0.001998087447
0.001430025439
0.002363847626
0.002824945329
0.00267906736
0.002589337689
0.002548766975
0.002443397577
0.002271158445
0.002191437957
0.002116756661
0.002051481501
0.001994397887
0.001943299279
0.001899540263
0.001862534082
0.001833339734
0.001828610508
0.001726798315
0.001885554326
0.001769434418
0.001769729021
0.001688074377
0.002224342881
0.002751653411
0.002618473522
0.002529820164
0.002536970213
0.002309330477
0.002324572595
0.002165280119
0.00209939671
0.002041642125
0.001990410875
0.001945133731
0.001932207256
0.001859275133
0.001812534517
0.001939955435
0.001811789336
0.001805600892
0.002052844811
0.001463519956
0.002188269493
0.002722464587
0.002597303257
0.002465219634
0.002467353084
0.002438335849
0.002253864884
0.002190867415
0.002131441582
0.002080034692
0.002022131843
0.001927010342
0.00202811477
0.001952215328
0.001863670579
0.001852372847
0.002103322731
0.001444316692
0.002174577549
0.002679164173
0.002550315571
0.002482971372
0.002357775654
0.00232135683
0.00225697483
0.002191235535
0.002135669565
0.002087350665
0.002061769479
0.001967809601
0.001949278722
0.002204178755
0.001799822192
0.001533178522
0.002193286142
0.002503818752
0.00255055185
0.002428265012
0.002368015917
0.002298037378
0.002240722012
0.002178857975
0.002130689559
0.002077053548
0.002333645135
0.001928531746
0.001617267805
0.002117946708
0.002521773429
0.002455632134
0.002375817043
0.002306875902
0.002238543604
0.002181799669
0.002131955267
0.001709393097
0.00316680717
0.003045729346
0.002931673275
0.002779187013
0.002615267435
0.0024924425
0.002374071887
0.002262794819
0.002158667209
0.002061211781
0.001970185028
0.001886474059
0.001812032823
0.001746937977
0.001690807167
0.001643545922
0.00160694624
0.001580555111
0.001563698435
0.001556113559
0.00155703817
0.001565066243
0.001582672861
0.001606679694
0.001637511175
0.001674406323
0.001716196201
0.003189454749
0.003049034623
0.002943093962
0.002783228758
0.002614597102
0.002492579259
0.002376536119
0.00226853156
0.00216863302
0.002072151015
0.001982580066
0.001900885946
0.00182696386
0.001761015874
0.001704979104
0.001657781133
0.00162004738
0.001592127634
0.001574493682
0.001565355801
0.001566413601
0.001574260297
0.001590142
0.001612615741
0.00164264442
0.001677953545
0.001719146317
0.002599450797
0.003102542244
0.002952063454
0.002801119424
0.002646769405
0.00252289493
0.00240374027
0.002292082345
0.002187389362
0.002087449519
0.001995702241
0.001912402974
0.001836977007
0.001769948757
0.001712898421
0.001665214599
0.001629172223
0.001600685038
0.00158246393
0.001573489966
0.001573772007
0.00158065703
0.001594981036
0.001616571334
0.001645444051
0.001680233581
0.001720160339
0.003016515393
0.002935282783
0.002785668335
0.002622551368
0.002497156665
0.002380525784
0.00227152163
0.002169364236
0.002075063051
0.001986991389
0.001907372702
0.001834729326
0.001771556537
0.001716665301
0.001671220385
0.001633893873
0.00160704232
0.001588582449
0.001578928689
0.001578252409
0.001585068054
0.001599808933
0.001620543932
0.001647637928
0.001680596314
0.001719260744
0.003165214373
0.003015771609
0.002887404032
0.002795971137
0.002533814599
0.002413119675
0.002304827541
0.002202937295
0.002106986333
0.002018148283
0.001937326789
0.001864665494
0.001799975404
0.00174354937
0.001696277542
0.001658489283
0.001629828549
0.001609520968
0.001598328026
0.001595597751
0.001600021448
0.001612466618
0.001631709864
0.001656481046
0.001687207624
0.001724981198
0.003205337888
0.002983312348
0.002838306751
0.002765290164
0.002587221376
0.002469104845
0.002358652512
0.002254108021
0.002155507093
0.002064288781
0.00198073127
0.001905511971
0.001838213133
0.001780585849
0.001731219105
0.001690074725
0.001659859145
0.001637939893
0.001623975296
0.001618545205
0.001621312131
0.001630751568
0.001647497294
0.001670324962
0.001698794927
0.00173351552
0.00258113938
0.003089877672
0.002966639709
0.002843911287
0.002750873897
0.002494999825
0.002384246643
0.002281785446
0.002186955635
0.002098072497
0.002016545717
0.001942511771
0.001877398411
0.001819469564
0.001770010472
0.001728986456
0.001696452322
0.001672377372
0.001656187086
0.001648436502
0.001647940587
0.001654128726
0.001667637234
0.00168758446
0.001713964773
0.001745640481
0.003013267573
0.002919439651
0.002775413753
0.002705058674
0.002542453933
0.00243367039
0.002331531753
0.002237420607
0.002147950995
0.002066914128
0.001992701256
0.001926230679
0.001866389597
0.001815266655
0.001772975812
0.0017387773
0.001712783998
0.001694977296
0.001683948164
0.001680657164
0.001683486392
0.001693905811
0.001710752809
0.001753158115
0.001661310019
0.00253680137
0.003053893422
0.002934224545
0.00281128033
0.002709301676
0.002480844995
0.002377327205
0.002280696826
0.002191589825
0.002111397604
0.00203641937
0.001967778079
0.001910714027
0.001860276928
0.001816227256
0.001780305876
0.001753228494
0.001732001499
0.001718715512
0.001712303443
0.001712092595
0.001719087175
0.001732824879
0.001730899648
0.001850225473
0.002402168321
0.002975997677
0.002809213093
0.002780271616
0.002661994398
0.002449713592
0.002351932273
0.00226189429
0.002176622984
0.002101376878
0.002031714514
0.001970543434
0.001916056468
0.001869924951
0.001831518961
0.001799466124
0.001775161603
0.001758838743
0.00174940877
0.00174637885
0.001749254606
0.001781959408
0.001722237421
0.001831798562
0.00292400872
0.002851312781
0.002759912986
0.002726007682
0.002605673297
0.002394183069
0.002304489218
0.002222609664
0.002147963302
0.002080956514
0.002019408223
0.001964818773
0.0019180341
0.001878237406
0.001845589295
0.001820185714
0.001800876387
0.001788570294
0.001781834774
0.001806969832
0.001712753215
0.001898044589
0.001794775496
0.002473978675
0.002990305707
0.002811419397
0.002719883541
0.002684731872
0.002566641183
0.00237879132
0.002294763766
0.002218168254
0.002150264151
0.002087343946
0.002031598575
0.001984188283
0.001942429619
0.001906899706
0.001878327816
0.001855979195
0.001867177524
0.001817363775
0.001780664798
0.001922099969
0.002055150775
0.001710077013
0.002353287892
0.002941668362
0.002780127636
0.002688561372
0.002707243259
0.002454200174
0.002470419513
0.00230310137
0.002231653899
0.002168660049
0.002110113412
0.002058529382
0.002013971123
0.001975875025
0.001972162541
0.00190471074
0.001851007889
0.001973557834
0.001907247998
0.00209799086
0.00146291993
0.002409831181
0.002735485761
0.002816411115
0.002616022037
0.002624315204
0.002603272566
0.002400995968
0.002328553158
0.002273185321
0.002212949266
0.002165480999
0.002113330681
0.00206661849
0.001969843543
0.002084795877
0.002003922449
0.001910682374
0.002196967815
0.001505036711
0.002233877229
0.002782064828
0.002659795679
0.002536304245
0.002494923323
0.002424874082
0.002355605975
0.002294132975
0.002239511777
0.002186153547
0.002140889497
0.002116738896
0.002018180616
0.002304486697
0.001895356263
0.001607022408
0.002289096637
0.002742888067
0.002539702936
0.002597382423
0.002479313758
0.002419167167
0.002359068569
0.002294643313
0.00224155062
0.002510795238
0.002080316301
0.00210499634
0.001695348239
0.002140376601
0.002568289726
0.002496622744
0.002431137545
0.002367347324
0.002310983493
0.001844774546
0.003302038039
0.003178072869
0.003001981481
0.002817773493
0.002670679328
0.002536072866
0.002405205873
0.002282439671
0.002167283023
0.002060673817
0.00196226463
0.001868773125
0.001784240289
0.001708485942
0.001644141963
0.00158897407
0.001544338323
0.00151103869
0.001488368136
0.001477117081
0.001475531589
0.001483247967
0.00150071337
0.001526793877
0.001559820216
0.001599848989
0.001646091638
0.001696762111
0.001753589684
0.002701130119
0.003214876538
0.003018955154
0.002840784442
0.002695898549
0.002560290474
0.002430942434
0.002308831274
0.002194745476
0.002085290593
0.001984487204
0.001890584132
0.001805707041
0.001729052883
0.001660267628
0.001603454722
0.001558376968
0.001523876066
0.001500552006
0.001488066373
0.001485093202
0.001492851453
0.001509150827
0.001533293255
0.001565730963
0.001604790238
0.001649531708
0.001700591494
0.001756584391
0.003191377256
0.003071083191
0.002986381591
0.002687113953
0.002548274601
0.002419684537
0.002299167192
0.002186496121
0.002082659843
0.001983788373
0.001892989051
0.001810065773
0.001735523447
0.001669875528
0.001614772018
0.001569460183
0.001535282087
0.00151127635
0.001498137836
0.00149516102
0.001501991348
0.001516802632
0.001539934687
0.001570394532
0.001608531206
0.001652091532
0.001701260662
0.00175603765
0.003224454692
0.003024516046
0.002946118133
0.002737423334
0.002600496288
0.002471280588
0.002349605902
0.002232839526
0.002123264362
0.002020955568
0.001924872523
0.001838241416
0.001760390703
0.001692997616
0.001634627678
0.001587568231
0.001550499186
0.00152617283
0.001511307761
0.001506040728
0.001510681138
0.001524105677
0.001545799157
0.001574962754
0.001611485186
0.00165392773
0.001701638717
0.00175490535
0.003295488595
0.003113994267
0.002932544198
0.002760588833
0.002628739172
0.002499801687
0.002379258764
0.002265907666
0.002157296634
0.002053586617
0.00195739352
0.001870345542
0.001791858877
0.00172361302
0.001664269044
0.001615319893
0.001576640185
0.001550476234
0.001533013057
0.001525412254
0.001528019565
0.001539503578
0.001559127377
0.001586101365
0.001618866697
0.001658148379
0.001703482052
0.001753175889
0.00333498259
0.003114812368
0.002932930608
0.002772501111
0.002634205825
0.002507892312
0.002386983177
0.002275160371
0.002167728805
0.002068546439
0.001975890146
0.001890197346
0.001813866504
0.001747141216
0.001688484424
0.001640833707
0.001602226673
0.001574180999
0.001555550208
0.001547308822
0.001547696704
0.001556286715
0.001573385608
0.001597445558
0.001629163292
0.001666156903
0.001709078742
0.001756723909
0.002682104022
0.003293731882
0.003065672992
0.002951131778
0.002695907878
0.002564452609
0.002441727878
0.002325793317
0.002215190137
0.00211408429
0.002018339219
0.001930947745
0.001854041465
0.001785234861
0.00172533318
0.001675534388
0.00163597
0.001605320768
0.001584852208
0.001574016771
0.00157232516
0.001578674512
0.001591995604
0.00161361499
0.001641831391
0.001675724782
0.001715217298
0.001760662437
0.003096071719
0.003004267949
0.002930720956
0.00275286649
0.002625739336
0.002504516473
0.00238994405
0.002279982726
0.002176475343
0.002081070927
0.001994921126
0.001914508859
0.001843306908
0.001780471877
0.001729667085
0.001686614254
0.001653327927
0.001630359271
0.001615728705
0.001609255601
0.001612005773
0.001622462645
0.001639576917
0.001663243364
0.001692562333
0.00172800996
0.001768405629
0.002641048503
0.003250809947
0.00302244064
0.002910328885
0.002663862892
0.002540901395
0.002428117359
0.002322662976
0.002222935501
0.002130083498
0.002044338403
0.001967674961
0.001896872738
0.001835599854
0.001783232063
0.001738141278
0.001703093582
0.001676927548
0.001658865402
0.001648628999
0.001647091902
0.001652943492
0.001665849928
0.001684907635
0.001710252488
0.001740544516
0.001777064705
0.003089661991
0.003037260485
0.003004197629
0.002873178532
0.002617309953
0.002503291068
0.002393848633
0.002293224848
0.0021991011
0.002111077943
0.002030375171
0.001959587025
0.001895135373
0.001839032404
0.001792539154
0.001754363232
0.001724855209
0.001702656132
0.001689587657
0.001683030094
0.001685092156
0.001693291354
0.001708362322
0.00172994492
0.001756579868
0.001787867013
0.002620919543
0.003143357528
0.002914195698
0.002826151923
0.002661173869
0.002546499517
0.002440551358
0.00234083523
0.002248445896
0.002163924689
0.002085633871
0.002014758393
0.001950349917
0.001893984765
0.001845630748
0.001806049458
0.001773662108
0.001749970758
0.001733254802
0.001723252218
0.001720042447
0.001724530432
0.001734516484
0.001750903249
0.00177315171
0.001799695689
0.002483856281
0.003190633904
0.002965092828
0.002846134709
0.002638713174
0.002531050492
0.002428171144
0.002333707716
0.002246401693
0.002166831046
0.002092943306
0.002027481626
0.001968849746
0.001917303614
0.001873427482
0.001837836104
0.001810096613
0.00178880006
0.001774672465
0.001768538156
0.001766870023
0.001772153283
0.001782228119
0.001827736309
0.001815322203
0.003036132018
0.002961262082
0.002937291
0.002798865885
0.002596043997
0.002495031025
0.002399673607
0.002312309995
0.002234154402
0.002159629924
0.002095092535
0.002035395326
0.00198415846
0.001939832102
0.001901855426
0.001870816259
0.001845773995
0.001828797027
0.001818280651
0.001812967887
0.001813013815
0.001844714481
0.001749878453
0.001913868513
0.002595090379
0.003129995722
0.002947690122
0.002955301222
0.00265740639
0.002689800329
0.002486094607
0.002397354117
0.002317148505
0.002245592794
0.002178044667
0.002118596425
0.002063904989
0.002016966386
0.001977530507
0.001943373383
0.001914684659
0.001892794952
0.001877040201
0.001867556143
0.001890448053
0.001787207185
0.001965067046
0.0020320697
0.002556962343
0.00291956602
0.002918053037
0.002865050213
0.002792025246
0.002660777993
0.002481586467
0.002400775037
0.00232605343
0.002259285928
0.002198002193
0.002143502958
0.00209480103
0.002052589515
0.002015890732
0.001985238098
0.001961237357
0.001974858557
0.001913331231
0.001866929215
0.002011367473
0.002144537463
0.001467229328
0.00234426701
0.002961238133
0.002797453911
0.002822399349
0.002581161126
0.002481159428
0.002504191255
0.002343065087
0.002280306956
0.002225754561
0.002174716975
0.00213027407
0.002127688496
0.002052483209
0.002044536047
0.00196418441
0.002079535444
0.002309060994
0.001850725845
0.001590474695
0.002448983981
0.002800254516
0.002804713868
0.002717187179
0.002687862434
0.002674320148
0.002469760661
0.002410595305
0.002350948945
0.002301489849
0.00224177989
0.002141963534
0.002251061273
0.0021427162
0.002116439363
0.002297857593
0.001602370586
0.002365252449
0.002690631424
0.00280520267
0.002605132106
0.002586591866
0.002517748458
0.002460035855
0.002398543845
0.002352538144
0.00231739689
0.0025000669
0.002120389694
0.002155482313
0.001736920834
0.002296570644
0.002731243562
0.002680036621
0.002619798551
0.002540085239
0.002478177197
0.002433979673
0.002381574846
0.001903499992
0.003367687753
0.003148273564
0.002963713799
0.002805640743
0.002657350016
0.00251554019
0.002383726863
0.002252324183
0.002130101675
0.002015335337
0.001906158884
0.001805897408
0.001713344331
0.001631901452
0.001561714475
0.001504155162
0.00145811068
0.001424730444
0.001404734329
0.001397954696
0.001402337465
0.001417761818
0.001443133421
0.001477652973
0.001520498712
0.00157046972
0.001626789205
0.00168860625
0.001755516943
0.001827444325
0.003411010166
0.003213801408
0.003123061447
0.002799319229
0.002651049673
0.002510214651
0.002377099189
0.002249308364
0.002130964149
0.002015827441
0.001910408394
0.001812411205
0.001721635331
0.001641740114
0.001571730433
0.001513611964
0.001468450658
0.001434822544
0.001414344952
0.001406720556
0.00141001422
0.001425231647
0.00144954578
0.001483165334
0.001525342981
0.001574552057
0.00162930631
0.001690960787
0.001757855262
0.001828574484
0.003333515685
0.003151585302
0.003060715977
0.002835369523
0.002688486792
0.00254799461
0.002413635589
0.002288539539
0.002165642285
0.002050834019
0.001941235543
0.001839698672
0.001748091825
0.001664685382
0.001592699565
0.001532409415
0.001484610565
0.001449788693
0.001428075856
0.001419690593
0.001421341114
0.001434570629
0.001457434658
0.001488671914
0.001529458381
0.001577700521
0.001632272688
0.001692108186
0.001757859837
0.00182711171
0.003406351386
0.00321681473
0.003037656358
0.002839111706
0.002688203662
0.00254912055
0.002414660826
0.002288837125
0.002169240374
0.002056814577
0.001950715061
0.001851176064
0.001760007485
0.001679162238
0.001607986066
0.001547750224
0.001500922748
0.001465957728
0.001443047184
0.001431549699
0.001432588079
0.001444475937
0.001465759303
0.001496107167
0.001534262819
0.001580110022
0.001632093205
0.001690242997
0.001754133238
0.001822277114
0.003423003751
0.003235183802
0.003038375214
0.002849831655
0.002694451114
0.002552191118
0.002421607441
0.002294303531
0.00217538263
0.00206473912
0.001959765928
0.001862802419
0.001772849667
0.001693447028
0.001624549174
0.001565843729
0.001518735085
0.001483352549
0.001461057493
0.001449132952
0.001447805391
0.001457774749
0.001477708277
0.001505680264
0.00154194677
0.001584286051
0.001634152647
0.001689576406
0.001750800646
0.001815862016
0.002772232213
0.003348309535
0.003067516908
0.002904179559
0.002753260633
0.002611687648
0.002476889914
0.002352610118
0.002230475747
0.002116799269
0.002011642343
0.001912542266
0.001819927673
0.00173843495
0.001667778117
0.001606449856
0.001556939794
0.001518720341
0.001492674206
0.001477521494
0.001474087323
0.001480314872
0.001496606127
0.001520686393
0.001553407707
0.001593808485
0.001639850533
0.001692856487
0.001750926717
0.001813542694
0.00331689081
0.003190408125
0.003079404264
0.002786706399
0.002642863356
0.002507216596
0.002379032947
0.002258060831
0.002146956029
0.002040592337
0.001944434478
0.001854509153
0.001773674375
0.001701429528
0.00164092869
0.001590861946
0.001551098328
0.001523774802
0.001506597498
0.001500641482
0.001504192925
0.001517211677
0.001538129282
0.001567806626
0.001603448773
0.001646322106
0.001695645126
0.001749686982
0.001807555635
0.003390532294
0.003124085333
0.003037714037
0.002826845815
0.002682398391
0.002546245445
0.002421893442
0.00230543593
0.002194006552
0.002089217983
0.001992307102
0.001903093918
0.001823204281
0.001750881702
0.001688099196
0.001637514662
0.001595721565
0.001565454786
0.001546719585
0.001536472993
0.00153692608
0.001546186645
0.001563345752
0.001588376568
0.001620728105
0.001659045806
0.001702953027
0.001752302332
0.001805948905
0.002763138138
0.003414523669
0.003163034713
0.003055264425
0.002764704694
0.002628950681
0.002503998082
0.002383768592
0.002271654125
0.002164344513
0.002065773869
0.001974906455
0.001890753926
0.00181576932
0.00175201372
0.00169775698
0.001653169974
0.001619197934
0.00159524455
0.001581322563
0.001576496714
0.001580849298
0.001594012965
0.001612982085
0.001640169058
0.001673398416
0.001713211861
0.001757963332
0.00180740383
0.003206388606
0.003088088331
0.002995185967
0.002795895001
0.002656990649
0.002527589135
0.002408560635
0.002297605263
0.00219570357
0.002101007852
0.002013904305
0.001933269887
0.001860682771
0.001798279506
0.001742760356
0.001698848867
0.001664003839
0.001637742206
0.001620954917
0.001613497042
0.001613532604
0.001621843455
0.001637868596
0.00165959406
0.001688698605
0.001722484347
0.001762269649
0.001806979486
0.002740439766
0.003384014068
0.003128490642
0.003009310723
0.002744153891
0.002610670798
0.002492908397
0.002379478831
0.00227480008
0.002175337815
0.002087387383
0.002005786076
0.001931979552
0.001865326738
0.001809686729
0.001761600037
0.001723180476
0.0016941377
0.00167289276
0.001659753929
0.001655394438
0.00165840256
0.001668859079
0.001685771957
0.00170954169
0.00173867233
0.001772403903
0.001811329494
0.003204912392
0.003130480481
0.003092961241
0.002950738524
0.002676364544
0.002556151088
0.002443924199
0.002339093715
0.002243964983
0.002156271794
0.002075640899
0.002001742208
0.001936008051
0.001878944448
0.001829407027
0.001787839676
0.00175561687
0.001730903279
0.001714844471
0.001706032979
0.001703771428
0.001707902986
0.001720133897
0.001737033844
0.001759907488
0.001788239285
0.001821733068
0.002750639778
0.003295613042
0.003036405822
0.002945927643
0.0027799941
0.002657948506
0.002544425028
0.002437344275
0.002338229886
0.002246410893
0.002164175256
0.002088565652
0.002020622303
0.001959592063
0.001906934132
0.001863177588
0.001827206327
0.001797815351
0.001775551302
0.001762350195
0.001755271517
0.001754218272
0.001760166931
0.001772694023
0.001789563237
0.001812392004
0.00183927355
0.002572049978
0.003346676488
0.003081197795
0.002945584616
0.002738385116
0.002627356578
0.002522482693
0.002427045643
0.002338100775
0.002254891352
0.002180020004
0.002111652593
0.002051139392
0.001998177794
0.001950139812
0.001910145718
0.001876907001
0.00185098831
0.001832071295
0.001819446271
0.001813164544
0.001812659395
0.001817414715
0.0018281566
0.001843215723
0.001863725705
0.002582989166
0.00323195051
0.003141995483
0.002828813216
0.002860382775
0.002635350155
0.002538923414
0.002449566753
0.002365515293
0.002286819214
0.002216255915
0.002151429873
0.002093718886
0.002043429943
0.001999609751
0.001961863488
0.001930153844
0.001905772322
0.001887157592
0.001874317975
0.001868413533
0.001867808611
0.001872538231
0.001905610559
0.00180263762
0.002552997779
0.003108202829
0.003034692171
0.002973221925
0.002830707385
0.00262677797
0.002534641543
0.002450181118
0.002372853118
0.002299699125
0.002235012349
0.002177224912
0.002122847997
0.0020779788
0.002038990961
0.002004748355
0.001976876776
0.001954929112
0.001937633473
0.001926277856
0.00195174221
0.001909524095
0.001873922788
0.002044256265
0.002500312078
0.00317623809
0.00298957528
0.003017338495
0.002711026681
0.002744286289
0.002548322334
0.00247043247
0.002398868024
0.002333268027
0.002273410382
0.002220551673
0.002171269312
0.002128402416
0.002091592083
0.002059869629
0.002033420512
0.00201222757
0.002029325476
0.001899495349
0.002057147326
0.00228905472
0.001852420522
0.002597449133
0.002974049151
0.00299198911
0.002948729695
0.002928832835
0.002647877466
0.002672035831
0.002505905361
0.00243999434
0.002374799456
0.002319599846
0.002268753694
0.002223389847
0.002183108443
0.002188096199
0.002109089833
0.002106077146
0.00202599696
0.002160207952
0.002281072385
0.001600543438
0.00250396051
0.002883348243
0.0029002043
0.002859865153
0.002850360502
0.002623527588
0.002557953208
0.002493411584
0.002441747486
0.002396827783
0.002339894252
0.002292967175
0.002189672483
0.002307518412
0.002196915156
0.002471101139
0.002010221982
0.001729092667
0.00242877194
0.002944574862
0.002680811119
0.002789416536
0.002662503077
0.002609246801
0.002550348551
0.002486495776
0.002438644334
0.002389556222
0.002678124177
0.002185953918
0.002255995328
0.001815621926
0.002321887077
0.002777334424
0.002715731134
0.002649578154
0.00259439231
0.002534987478
0.002487285877
0.001984607468
0.003504108198
0.003347119076
0.003159332709
0.002933507841
0.002770691418
0.002615078962
0.002467994013
0.002329069161
0.00219762177
0.002070001388
0.001950749905
0.001839081668
0.001732920391
0.001637775445
0.001552839247
0.001479306765
0.001419194644
0.001373087642
0.001340950789
0.00132374642
0.001321590814
0.00133235434
0.001356191497
0.001390638599
0.001435878886
0.001489340396
0.001549932741
0.001617755382
0.001691833973
0.001771005566
0.00185521637
0.001943119728
0.003525576829
0.003363527707
0.003164048029
0.002960042539
0.002797991345
0.002644374685
0.002500832624
0.002358512101
0.002225464526
0.002096557246
0.001976682495
0.00186120629
0.001755151904
0.001657828215
0.001571224859
0.001495741998
0.001433737009
0.00138526183
0.00135286868
0.001334956454
0.001331474711
0.001341203094
0.001362826317
0.001396547405
0.001440089773
0.001492864199
0.001553518319
0.001620521999
0.001694127392