/*--------------------------------*- C++ -*----------------------------------*\
| =========                 |                                                 |
| \\      /  F ield         | OpenFOAM: The Open Source CFD Toolbox           |
|  \\    /   O peration     | Version:  v1706                                 |
|   \\  /    A nd           | Web:      www.OpenFOAM.com                      |
|    \\/     M anipulation  |                                                 |
\*---------------------------------------------------------------------------*/
FoamFile
{
    version     2.0;
    format      ascii;
    class       volScalarField;
    location    "3.2711";
    object      mctToDt_N2;
}
// * * * * * * * * * * * * * * * * * * * * * * * * * * * * * * * * * * * * * //

dimensions      [0 0 0 0 0 0 0];


internalField   nonuniform List<scalar> 
60268
(
76.93385469
73.64268937
71.0522268
68.40881917
66.09613547
63.98392282
62.17059526
60.35443694
59.00371258
57.70707289
57.24701646
62.57368243
72.98087023
70.96075806
68.61311998
66.31773198
64.20894138
62.24647647
60.61970859
59.17496804
57.74166845
57.0967947
72.18825156
71.28533306
68.90146858
66.55754975
64.46250051
62.57648033
60.91387049
59.29914771
67.90838019
46.50197162
60.58501298
71.09174377
69.18379579
66.90674967
64.92842738
62.96194295
61.17504333
59.37157267
56.84094847
57.32506234
69.1487446
67.50885198
65.33423241
63.34614885
72.24102174
58.35928317
49.81115634
57.20734715
68.40668812
67.0642545
64.23566348
51.09628143
86.5162521
82.67280658
79.79802375
76.60431581
72.7957761
68.9671311
66.27125364
63.83303812
61.6349914
59.72803216
58.06900864
56.66131131
55.50269519
54.61861072
54.25530141
54.33060653
53.8948814
53.53057794
53.7117764
54.00147471
87.01996144
82.47176075
79.48056486
77.54828138
74.06860449
72.15438428
66.13515138
63.71475524
61.57526969
59.70571075
58.07186644
56.67745307
55.56033012
54.67918901
54.41085113
54.38663572
53.92294954
53.70169137
53.43609591
54.04511523
87.89552739
82.90565269
79.83318751
76.49417332
72.69068372
70.84661339
66.59201267
64.17452211
62.00244226
60.08593249
58.42202783
57.01103742
55.86736933
55.52142189
53.24739322
55.15842265
54.11503431
53.7555853
61.56254895
43.80711468
88.67928213
83.4947742
80.34205426
77.57161806
75.29373621
72.55257339
70.37217907
64.97236529
62.74927651
60.8184046
59.10760226
57.64454454
56.47406978
54.86446981
57.79929554
54.39173963
54.37356656
53.98356981
52.1839085
71.63721522
84.64094524
80.69159252
77.6606122
74.89700062
72.01544065
70.85615756
68.46623495
63.47865253
61.50168335
59.79606814
59.00819591
56.62648156
56.041725
57.23309429
55.63324003
54.79084838
54.33452101
54.4169342
83.51719138
81.62210064
78.7197149
75.88034607
73.10417963
70.42346436
70.34039498
65.33432094
63.1057542
61.38542128
58.30274287
61.27485233
59.06519253
56.26631947
55.91664393
55.17305793
63.16693498
44.78682101
70.16509685
83.1824709
79.05869985
76.22941508
73.5728764
71.16582946
67.64593793
66.30122945
64.60044794
62.66599108
61.80046755
59.06150296
58.52539315
57.20705077
56.2330463
64.57897403
43.83448894
66.02851314
81.00960359
77.15825737
74.44533107
71.93182175
69.3082593
67.17701908
65.26175619
63.52037676
61.85769712
60.32670391
59.00134948
57.90761012
66.16325213
44.79755314
64.4810706
79.49962504
75.94445702
73.18945174
70.67346526
68.51032485
66.29610833
64.53378522
62.88533168
61.38253286
59.91096221
68.26067093
46.31488769
65.63364738
74.59378657
75.08396773
71.94948626
69.75439198
67.70181092
65.69141634
63.90692815
71.89598505
59.33073721
49.31783993
62.12427795
74.15979489
71.83388162
69.53809709
67.33713254
65.56372975
52.46673879
93.25747815
88.69471341
85.78863449
80.76920093
75.32912789
71.82321005
68.57860904
65.6257781
62.96477087
60.5516905
58.39762858
56.54390754
54.92795398
53.58604965
52.53798825
51.75624918
51.22645141
50.97698277
50.97476785
51.22335022
51.70087367
52.38833348
53.33579457
54.61483431
94.34580053
89.58031552
85.80600999
81.16575583
76.13106602
72.51203133
69.20043382
66.16018679
63.39669836
60.89181437
58.66411354
56.74908226
55.11381897
53.74009881
52.68541427
51.87205944
51.34781799
51.08028258
51.08373742
51.31249249
51.77035677
52.43322641
53.31731207
54.70850726
95.03943315
89.43569093
86.23381489
81.27139812
76.42028513
72.86658812
69.59450828
66.6300871
63.89053726
61.43178474
59.2187735
57.26585039
55.59758162
54.18820036
53.08083578
52.25223632
51.68862299
51.40424019
51.35446068
51.54245857
51.94973199
53.14404257
52.06778077
55.38338764
95.80890577
90.420107
86.48009905
81.79497322
77.08259119
73.48370052
70.15803113
67.10549876
64.33629435
61.82834471
59.60998609
57.68630539
55.99763338
54.60475657
53.50794405
52.64460392
52.05821981
51.729392
51.66487066
51.83517876
52.2253631
52.33348399
55.92704047
54.02051676
77.54644136
92.20556594
88.62139639
84.72618273
81.70709492
74.64342495
71.25144756
68.17154141
65.38103423
62.85304236
60.59224637
58.58973895
56.89096909
55.45516028
54.26817854
53.39691035
52.76603571
52.37395979
52.23808693
52.33157036
52.65878267
53.29259119
54.49401383
55.07274986
89.76474314
87.3141543
82.73270133
80.54092112
75.1905572
71.83632047
68.83103533
66.10445881
63.6336389
61.42990388
59.48935541
57.79016467
56.35292474
55.1732402
54.24286105
53.57148126
53.12909425
52.9294828
52.95933107
53.77469202
52.48472157
55.37300067
55.38041644
76.26896561
90.37860647
87.0164636
83.15209881
80.02188276
73.81488572
70.70273641
67.83462027
65.26312164
62.92171762
60.86334929
59.07468841
57.56549222
56.28814282
55.27752529
54.52732328
54.02588536
53.75755729
54.21495993
51.77906471
57.44849258
54.15462204
60.51962075
88.57647771
86.02593111
82.95684994
81.4308033
77.86095867
71.81207971
69.02547272
66.46478178
64.21681687
62.15669212
60.35343424
58.81633034
57.54098842
56.48088644
55.68270468
55.10822255
55.31619033
52.56880069
57.87549822
54.67320299
63.09109512
45.25686121
75.13930598
89.42424746
84.52078814
81.47012847
79.94178196
76.39217789
70.75320845
68.15890459
65.81145349
63.75369934
61.90800964
60.36145896
59.03124872
57.91609314
57.05941706
57.03346291
53.95104974
59.0484783
55.56218936
55.7420291
53.29385459
70.6540632
87.0809966
82.56972615
79.60245667
79.60544326
72.26621449
72.55344019
67.47581473
65.3717905
63.49487019
61.88595811
60.49365433
60.18763517
57.96994374
56.61329176
60.68484947
56.7577659
56.65883395
64.6150705
46.21025733
69.36869399
86.08372735
81.81577788
77.51139562
77.41194632
76.30560955
70.44574119
68.37352667
66.4523148
64.82590011
63.01481329
60.0928194
63.33675093
61.01324677
58.34717014
58.0371488
66.05766017
45.43424638
68.81125454
84.49797481
80.28216885
77.97886667
73.96337458
72.71917312
70.60016023
68.47569327
66.75020782
65.23353582
64.47744358
61.54356943
60.97734881
69.03200758
56.46806907
48.17765462
69.47940821
79.10238759
80.34982928
76.39509947
74.31536118
72.02579009
70.19476592
68.22336799
66.67995089
64.97204813
73.03011146
60.38070872
50.70772135
66.83988668
79.50763644
77.33170234
74.7070699
72.45923875
70.26301065
68.42407239
66.85933733
53.63630567
101.4406866
97.06479399
93.14421428
87.81035268
82.04744026
77.82256352
73.8827743
70.2054614
66.77481294
63.57918371
60.6810498
58.0525628
55.73440055
53.72760158
52.05891225
50.69629339
49.66571636
48.96040529
48.57580676
48.49642077
48.69769107
49.14580464
49.84206947
50.7783716
51.91986758
53.26672751
54.79067188
102.2438178
97.29287709
93.58045122
87.91864715
82.03658472
77.833651
73.99494951
70.39416819
67.03661677
63.929924
61.05864791
58.47317868
56.15923782
54.14559484
52.46143521
51.09249254
50.04362307
49.31819432
48.88195466
48.76274584
48.91993719
49.3586955
50.04099081
50.93163963
52.04805142
53.35137546
54.82596261
83.37271805
99.02738148
93.81060881
88.5309581
83.09136674
78.81409814
74.81315006
71.09396512
67.59308409
64.38706035
61.46017622
58.81019258
56.47049302
54.45585622
52.76252166
51.35574334
50.29318707
49.54402554
49.13649147
49.00314615
49.13407835
49.53533218
50.17819798
51.06145026
52.12809797
53.41307797
54.8712467
96.39261429
93.32250231
88.12054526
82.56441737
78.28035298
74.30541408
70.67417481
67.30592881
64.20161902
61.38872698
58.82830555
56.5681075
54.61471886
52.95196227
51.57807919
50.55246671
49.82732813
49.383041
49.22367108
49.34441149
49.70213108
50.3117681
51.15570736
52.20120595
53.43334438
54.85584333
101.1347683
95.96132756
91.42941512
88.14198799
79.4040352
75.40364464
71.7320492
68.34244114
65.22764661
62.36180955
59.80987963
57.49821482
55.49974773
53.80506198
52.42559076
51.3104832
50.5326324
50.04621074
49.80595622
49.84727348
50.16003152
50.70968889
51.47506335
52.45572623
53.62385084
54.96145686
102.5082454
95.04247512
90.01620356
87.23397421
81.13663595
77.09812501
73.38111057
69.94146089
66.72755026
63.76428383
61.11576053
58.74934456
56.66897097
54.90264891
53.4460181
52.29173839
51.43243291
50.86049083
50.56673852
50.53691065
50.75835445
51.21779022
51.91600002
52.81585474
53.89198363
55.16220717
82.59185992
98.55504642
94.21666678
89.95714663
86.54446036
78.1228174
74.38654978
70.95170654
67.83006215
64.96519195
62.33148236
60.00077433
57.96453494
56.18699099
54.70175374
53.48713024
52.56788994
51.94179847
51.58206814
51.46493075
51.59682357
51.97110833
52.54946722
53.34084998
54.3219479
55.48130567
96.22355631
92.82048483
87.96497002
85.35573004
79.7353038
76.07566302
72.62955907
69.49365767
66.62018496
63.97115364
61.60405811
59.51894814
57.69497681
56.17211733
54.91654334
53.91907586
53.19527817
52.73610234
52.53865632
52.56955958
52.84198887
53.31257341
53.97312079
55.48923561
52.74112602
81.19897166
97.27374824
93.12331912
88.86168413
85.21342985
77.71319262
74.22286639
71.00976098
68.10337751
65.48857654
63.10883162
61.01697601
59.16967642
57.61320958
56.32024035
55.26774365
54.49166078
53.93787203
53.64054391
53.58197679
53.7262999
54.09617946
54.65060636
54.74820431
58.7036943
76.68972732
94.66264974
88.98333767
87.72943447
83.69190949
76.57338425
73.33888685
70.32891467
67.61546504
65.16819522
62.97483917
61.04869373
59.39725069
57.97979974
56.83670677
55.93831379
55.27402901
54.84519269
54.65949133
54.69164045
54.93569747
56.15765839
54.42581276
58.05187168
93.22817581
90.51448847
87.36922773
85.93268962
81.81376277
74.95382789
71.95784186
69.26692155
66.80550668
64.64213551
62.71966958
61.05129185
59.62902405
58.43521102
57.47145893
56.73750983
56.23092996
55.96549313
55.88336221
56.79117702
53.97187068
59.98435907
56.88919768
79.05852701
95.1082912
89.1258405
85.996669
84.57648644
80.57512225
74.40809408
71.65228372
69.15519943
66.92269613
64.96131456
63.2493408
61.72803019
60.46687763
59.40607228
58.57221238
57.96784929
58.44760744
56.9838353
55.93551784
60.52788907
64.93135979
54.18123846
74.97099324
93.4070315
88.08577118
84.92721061
85.2398669
77.05668557
77.39875768
71.98723268
69.66425573
67.58811822
65.75513466
64.14968437
62.75625835
61.59827409
61.59296163
59.57363444
57.97190292
61.92654639
59.94774466
66.07644637
46.18404218
76.80334858
86.97040709
89.21007265
82.64316164
82.67557214
81.87202759
75.35688672
72.97110917
71.13088577
69.18917511
67.67719443
66.04170356
64.59596862
61.58865307
65.24099594
62.77602807
59.94171409
69.07523402
47.40975857
70.9726958
88.06547339
84.049251
79.98883539
78.53389102
76.21907373
73.95056327
71.94282804
70.1985113
68.50679702
67.09587238
66.37028707
63.31227268
72.34493183
59.56462947
50.55901143
72.75540604
87.02612926
80.39176575
81.99133165
78.12027343
76.11049464
74.16511859
72.03122815
70.34263548
78.83524157
65.34001578
66.1994352
53.35074953
67.81470256
81.23384872
78.88565887
76.69050003
74.63062295
72.75069086
58.0704899
106.2522387
101.8091768
95.613032
89.17149716
84.08846987
79.41994764
75.03847882
70.94379792
67.16608364
63.67153775
60.43016433
57.46167102
54.8155524
52.48005824
50.5053484
48.883875
47.59957195
46.68647422
46.13792122
45.93622395
46.05957176
46.49601301
47.21277613
48.20106936
49.4409283
50.88441035
52.53331422
54.36321405
56.35369654
86.8906217
103.0005345
96.20181851
89.94130096
84.8701759
80.17893366
75.80487815
71.70278902
67.90666986
64.35683899
61.10397256
58.1109561
55.42541431
53.0617188
51.02732639
49.34739362
48.02215288
47.06463546
46.48806645
46.24785757
46.34424673
46.73711942
47.44238725
48.39521317
49.58555492
51.00744055
52.62085113
54.42337081
56.38536132
102.3403696
97.92378472
94.5478384
84.66802773
79.88876419
75.56908651
71.52920943
67.80836412
64.35164357
61.17073206
58.26767053
55.63847023
53.32751132
51.31733592
49.67105983
48.35478122
47.39565449
46.80670903
46.5520359
46.60754921
46.97939306
47.62813381
48.55330974
49.71215483
51.08858499
52.67444944
54.43795196
56.37196531
103.4089535
96.47661846
93.48592405
86.20659787
81.53229457
77.17610605
73.05227157
69.15210659
65.56838718
62.23109457
59.17817937
56.43978223
54.02894984
51.96612763
50.24630537
48.88078763
47.88346935
47.23478302
46.919318
46.94408541
47.26267471
47.86354877
48.73590109
49.84566252
51.16719765
52.68828688
54.39164634
56.26679365
105.7166056
99.36275104
93.15317274
87.17210724
82.47998224
78.14639543
74.04933908
70.22250443
66.61763296
63.30361317
60.22557079
57.46232903
55.02855617
52.91043644
51.15563688
49.73543765
48.67356147
47.95901228
47.57915611
47.50407132
47.73609694
48.27410641
49.06527933
50.09711987
51.34398867
52.79045428
54.42529897
56.22438198
107.2811738
99.49829157
93.29624486
87.63428596
82.89972309
78.51081907
74.43088173
70.63447726
67.15491952
63.91035011
60.93054323
58.23192176
55.83738785
53.7652725
51.99609506
50.57251506
49.47668887
48.72700591
48.29410104
48.17135086
48.33785951
48.78926159
49.50218525
50.44827371
51.59902556
52.94948137
54.50108648
56.2035638
86.30641323
105.4443736
97.60518789
93.3774372
84.81643612
80.36242074
76.19257202
72.30259554
68.68046735
65.33504223
62.28003174
59.53675321
57.07033481
54.9569184
53.16238345
51.69719315
50.55147469
49.72160322
49.22272133
49.03271565
49.11177025
49.47291268
50.09093685
50.9276072
51.97892027
53.22094637
54.65809266
56.26706755
99.28201694
95.8438174
92.99691139
86.79945125
82.4086628
78.24942508
74.34394841
70.710835
67.34865486
64.259167
61.48096517
58.99052544
56.81134916
54.91936106
53.35358367
52.12359379
51.1935189
50.5696966
50.25231764
50.22047167
50.45232841
50.93073103
51.62735618
52.54625069
53.67564269
54.95969471
56.43014541
84.81731423
103.9462169
96.20702696
92.027813
83.78591182
79.60196644
75.81929126
72.25502117
68.9851402
65.97012295
63.22729122
60.7489412
58.55825146
56.64605761
55.04350262
53.73380289
52.7217736
52.00985538
51.5780512
51.42719422
51.52508582
51.8592823
52.42711982
53.1965479
54.17021829
55.32691899
56.6376933
98.95776289
96.75183514
95.2899067
90.692864
82.19903859
78.25785139
74.61454276
71.25005985
68.19428179
65.3300081
62.76441561
60.50396725
58.53345455
56.84073493
55.43334247
54.31356541
53.48676163
52.93416703
52.63113904
52.59730713
52.81065702
53.23532625
53.8744628
54.68370929
55.69846009
56.8785835
84.13755503
100.5306447
92.67498473
89.58060075
83.89108714
79.98855369
76.36911781
73.02134076
69.9524993
67.17582836
64.63280085
62.35642971
60.3629686
58.64685904
57.18210105
56.00743411
55.08003045
54.41913448
54.013666
53.85756185
53.91294248
54.17902046
54.66200621
55.33419652
56.18486747
57.19243805
79.63277732
101.7226433
94.1069984
89.86566455
82.94177911
79.29013754
75.83883653
72.71927091
69.84707758
67.23575593
64.89672013
62.81093581
60.98777237
59.43483886
58.13277357
57.09883884
56.28837974
55.73724743
55.40685326
55.31839293
55.42917849
55.73173082
56.2194917
57.80866473
57.59232082
97.03341681
94.3188685
93.11790995
88.38924201
81.60736175
78.18164426
75.02680379
72.17187154
69.54966544
67.17694795
65.0593115
63.22332685
61.62407708
60.27625817
59.15496908
58.26111827
57.58265475
57.1365512
56.88726692
56.85802404
57.00852041
58.12206335
55.26551088
60.61076148
83.21361156
100.0518955
93.8344732
93.75809841
83.96065694
84.70203538
77.99768579
75.02794314
72.37677165
69.97966263
67.83703334
65.93697558
64.24692859
62.79553925
61.5703978
60.55005055
59.75819485
59.1447401
58.74934501
58.55717578
59.40471961
56.27812059
62.00699241
64.28560747
82.00243769
93.17127384
92.85485936
90.98076265
88.26650813
83.83899988
77.88334758
75.17377141
72.7353072
70.56099742
68.60147153
66.87035996
65.35096205
64.02609222
62.92647763
62.00590406
61.26741761
61.82653742
60.00121801
58.64954902
63.30663777
67.625102
46.35812984
74.90700286
94.33738704
88.80999254
89.36749877
81.5152148
78.15314377
78.6746295
73.4502252
71.42056539
69.65133454
68.06287993
66.67241415
66.59916694
64.32513015
64.10086334
61.62001979
65.35421574
72.68389938
58.32965318
50.24896879
78.19280504
89.18732268
89.02314655
86.03128865
84.97148751
84.36349457
77.73441511
75.73455071
73.85110055
72.20193773
70.32811551
67.2184386
70.66366012
67.28101899
66.49114075
72.2812354
50.46677856
75.2301477
85.47309895
88.94723418
82.38365539
81.67192784
79.36701283
77.4559372
75.44252682
73.9914646
72.86376415
78.61555103
66.70326067
67.85275994
54.75397259
73.04248951
86.79041209
84.99456387
82.91455408
80.30233239
78.19771858
76.73913911
75.09478834
60.00861
108.4236817
100.7663771
94.04091444
88.59558269
83.46691554
78.63165072
74.07511245
69.75789652
65.71387144
61.95934175
58.49035809
55.28185389
52.43766642
49.96146246
47.85428496
46.14252706
44.85602094
43.98755711
43.53913056
43.47875092
43.80927921
44.49349094
45.49764743
46.79038462
48.34073516
50.12662849
52.1216174
54.30591451
56.65478363
59.1471179
109.9960636
102.774767
99.3231249
88.45192786
83.28146146
78.45365141
73.9535355
69.72300477
65.75555981
62.07146878
58.66227352
55.54390767
52.71976381
50.23914171
48.1414191
46.43974204
45.13161085
44.2661578
43.80390637
43.73207123
44.03194617
44.68658228
45.66335465
46.92929758
48.45946869
50.20767488
52.1695457
54.33320478
56.66076149
59.11946616
107.6323119
101.0541278
97.53268998
89.55809654
84.44359335
79.64414804
75.10745746
70.86356769
66.8155333
63.04774838
59.5486248
56.32860511
53.44883494
50.91937892
48.76185838
47.00737647
45.65607737
44.71677438
44.21390407
44.09496867
44.34779042
44.95628159
45.87832218
47.10205959
48.59139535
50.30212642
52.21070193
54.32166023
56.59539365
59.02168167
109.9243657
103.1551662
96.78265802
89.71910556
84.56339561
79.73765977
75.22964439
71.00661852
67.05089666
63.35017621
59.9163344
56.77106862
53.91419842
51.40732815
49.25315068
47.5020354
46.14262215
45.18803925
44.63934196
44.4848887
44.70406442
45.24515379
46.12196591
47.27788426
48.67975757
50.334445
52.20986664
54.25388612
56.46928491
58.83504265
110.5306327
103.8493947
96.89732047
90.2062402
84.93916569
80.06651254
75.51399035
71.31425036
67.36861758
63.72737717
60.35625352
57.23460294
54.43240368
51.97329874
49.87268714
48.13292744
46.78318527
45.81361319
45.24281713
45.04332273
45.16989383
45.66561476
46.47169929
47.55216709
48.88842756
50.45690969
52.23896645
54.2074396
56.32606775
58.6032359
89.54343186
107.5014314
97.98651182
92.03667009
86.78528972
81.94779623
77.37155498
73.10806799
69.09332517
65.37976475
61.93351997
58.75227437
55.89385415
53.34339861
51.1517689
49.32994279
47.89407992
46.82963738
46.17033784
45.86553878
45.9230134
46.30089441
47.00748349
47.97586347
49.18788539
50.64954403
52.32418276
54.18175661
56.20779383
58.39499715
106.7059317
102.1008793
97.89442409
87.98327378
82.98121163
78.37413039
74.10980298
70.1301842
66.41563847
62.97639543
59.83899484
57.00954182
54.48399301
52.31109513
50.48225693
49.00482592
47.9100625
47.16577362
46.783666
46.74594581
47.02784038
47.61682135
48.48829434
49.58888848
50.91548724
52.45713977
54.2053822
56.13090994
58.17194999
109.1250244
100.1207638
96.75072129
89.40555125
84.37882023
79.81482184
75.58121655
71.60941538
67.93736207
64.53406894
61.42284489
58.58865678
56.05806832
53.85615204
51.97478927
50.44749863
49.2694875
48.43346021
47.95835486
47.81894406
47.98035222
48.44368223
49.17146726
50.13528708
51.33880324
52.74360447
54.34636311
56.11108036
58.02197987
89.27304783
109.5156322
101.0676637
96.92380252
87.17800046
82.54770517
78.23223235
74.21821027
70.47045096
66.98491563
63.79587799
60.88163484
58.25391623
55.9338806
53.9541861
52.30801169
51.01344084
50.06290288
49.44562552
49.15364777
49.17212359
49.4730773
50.02850382
50.83134216
51.86883826
53.10843067
54.53754661
56.13452974
57.90875056
103.0967201
98.90674456
95.40828123
88.39659659
83.62552619
79.2305549
75.24702435
71.58296297
68.15915979
65.06525417
62.22775654
59.66411875
57.4430419
55.49017782
53.86457945
52.52096805
51.51261852
50.82572331
50.42629726
50.31744801
50.47595701
50.88890723
51.54942891
52.43225178
53.50917877
54.77788984
56.20951163
57.79621535
88.33878503
108.6024396
99.92074866
95.49315575
86.52515325
82.1023102
78.01800496
74.27569267
70.76602204
67.5715725
64.63567834
62.0081866
59.65793907
57.64461386
55.9204538
54.49522285
53.37694512
52.53793151
51.99875422
51.74379071
51.74352466
51.98960435
52.48023519
53.17280706
54.06325576
55.15207908
56.4044857
57.81092822
103.2122289
100.2533748
98.47175708
93.4373493
84.33745361
80.2242074
76.46944268
73.0275245
69.85213253
66.97386097
64.38160941
62.04283948
59.97633964
58.19204438
56.69159831
55.46525008
54.53046225
53.84790933
53.42342654
53.28056023
53.35151313
53.64410498
54.15337305
54.85727015
55.74735522
56.80081581
58.01257573
88.7084288
105.9406443
96.99641084
93.67869495
87.82215479
83.61299901
79.74666051
76.17159401
72.8792919
69.88379884
67.17308244
64.75301428
62.59929298
60.72229225
59.12275112
57.77688964
56.71629206
55.90802733
55.34023698
55.0101851
54.91798179
55.04692684
55.35866295
55.87966354
56.57823531
57.43749083
58.44506214
82.87903577
107.2694104
98.37768238
93.61369787
86.51700673
82.68747842
79.16908354
75.9291603
72.94764054
70.23078133
67.79712775
65.60055791
63.67520086
61.9772456
60.53643304
59.34193381
58.38739984
57.65708044
57.1472387
56.86919461
56.77154835
56.8887894
57.18989119
57.65482489
58.31384609
59.10246127
83.03791802
103.5155341
100.2726767
89.78375084
90.47001417
83.04418152
79.67831608
76.60771933
73.82326912
71.27159952
68.96906821
66.912643
65.11868423
63.51903192
62.16108825
61.02759713
60.13860102
59.43639438
58.97561011
58.70561469
58.61158812
58.6970293
58.96563162
60.13543748
57.04902463
82.10565164
99.50214061
96.8709245
94.42764269
89.57100639
82.78501804
79.65020959
76.80545231
74.22134426
71.8782647
69.7553063
67.91552022
66.27187978
64.82134125
63.57557473
62.57374901
61.78178693
61.14192434
60.71601238
60.47215845
61.38326483
60.16852036
59.14650057
64.64444453
80.36726731
101.5816699
95.31160735
95.80580135
85.88719844
86.64783352
80.26713937
77.61844171
75.20051497
73.05793096
71.12629971
69.37814825
67.88297286
66.56041953
65.40042006
64.42911578
63.67215696
63.08953968
63.69480812
59.72835787
64.83692801
72.27938458
58.61742988
83.30064485
95.13693201
95.45105337
93.70962944
92.85701319
83.72274814
84.32178507
78.90279547
76.60414436
74.55638331
72.68722744
71.0694871
69.62308941
68.37299117
68.59258214
66.19545863
66.10866726
63.6366921
67.96662124
71.89085375
50.51211799
80.24348268
92.09096039
92.36269701
90.87907629
90.34502103
83.00256091
80.83490546
78.69969963
76.99786216
75.49388274
73.65319127
72.12886995
68.8741336
72.58958276
69.14981503
77.8575815
63.37454768
54.51600775
77.58388377
93.85568445
85.31216005
88.52286863
84.41806088
82.59294653
80.67209495
78.56184236
77.03276544
75.43542805
84.58464026
69.02050118
71.20242209
57.31499959
73.96537692
88.32069538
86.31779564
84.0845599
82.21181785
80.20063514
78.63180644
62.74053451
113.49088
107.8809405
101.0964321
93.08425555
87.30851393
81.9698661
76.99209281
72.28414485
67.88869621
63.71714023
59.85091719
56.27630982
52.95574288
50.00590378
47.40352778
45.22353427
43.46546065
42.18508627
41.36677215
41.03447342
41.15362911
41.71032836
42.65647887
43.94729942
45.56095032
47.47200455
49.64099485
52.02531004
54.59613533
57.32809751
60.20083356
63.20963285
114.2002105
108.3172936
101.3588023
93.90491436
88.17934181
82.88765794
77.90849997
73.18512112
68.74693267
64.54038228
60.60599041
56.95156989
53.58972409
50.5760031
47.92251626
45.67444569
43.88479983
42.5424246
41.68786853
41.31692726
41.40118345
41.91100181
42.83678741
44.11435591
45.70313369
47.58673324
49.71330157
52.06730209
54.6242571
57.33930444
60.17020606
63.13894805
115.1017091
108.7405416
101.8428147
94.37329193
88.64032345
83.23276177
78.21311267
73.50023122
69.01228432
64.86603173
60.93045715
57.29044777
53.94741716
50.92297844
48.27782942
46.02947104
44.23195216
42.87320724
42.00804711
41.62210928
41.68003133
42.16387761
43.02319723
44.25559287
45.81095933
47.64887896
49.72286506
52.03330781
54.52402387
57.18384727
60.00299988
62.94930465
92.39996834
111.4343637
101.7135037
94.6128988
88.7686973
83.32669652
78.26506538
73.51520098
69.10127384
64.95840056
61.09295912
57.52044381
54.2150192
51.25354065
48.64818748
46.41916875
44.64412936
43.31100139
42.42665338
42.00877103
42.02956212
42.45731779
43.28295301
44.44847967
45.93101455
47.69821303
49.72790114
51.96374822
54.38819986
56.97760089
59.70507431
62.55746205
108.1137827
102.5412239
95.89805024
90.1024084
84.70631526
79.67119865
74.91795912
70.46739845
66.25220773
62.36380742
58.6948114
55.3679017
52.34511838
49.67452437
47.41294833
45.58127831
44.17580058
43.23140703
42.73882677
42.66761965
43.0126125
43.74006962
44.81345539
46.20586785
47.87146609
49.7840433
51.92351995
54.2533723
56.75015627
59.40294999
62.17171388
115.6537292
106.5423971
102.7200334
91.87004073
86.4560438
81.46849306
76.73610878
72.28714816
68.08007224
64.109545
60.4087178
57.00569539
53.90552621
51.18560314
48.82534631
46.89265694
45.39045553
44.35126409
43.73287292
43.56638496
43.78583276
44.39977977
45.35864889
46.60950557
48.15143844
49.94553055
51.94987173
54.15928048
56.54472025
59.0829881
61.73307958
113.4426775
104.7226704
100.7337785
92.85375099
87.4730249
82.36217176
77.59491549
73.16376377
68.99611188
65.05466011
61.3771812
58.00090905
54.92909243
52.22647785
49.88644768
47.9481179
46.41940403
45.31763895
44.64729859
44.39359525
44.52897468
45.0202741
45.86803657
46.99906221
48.41119845
50.06920446
51.96793687
54.04406391
56.28389285
58.67343545
61.19481615
92.94255176
111.2233773
100.7090521
94.41532967
88.95158611
83.77578764
78.97697973
74.48685098
70.28200302
66.31373033
62.63906931
59.2603197
56.22864226
53.51884634
51.15336032
49.18737114
47.63239529
46.48844485
45.73422279
45.3880029
45.4205768
45.80378009
46.5089462
47.50957355
48.77387526
50.29748904
52.02793387
53.95276229
56.04427734
58.30340668
60.68257781
110.5826802
105.431101
100.9582254
90.77926464
85.52568186
80.73294636
76.28723017
72.12065187
68.22425113
64.58914465
61.24174809
58.18217521
55.46831265
53.06013076
51.02875301
49.38276179
48.13613468
47.28024296
46.79655099
46.67111895
46.88898948
47.42239217
48.24941469
49.35120258
50.68320517
52.23061128
53.98511872
55.89335316
57.96346379
60.15479084
93.45826463
107.0444397
100.7584005
93.71635762
88.560652
83.67058499
79.13710405
74.81687603
70.83850024
67.04939043
63.58415292
60.43255768
57.6122822
55.1255455
53.00966645
51.27304414
49.89024696
48.90343555
48.28235122
48.01891307
48.08098978
48.4370527
49.09080528
50.01253512
51.15397774
52.51653737
54.07525576
55.80148632
57.69707845
59.71384674
110.0191713
104.663304
100.3449064
90.68702544
85.84411401
81.35214772
77.09574392
73.14481494
69.46891489
66.01061075
62.8975541
60.06133905
57.54028343
55.37005874
53.52424767
52.0632623
50.93737825
50.14698232
49.70508606
49.55984999
49.72645676
50.17450682
50.87835819
51.82047554
52.97546355
54.32535109
55.84761779
57.52910612
59.36577891
92.26326446
106.4256334
99.66712828
93.42158501
88.47866391
83.95909911
79.71076578
75.70414677
72.00990434
68.55214647
65.39131864
62.5403045
60.01021891
57.78387371
55.87955248
54.32430941
53.07583609
52.16029321
51.54653649
51.25268359
51.24796066
51.49195362
51.97593802
52.70227959
53.63778323
54.75949558
56.07409366
57.53950682
59.16819424
110.0315471
104.1735604
99.30522029
90.77496616
86.1010082
81.8445457
77.88557877
74.2882943
70.89012196
67.83489622
65.05371075
62.54364347
60.3190338
58.40409296
56.77764242
55.44071808
54.40722534
53.65291441
53.17738491
52.97861473
53.03980678
53.33534895
53.83621812
54.55996634
55.46743388
56.53885944
57.77565015
59.17210172
92.0182937
109.9201456
104.2856353
98.6454699
90.20566291
85.87585999
81.84358969
78.14160202
74.66239888
71.44974758
68.54736565
65.91042912
63.5408683
61.47107489
59.69702701
58.20991582
56.99859894
56.0844042
55.42864188
55.02225514
54.8630488
54.90949595
55.19138779
55.67074513
56.35824867
57.21914138
58.2186594
59.37166637
87.15550655
107.9334048
102.4634869
96.82554468
88.30417624
84.18523786
80.43145317
77.01467503
73.85434055
70.98235405
68.41094192
66.10397776
64.04971686
62.26663501
60.73173824
59.45369723
58.43005905
57.64457854
57.08747986
56.76069374
56.65385313
56.73867216
57.01533961
57.46187325
58.09031254
58.88093824
59.81722712
85.07261774
106.3059418
100.9626751
95.20774542
87.30874012
83.5315811
80.06383829
76.94295397
74.11114243
71.52659956
69.18573652
67.12436646
65.2886909
63.67393643
62.31019628
61.16944378
60.25602302
59.53195713
59.01635094
58.71843761
58.6054434
58.67077465
58.92073194
59.31110745
59.86974655
60.56655356
85.60956339
106.2856651
101.2963268
95.55924076
88.4992525
84.84531159
81.58438046
78.55513076
75.8380903
73.29438597
71.03481524
69.03906209
67.23019699
65.69077013
64.39182158
63.2743175
62.36673198
61.66207133
61.15834629
60.81448292
60.67267873
60.69962759
60.88247162
62.44071135
61.20301371
83.66619884
105.4778984
102.0785326
91.28194178
92.08825671
85.01137953
82.03369631
79.29539045
76.81687603
74.51160769
72.49603709
70.68065414
69.05792996
67.63206774
66.43915832
65.42339592
64.57137597
63.89740118
63.38578212
63.03606526
62.85899311
63.99263798
59.92825365
65.50191712
84.19675085
102.6141332
100.443706
99.64615624
89.31213899
90.11720844
83.97140622
81.35819776
78.99809038
76.81966891
74.89371095
73.14159752
71.56655172
70.1766066
68.96915883
67.94101171
67.09072316
66.38921886
67.24703221
64.84394782
63.05517402
77.72357227
61.04599421
85.86036666
98.03573319
99.37383036
97.11053513