/*--------------------------------*- C++ -*----------------------------------*\
| =========                 |                                                 |
| \\      /  F ield         | OpenFOAM: The Open Source CFD Toolbox           |
|  \\    /   O peration     | Version:  v1706                                 |
|   \\  /    A nd           | Web:      www.OpenFOAM.com                      |
|    \\/     M anipulation  |                                                 |
\*---------------------------------------------------------------------------*/
FoamFile
{
    version     2.0;
    format      ascii;
    class       volScalarField;
    location    "3.2711";
    object      mctToDt_O2;
}
// * * * * * * * * * * * * * * * * * * * * * * * * * * * * * * * * * * * * * //

dimensions      [0 0 0 0 0 0 0];


internalField   nonuniform List<scalar> 
60268
(
350.208552
336.3641921
325.0918253
313.3151932
303.0742419
293.5057086
285.1480897
276.9385676
270.4848336
264.5079612
261.8436697
284.5894339
333.1676944
324.3319176
314.1274793
304.0766055
294.5639702
285.606616
278.1469537
271.376601
264.6139797
261.32606
329.148428
325.7394974
315.4630081
305.0979996
295.5164073
287.0190603
279.5398996
272.0761345
311.2239134
212.6887387
276.3669252
325.0849209
316.3415535
306.1873662
297.4758938
288.4947758
280.4154576
272.0768934
260.4074344
261.3961594
316.0729689
309.1388488
299.3779775
290.3666484
331.1400902
267.2482673
227.6328765
260.9761062
312.5300623
306.5488971
294.2111699
233.7866388
390.9438041
375.1118774
363.1120231
349.7829648
333.2128197
317.1711763
305.117386
294.1638858
284.3585633
275.5147181
267.7707368
261.0858099
255.4992517
250.969239
248.6729778
248.40045
245.8705313
243.6691922
243.692012
244.362325
393.6140329
374.1390604
361.5091707
353.6247125
338.8566806
330.8841932
304.0745581
293.3934316
283.8140163
275.1793254
267.4761637
260.9949735
255.562846
251.1248671
249.3906939
248.6429339
245.9443717
244.2463758
242.4422576
244.3581449
396.8686072
375.6233718
363.1925078
348.884921
332.4349746
324.8894615
306.2177106
295.4505321
285.5636663
277.002803
269.2406822
262.5932782
257.1126055
254.8925661
243.8785474
252.0583021
246.8248246
244.5482508
279.3131383
198.0178866
400.2194125
378.2089185
365.0850457
353.4271985
344.0183484
332.5021709
323.340991
298.9062522
289.1101123
280.1936815
272.4727176
265.5158027
259.8773771
251.8466168
264.7693438
248.743272
248.1408548
245.6563614
236.9444644
323.318579
383.0431948
366.3063908
353.6090582
341.8077583
329.4037537
324.7204933
314.4332954
292.0868839
283.1200933
275.300215
271.3683594
260.0770439
257.0380402
262.055557
254.333419
249.9238185
247.2385421
246.7032323
377.639052
370.4904897
358.4158717
346.1061893
334.3273751
322.3153401
322.7669831
300.2475772
290.139272
282.2967917
267.8742016
281.35683
270.8888237
257.6985815
255.7153421
251.8941729
287.5527982
203.2711464
317.1791314
376.8411661
359.149161
347.0575599
335.6894965
325.4147324
309.7521607
304.0461093
296.3890176
287.493623
283.5330701
270.8863009
268.128861
261.7969374
256.850868
294.4549599
199.4232305
298.7582542
367.6173465
351.0085835
339.2223683
328.4417235
316.9137305
307.4297746
298.8035622
290.9993112
283.2960725
276.3029432
270.0224553
264.7207319
301.9174889
204.0031756
291.8014484
361.2454486
345.7138468
333.8266747
322.9755705
313.1693995
303.2030351
295.5166481
287.9758718
281.0217518
273.8712405
311.705478
211.1806493
297.6049305
338.7497637
341.9322013
328.4587835
318.5240385
309.3973737
300.4315473
292.4236422
328.7182605
271.1045136
225.2876095
282.3426223
337.7400076
327.1961952
317.1485225
307.2431123
299.2488218
239.3397865
419.0195114
400.3039158
388.0669797
367.2759731
344.369912
329.1083776
315.216689
302.4978292
290.528853
279.6236496
270.0108617
261.3893693
253.8616684
247.4730288
242.2616358
238.2265676
235.4300054
233.6142702
233.0961149
233.4154992
234.7858039
237.0880179
240.628652
245.5672202
424.0088665
404.2985256
388.8514677
369.2748904
348.1356811
332.7213171
318.5513249
304.9315233
292.636691
281.6434749
271.5044667
262.6300811
254.7765427
248.2801055
243.0189749
238.8644075
235.905423
234.0174998
233.4377494
233.7803143
235.2093447
237.4105922
240.5450512
246.0851128
426.7406368
403.0613951
390.0398876
369.6902963
349.0418315
334.1073308
320.4115077
307.134483
295.0968048
284.0091928
273.8407363
264.8869105
257.1289769
250.4550668
244.9878117
240.7021987
237.5274202
235.592725
234.8141518
234.9130318
236.1143651
240.7387503
235.085005
249.2290121
430.2120762
407.0956378
390.907797
371.6291868
351.9580767
336.6814928
322.3457777
309.1414291
296.8810059
285.4886415
275.566051
266.7076001
258.861758
252.1621345
246.7605431
242.3873306
239.2616318
237.0970759
236.1202426
236.2434643
237.3127435
237.034588
252.5306171
243.1466719
348.0038493
415.041594
400.7774928
384.3828512
372.5559802
341.9078418
327.1750713
313.6268653
301.3915982
290.07232
280.0064657
270.6988188
262.6501632
255.9284863
250.2086213
245.7031346
242.2783091
239.9671296
238.8037564
238.5681998
239.3228953
241.5664492
246.2069988
247.8344168
403.5313402
394.2095883
374.7177286
366.3069996
343.611801
329.2351058
316.1969296
304.0593577
293.1914234
283.3936802
274.56872
266.8637145
259.8878633
254.0948038
249.5160501
245.9896775
243.4796922
241.9962882
241.4580775
244.6507371
238.2074267
250.4559118
249.5487804
342.0341617
407.6675104
393.9195883
377.605844
364.8634971
337.8663325
324.4554539
312.1508933
300.7419637
290.3063993
280.9196509
272.6881933
265.5977624
259.4632929
254.4152771
250.4958053
247.6089106
245.9128134
247.3696666
235.5520732
260.4951903
244.9458028
272.7496335
398.5743232
388.781122
375.8423172
370.3474107
355.3092067
328.7790088
316.513059
305.461655
295.3533958
286.1918639
278.0442076
270.847375
264.6659165
259.5023629
255.5715506
252.6420525
252.895087
239.7579389
263.2713726
248.0769382
285.4410639
204.2893484
337.6925179
403.5636185
382.7239086
369.9053841
364.1095678
349.0567967
324.4512064
313.0625652
302.3938087
293.0687859
284.9139838
277.6141827
271.3628947
266.0762974
261.9056763
261.2300726
246.6854736
269.3649037
252.7763455
252.8184316
241.1534824
317.7632687
393.0933444
374.067646
361.4028806
362.4243162
329.9043538
332.0817993
309.3257313
299.9138157
291.6631608
284.3444107
277.8762473
276.029608
265.6107333
258.9335025
277.1364906
258.827048
257.9429845
293.2635444
209.0742794
312.6099275
388.9235124
371.0433225
352.1742334
352.4790119
348.3336926
321.9806977
312.9810593
304.4916545
297.1478132
288.8759776
275.2871917
289.7306814
278.887904
266.2386541
264.6246924
300.4746759
206.3309559
310.6539355
382.737739
364.3307959
354.7101961
336.8250934
331.6224042
322.4249757
313.0336479
305.0956521
298.1929522
294.538497
281.1156573
278.4683889
314.8826792
257.117456
219.0255032
313.3265917
357.6883932
364.36455
346.8950018
338.2879882
328.291054
320.1031446
311.265425
304.3842227
296.7219354
333.3778765
275.5045352
231.0382578
302.5638154
360.253347
350.8045905
339.4024347
329.5537003
319.7919435
311.685667
304.5650381
244.1990138
452.4010243
435.1041924
418.8104679
397.0267162
373.6096335
356.0632142
339.1531267
323.2564027
308.3810298
294.4588259
281.4550039
269.4962941
258.8618318
249.5625682
241.5438809
234.7922746
229.5637486
225.7935873
223.3854908
222.3019371
222.4340243
223.5808919
226.096123
229.5256705
233.9301679
239.2009033
245.1708859
455.6363927
435.5763747
420.4419946
397.6041083
373.5138717
356.0827513
339.5051599
324.0759371
309.8047172
296.0215735
283.2257236
271.5551352
260.9948371
251.5736962
243.5684434
236.8258762
231.43534
227.4468049
224.9276689
223.6222573
223.7733716
224.8943281
227.1631429
230.3736772
234.6634886
239.7076493
245.592331
371.3501139
443.2203205
421.7233506
400.1599178
378.1099151
360.4135614
343.3914672
327.440335
312.4841945
298.2070742
285.1003202
273.2004249
262.4252867
252.8498225
244.6997744
237.8877999
232.738889
228.6692911
226.0662757
224.7842809
224.8245724
225.8081471
227.8544338
230.938762
235.0634358
240.0333687
245.7371914
430.9307704
419.3261119
397.9526193
374.6501954
356.7366664
340.075112
324.5030899
309.9091766
296.4375786
283.8559127
272.4818146
262.1041894
253.0795053
245.2379002
238.7457693
233.4134104
229.5774743
226.9403499
225.5612412
225.4646299
226.4382935
228.5441333
231.506276
235.3768468
240.0851878
245.6086778
452.1734818
430.8245156
412.4862903
399.4244481
361.9735142
344.7313821
329.2610773
314.7053279
300.9980475
288.3068975
276.7609699
266.3807848
257.1393435
249.0784814
242.3253631
236.9270404
232.8326499
229.9315668
228.3325752
227.9425359
228.5744926
230.352374
233.1014091
236.6401494
241.0296606
246.4258855
457.9054126
426.1874783
405.472393
395.041452
369.6030537
352.7292636
336.9503589
322.0154316
307.9295846
294.8983973
282.9616101
272.2159959
262.6018761
254.369407
247.317015
241.4392464
237.122735
233.9914133
231.9964708
231.2207436
231.6160187
232.9645097
235.3567563
238.6178518
242.6849896
247.6450742
368.7341971
441.4110961
423.8056727
406.2730411
392.9819852
356.4285464
340.6066633
325.9693494
312.4222336
299.7246424
288.0779596
277.5016815
268.199773
259.9242234
252.8586388
246.9980651
242.3503317
238.9110532
236.5981552
235.4909288
235.4200839
236.3041038
238.2338905
241.0834942
244.8521104
249.3772115
430.4667962
417.0628072
396.487679
386.4369535
363.2077048
347.6671985
333.0759647
319.6315152
306.8501422
295.2734469
284.6716081
275.1758113
266.6270853
259.3238079
253.2822588
248.3967571
244.6834282
242.1396137
240.5640234
240.0938806
240.4980559
241.9865445
244.3932584
250.4511593
237.3300027
362.4001957
436.2704889
419.174935
401.6114758
387.0430966
354.4064279
339.6181721
325.8138324
313.0842607
301.6282292
290.9170528
281.1111542
272.9591468
265.7538468
259.4610366
254.3294108
250.4612134
247.4287856
245.5307874
244.6147775
244.5846565
245.5838822
247.5464112
247.2713782
264.3179247
343.166903
425.1425253
401.3161562
397.1816594
380.284914
349.9590845
335.9903247
323.1277557
310.9461406
300.1966968
290.2449306
281.5062049
273.7223526
267.1321358
261.6455658
257.0665891
253.5945148
251.2626776
249.9155386
249.4826928
249.8935151
254.5656298
246.0339173
261.6855088
417.7155314
407.3303973
394.2732837
389.4296689
372.2390424
342.0261528
329.2127455
317.5156663
306.8519002
297.2795019
288.486889
280.6883961
274.0048714
268.3196294
263.6556136
260.0265306
257.2680553
255.510042
254.5478249
258.1385474
244.6790307
271.1492271
256.3964994
353.425525
427.1865296
401.6313425
388.5547916
383.5331245
366.6630261
339.8273314
327.8233952
316.8811791
307.180593
298.1919922
290.2283679
283.455469
277.4899455
272.4142438
268.3325452
265.1398849
266.7396463
259.6233965
254.3806854
274.5857098
293.5929678
244.2967161
336.1839845
420.2383374
397.1610909
384.080196
386.749037
350.6000248
352.9170733
329.0144814
318.8076999
309.8085785
301.4447731
294.075626
287.7101605
282.2678607
281.7375059
272.1015343
264.4296984
281.9368334
272.4639997
299.71298
208.9885615
344.2615973
390.7836801
402.344445
373.7174339
374.902172
371.8960808
342.999424
332.6504511
324.7407602
316.1356094
309.3544285
301.904383
295.2312128
281.4062204
297.8279824
286.2746355
272.9546249
313.852545
215.0052444
319.1253184
397.4378325
379.9708113
362.3291778
356.4176176
346.4105832
336.5151393
327.7332821
319.9302539
312.3076495
305.8413567
302.3912709
288.3115166
329.2123853
270.7651804
229.5746297
327.0138052
391.8411525
362.8147052
371.0546319
354.1876797
345.5953096
337.0097956
327.8061876
320.2215171
358.685034
297.188043
300.7137629
242.1926056
305.7680858
366.8985323
356.660392
347.3053636
338.1924748
330.140499
263.5392208
471.7197198
454.0104098
428.8544973
402.5390705
381.5256182
362.2961237
343.600839
326.0628102
309.6118604
294.3819739
280.3235186
266.9675893
254.8914699
244.0694203
234.8774233
226.9962958
220.6197605
215.86267
212.6240195
211.0167258
210.7902269
211.8925668
214.3876243
218.1134109
222.8314594
228.5498555
235.1559483
242.3945873
250.512812
385.8757313
459.2680768
431.2793077
405.8263489
385.1283642
365.7557819
347.2774905
329.8330391
313.535068
297.8986561
283.498172
270.0834474
257.9581488
247.0075547
237.1810897
229.0649603
222.6252812
217.6965809
214.3645723
212.5809104
212.1561717
213.2644932
215.5929753
219.0418936
223.6758518
229.2557482
235.6473869
242.941642
250.9406272
455.9110366
438.7261701
426.6259416
383.8734219
364.0392287
345.6692195
328.4524559
312.3565887
297.5228347
283.398339
270.4270072
258.5808247
247.931921
238.5536468
230.6817168
224.2085975
219.3260124
215.8966215
214.0196909
213.5944315
214.5701926
216.6860903
219.9906695
224.342076
229.7901723
236.0130761
243.0372375
250.8625214
460.6363846
432.0737208
420.8740189
391.0604762
371.4994697
353.040084
335.657986
318.9770751
303.3234803
288.7079383
274.981789
262.6059166
251.4843861
241.8568023
233.5182397
226.7954615
221.4998837
218.0246901
215.9011087
215.1486754
215.8115911
217.7293824
220.8284509
224.9946792
230.2121695
236.27539
243.0912452
250.7007643
470.784085
444.8563239
418.9348854
394.3698333
375.5341674
357.1145268
339.8941092
323.7010951
308.1852334
293.3695167
279.6276458
267.1922202
255.9798395
246.2304315
237.7527206
230.7599847
225.2343122
221.4966049
219.0018653
217.9160364
218.2885093
219.9290825
222.7324825
226.5859093
231.266671
236.8783399
243.3545788
250.4536984
476.4260843
444.9731954
418.9900869
396.0715873
376.3151178
358.2703303
340.9975967
325.0229102
309.6755435
295.5066341
282.2700208
270.0281923
259.1237862
249.5916023
241.2120606
234.4048152
228.8895248
224.8829999
222.2214583
221.0441174
221.0995291
222.3266736
224.7693725
228.2065083
232.7376132
238.0224147
244.154106
250.9605584
383.1577175
470.5331259
437.9532845
421.5902541
385.1296969
366.3503727
348.8182683
332.2561881
316.4557339
302.0120414
288.3341742
275.8496778
264.8630665
255.0335516
246.4761686
239.3620554
233.7100001
229.3315382
226.4074583
224.8595387
224.61788
225.5249304
227.4279434
230.5164271
234.5473415
239.3892546
245.0310426
251.5232053
442.2959599
429.1811355
418.6744223
393.2666415
375.1056194
357.7880675
341.4205786
325.7118181
310.925049
297.2958467
284.9887322
273.5012655
263.3295583
254.3531253
247.0952979
240.9448934
236.1897039
232.9084673
230.8183864
229.8936572
230.2865389
231.7803779
234.2252738
237.6061949
241.794619
246.8585657
252.6293756
377.2926433
464.4014209
431.7772342
415.7612692
380.5518416
362.9859136
346.8739085
331.8089966
317.5622144
304.2976426
292.0483433
281.096423
270.9818197
262.2285506
254.7474376
248.3058969
243.2990831
239.5610783
236.9807717
235.5184284
235.2988431
236.1347845
237.9785611
240.7010907
244.3217841
248.6492166
253.8663865
441.3802844
433.8943549
429.1710899
410.4540761
373.9014219
357.6130097
341.9783762
327.6035497
314.1573
301.5825633
290.0535958
279.9410036
270.7336247
262.7189148
256.077022
250.6233189
246.407887
243.2365903
241.3696653
240.4328706
240.7274508
241.8987648
244.0517603
247.1349886
250.9399812
255.4095733
374.4170776
449.0510754
416.3136712
403.735989
380.1676955
363.7856452
348.650194
334.4050329
321.2065566
309.1320985
297.9476958
287.8226275
278.6214167
270.5692521
263.6615354
258.0070655
253.3803011
249.9958226
247.6078288
246.1788883
245.7203496
246.3614904
247.7880692
250.1290356
253.3073872
257.0993842
354.8366116
455.8048435
423.5846898
406.5906727
376.9590248
361.5786417
346.881592
333.3868166
320.9145276
309.5472922
298.9919008
289.6402323
281.2642494
273.9005162
267.6324975
262.5480149
258.5852305
255.5428657
253.5246378
252.6483081
252.4100034
253.1647547
254.604017
261.105187
259.3317433
433.7331454
423.0374403
419.6129999
399.8379835
370.8634281
356.4330035
342.8105152
330.3299992
319.1649145
308.5185605
299.2989336
290.7707609
283.4512085
277.1188716
271.6936322
267.2594656
263.6819993
261.2567181
259.7543788
258.9954125
259.0019736
263.5306402
249.9826361
273.4097875
370.727197
447.142246
421.0985888
422.1858888
379.6294843
384.2571899
355.1563724
342.4791596
331.0212151
320.7989706
311.1492381
302.6566321
294.8435699
288.1380551
282.5043581
277.624769
273.5263798
270.3992789
268.1486002
266.7937347
270.0640076
255.3153121
280.7238636
290.2956714
365.2803348
417.0808601
416.8647195
409.2928876
398.8607494
380.1111419
354.5123524
342.9678624
332.2933472
322.7551326
314.0003133
306.2147083
299.2572901
293.2270735
287.9843903
283.6054425
280.1767654
282.1226511
273.3330331
266.7041736
287.3382104
306.3624947
209.6041897
334.8952871
423.034019
399.636273
403.1999069
368.7373038
354.4513469
357.7416078
334.7235838
325.7581365
317.9649372
310.6738535
304.3248671
303.9554994
293.211887
292.0765781
280.5977729
297.076492
329.8658563
264.3894064
227.2106707
349.8548544
400.0363595
400.6734097
388.1695969
383.9803477
382.0457354
352.8229516
344.3707579
335.8498493
328.7842641
320.25427
305.9947905
321.5801818
306.1023144
302.3484804
328.2653705
228.9100837
337.8932069
384.3759177
400.7432385
372.1617294
369.5131237
359.6783511
351.4336936
342.6491207
336.0768777
331.0566986
357.1524143
302.9128134
307.9260447
248.1315477
328.0815206
390.1776517
382.8623745
374.2569359
362.8693199
354.0253139
347.7113818
340.2249781
271.9285703
481.0982504
449.7533663
423.3876856
400.8058204
379.6214309
359.3628843
340.532409
321.7605976
304.3002393
287.9050481
272.3084121
257.985344
244.7634758
233.1287788
223.1020678
214.8793088
208.3015257
203.5329206
200.6763327
199.7078138
200.3339235
202.5374026
206.1619173
211.0932818
217.2141016
224.3528172
232.3984579
241.2294643
250.7881347
261.063475
487.2871665
459.1144869
446.1516353
399.9027469
378.7213818
358.602093
339.5855984
321.3297662
304.4234498
287.9753487
272.9154849
258.9158865
245.9479044
234.534302
224.532919
216.2302806
209.7786654
204.9746492
202.0492789
200.9600794
201.4306029
203.604521
207.0779686
211.880762
217.9061402
224.9360081
232.7580443
241.5658268
251.1221803
261.2249262
476.2165264
450.2264718
437.2451396
405.0527889
384.0695417
363.99923
344.8050841
326.9342198
309.3774692
292.9762884
277.3193633
262.814096
249.7274036
237.8121974
227.5285093
218.9156308
212.0872236
207.1126704
204.0108366
202.8129419
203.0487305
204.9386613
208.2049512
212.6674164
218.4940544
225.3857887
233.1818126
241.7297409
251.1228338
261.0159586
486.6216265
459.5449614
433.9509083
405.5873865
384.0290945
364.1600786
344.9515466
326.9767322
309.891482
293.8306539
278.6735801
264.4537234
251.4296407
239.8803198
229.7122952
221.1071748
214.4175354
209.4225325
206.1495977
204.5070998
204.6554398
206.3537053
209.3941862
213.7295953
219.1804027
225.7300031
233.1561721
241.4632853
250.5904626
260.3253019
489.0005359
462.1691146
434.053602
407.1188079
384.9215878
364.5987311
345.9439202
327.7576473
310.7689471
294.9627314
279.9665611
266.1146313
253.2642382
241.921004
232.0784535
223.6919613
216.962155
211.907507
208.7224991
207.0189931
206.8293416
208.2535355
211.1011824
215.0971806
220.27811
226.3265787
233.4503781
241.368058
250.1143779
259.4088594
396.0331733
478.3299336
438.2167011
414.8827942
393.3229476
373.0982354
353.8414163
336.0871597
318.6393925
302.3998956
287.3774776
273.2203237
259.9896676
248.34785
238.2540167
229.4928366
222.4199706
216.9600487
213.2391723
211.0744991
210.5839033
211.4735532
213.8008753
217.2409133
221.9153868
227.6869264
234.2643619
241.836641
250.1323882
259.0775278
473.8415443
455.7725894
439.9148949
398.1009141
377.551908
358.1737994
339.8618495
322.5801187
306.7080041
291.5131909
277.776354
264.929879
253.3820536
243.0613611
234.4183842
227.2659923
221.5854754
217.6821146
215.228214
214.3773546
214.8847035
216.7445252
219.7327545
223.9723751
229.0641104
235.1888723
242.235018
249.9552832
258.2222336
484.3617562
446.2979047
433.9591481
403.8351164
383.1997701
363.7493492
345.9847774
329.34799
313.4295075
298.4597118
284.6153003
271.8705597
260.4577544
250.1259575
241.157028
233.930666
227.9602236
223.6363979
220.9599407
219.4961418
219.5608686
220.8838064
223.3351074
226.9109383
231.5325864
237.0065437
243.2790039
250.3289046
257.9927008
394.7340197
487.7890956
451.8621019
436.4663465
394.9578134
375.564383
357.7140117
340.5383702
324.5220178
309.1920733
295.1105528
282.1294936
270.1077037
259.3956172
250.2876743
242.5367114
236.1671391
231.3139906
227.8920785
225.9032233
225.2138162
225.8356141
227.7161379
230.4260121
234.3098655
239.0569166
244.7445516
251.1376188
258.2005471
458.0555151
441.1554759
427.8837096
399.4135715
379.5700927
361.0841621
344.0800907
328.2293233
313.6719386
300.1439789
287.700615
276.1814125
265.8118245
256.8970722
248.9657651
242.6926953
237.7148342
233.9631723
231.5649881
230.4995774
230.5046577
231.6919221
233.9812281
237.0848657
241.2426579
246.0691924
251.752807
258.1399265
391.4913952
483.4305811
446.9272345
429.9015318
392.0219844
372.9529711
356.129771
339.9255473
324.9714401
310.762545
298.1981975
286.540868
275.9970789
266.4752483
258.5266755
251.6571482
246.1686395
242.0196714
238.98468
237.1077042
236.4849197
236.9146514
238.4084398
240.8245652
244.2202414
248.3817614
253.2005576
258.7613562
457.8446275
447.2114972
441.8516059
421.5340749
382.337792
365.1644412
349.1320284
334.156245
320.5664261
308.0388277
296.5201284
285.9631726
276.5725787
268.4206354
261.3438611
255.405668
250.80241
247.271897
244.9777815
243.718997
243.3959183
243.9861408
245.7334139
248.147692
251.4153555
255.462755
260.2475811
392.9485397
470.8018632
433.7722603
420.8468061
397.1420143
379.7069294
363.4892897
348.1920393
334.0328409
320.9158418
309.1678937
298.3665217
288.660329
279.9417233
272.4191617
266.1682269
261.0294753
256.8307644
253.650186
251.7643135
250.7530739
250.6026102
251.4524187
253.2420033
255.651891
258.9131434
262.7533644
367.4357111
478.0966411
440.1711135
420.7978023
391.1978737
375.3366539
360.3546704
346.7208062
334.0143965
322.127336
311.4314291
301.6646562
293.0199132
285.4539706
278.5914017
272.8779597
268.1295716
264.4269014
261.7244708
259.9208958
259.0235062
258.9513421
259.6306735
261.1652286
263.3165318
266.2465293
368.9984523
461.7072157
448.8564976
404.1161737
408.6261107
376.4785936
362.7033448
349.9381075
337.9307562
326.6884591
316.6079879
307.3471247
299.1026981
291.9185633
285.6585359
280.2662125
275.7362634
272.2531889
269.5939417
267.7597108
266.916219
266.8298016
267.5054616
272.2300798
257.51966
364.7139684
444.0289756
433.527453
424.7459892
404.3867692
375.2539957
362.091649
350.025874
338.9790169
328.5284464
319.2874784
311.0321303
303.2639996
296.8541143
291.284423
286.3926221
282.410968
279.2755875
276.8047819
275.1825508
278.8203157
272.7891564
267.7032554
292.0366093
357.1874397
453.7482985
427.0821829
431.0483564
387.2895259
392.0408984
364.0460477
352.9189242
342.695432
333.3240039
324.7729117
317.2216675
310.1813303
304.0574881
298.798869
294.2670898
290.4886445
287.4610814
289.9036394
271.3564785
293.8781894
327.0078171
264.6315031
371.0641618
424.8641644
427.4270157
421.2470992
418.4046907
378.2682095
381.7194044
357.9864801
348.57062
339.2570652
331.3714066
324.1076706
317.627121
311.8726347
312.5851712
301.2985476
300.8681637
289.4281372
308.6011361
325.8674835
228.6490626
357.7086443
411.9068919
414.3148999
408.5521647
407.1943574
374.7896555
365.4218868
356.2016549
348.8210694
342.4039691
334.2706074
327.5667393
312.8103547
329.6454875
313.8450223
353.0144485
287.1745689
247.0132381
346.96742
420.6535516
382.9730171
398.4880766
380.3575825
372.749543
364.3355073
355.2136822
348.377762
341.3651746
382.5891681
312.2791311
322.2850468
259.3745609
331.6981538
396.7620605
387.9615906
378.5111649
370.6274729
362.1410683
355.3265538
283.5153525
500.5868854
478.159868
451.3332442
419.0725487
395.8130597
373.5827088
352.5705733
332.7241659
313.9459671
295.714484
278.6785578
262.7259526
247.5600559
233.9679207
221.8341782
211.3295379
202.742092
196.1553775
191.5643985
189.1066315
188.7986877
190.3363343
193.7416424
198.662657
205.1255551
212.7629137
221.418963
231.1079117
241.6905676
253.0007951
265.03091
277.5885325
503.6538327
480.5039581
452.0068613
422.8632199
399.7130493
377.7678122
357.2618035
336.9303001
317.9235037
299.508178
282.3832136
265.8866129
250.7359862
236.8326021
224.4606942
213.6774284
204.8195727
197.8945472
193.2669543
190.7080649
190.210673
191.6004419
194.6894739
199.5067721
205.7271105
213.2663142
221.9311884
231.5031428
242.0181988
253.18895
264.8663242
277.2585069
507.3628508
482.1765236
454.0040057
424.623681
401.1582261
379.1698154
358.0704108
337.9417619
318.8279695
300.8409682
283.5339725
267.1792038
252.1518868
238.2916917
225.9310222
215.1449848
206.3240062
199.4737055
194.8003277
192.0878124
191.4105072
192.7435432
195.8239981
200.2111314
206.217466
213.6361526
221.9926389
231.4431632
241.7850278
252.7661087
264.35236
276.5615842
407.2865302
493.1617385
453.2851795
425.3720366
401.4752983
378.7540778
358.0854266
337.9315797
318.7181379
300.9213933
283.8430546
267.8281651
252.974639
239.2950223
227.2121475
216.8039463
208.1257026
201.2441818
196.511571
193.7171589
192.8694015
193.908994
196.7414841
201.1075667
206.8851322
213.880561
222.1258905
231.309814
241.2079606
251.7802177
263.1392876
275.0872717
477.4655605
456.8517649
430.636043
406.86025
384.7247088
363.7160227
343.5708352
324.8611227
306.6566399
289.360702
273.1638183
258.2539746
244.4854942
232.1028635
221.4181425
212.4611026
205.299464
200.2333422
197.1929001
196.1012703
196.6567741
199.0674952
203.0225467
208.2414025
214.9161946
222.6785689
231.3762168
240.8594205
251.107308
262.0592419
273.6146816
511.5218888
473.9646404
460.5944066
415.0570239
392.5826278
372.0459815
352.3013091
333.4341416
315.1190404
297.8358317
281.3611017
266.2015048
251.9198807
239.2558244
228.1985157
218.9046856
211.3584241
205.8480459
202.2603663
200.5644186
200.7763319
202.5497038
205.9432778
210.6868888
216.7217247
223.8775623
232.0136905
241.0040818
250.669313
260.9587725
271.9440207
501.5887561
465.5874644
450.4962912
418.3198149
396.2020055
375.4481675
355.314927
336.2293599
318.4620204
301.2862254
285.1852105
270.0659128
256.2130405
243.7316808
232.5985952
223.3637608
215.9155357
210.0624502
206.2839374
204.3358826
203.9773382
205.4148521
208.4595295
212.6141195
218.1360558
224.6362983
232.1952767
240.56839
249.6763663
259.6282712
270.071027
409.6473269
493.0092249
449.1313946
424.6351907
402.4182138
380.9538348
360.5821347
342.1443448
323.9102068
306.8144817
290.504696
275.5212893
261.6115631
249.1482684
238.2456566
228.7465733
221.1342963
215.4469122
211.3139986
208.910984
208.2899978
209.2224694
211.4510208
215.1607581
219.9846177
225.8431486
232.8167103
240.666808
249.3299005
258.5076405
268.2441465
489.3190528
469.0893359
452.5606493
409.2043898
388.0123296
368.307939
349.2632794
331.507256
314.8434244
298.7380276
283.8787342
270.3784495
257.8010243
246.7888997
237.2255111
229.3955228
223.0197965
218.4337653
215.4711346
214.1641925
214.4231934
216.1074744
219.0207901
223.0055582
228.1855616
234.306603
241.2489705
248.9086878
257.3766331
266.5915462
413.1251227
475.5024384
450.0550006
421.7699784
400.8504228
380.8957911
361.5426236
343.4466178
326.2556034
310.0441641
294.7712198
280.7343026
267.8153275
256.4307477
246.5138664
238.0170077
231.212739
226.1527816
222.5954015
220.6068129
220.123996
220.8908968
223.1212833
226.4316126
230.8388025
236.106594
242.2524088
249.2616666
256.82265
264.9851099
487.1431448
466.6188939
449.5397544
409.4809194
389.635061
370.7164424
352.8110416
335.9480901
320.0464315
304.9951302
291.3237946
278.7129475
267.2642076
256.8802949
248.4050765
241.1317772
235.3680595
231.2742294
228.5606003
227.2325581
227.2083996
228.4379698
230.9405318
234.4837405
238.8654721
244.128831
250.1284313
256.9772818
264.4590101
408.3153219
472.8646939
445.0346624
419.8915242
400.6840302
381.8503389
364.0376611
347.1630022
331.0615429
316.1129403
302.2542278
289.522119
277.9929626
267.6543937
258.840032
251.3845808
245.3429744
240.5546593
237.2221272
235.1205415
234.3952049
234.7469987
236.3326619
238.8868916
242.3809585
246.6906306
251.634169
257.5143915
264.0054361
487.3428488
464.1432443
444.4230546
409.1473406
389.7909228
371.9481766
355.6001239
340.0289314
325.624415
312.2303365
299.758106
288.7967358
278.7316795
269.8855177
262.1601669
255.7544813
250.6596669
246.7712529
244.0840653
242.534972
242.2114058
242.847298
244.4646854
246.9832647
250.2460366
254.3862021
259.1845003
264.6580291
406.5779084
488.0107821
465.3403047
442.6432228
406.7388185
389.2787317
372.5811951
356.7540229
342.1128889
328.4200145
315.5783912
303.857842
293.3250028
283.9251593
275.6885585
268.5870339
262.6640657
257.9783448
254.4246551
252.1220519
250.6827189
250.3033066
251.0264097
252.5838733
254.9830051
258.1334344
261.9628822
266.4163275
385.7417645
479.7882154
457.7360829
434.7128054
398.4929842
381.7301665
365.8829954
351.2088062
337.6730101
325.2360109
313.8324955
303.5624093
294.4624686
286.4684607
279.3083456
273.4384212
268.4787752
264.4897436
261.4728526
259.5950201
258.4745545
258.257894
258.847692
260.3819822
262.5788574
265.5161543
268.9488811
376.9815624
472.7213841
450.8036798
427.2719977
393.790975
377.9631735
363.3936702
350.3932122
338.1408371
327.006708
316.705696
307.4951246
299.3181633
292.011081
285.7279486
280.3613753
275.9522731
272.3018851
269.6846377
267.9786486
266.9335883
266.6625097
267.1551488
268.2872494
270.3009466
272.91762
378.9160957
472.8213749
453.3950548
429.7965368
399.4510343
384.3127139
370.5491375
357.7706833
345.9599362
334.8817974
325.0591588
316.0357847
308.2416635
301.0680137
295.0494698
289.6658712
285.3200616
281.8284999
279.2569208
277.3505659
276.0814362
275.7510338
275.9947431
282.3426835
276.1652599
370.7687622
469.2879557
456.0449279
409.1534838
414.5513151
384.2083362
371.7134652
360.1037388
349.2772809
339.3770303
330.7782743
322.8543454
315.6016117
309.1979961
303.7539164
298.8436803
294.7285285
291.4070937
288.7099877
286.8436555
285.5629577
290.0640764
271.1254037
295.710161
373.7199227
456.9960012
448.578227
446.5537989
401.8964572
406.5542536
380.3465473
369.4168933
359.0408724
349.7180253
341.1858653
333.3140639
326.2931756
320.0763386
314.6977376
310.0606126
305.8259297
302.3360527
305.7720423
294.6334167
286.1788901
351.953835
276.0836833
380.4387492
435.8333775
443.3871718
434.6143074
434.393706