/*--------------------------------*- C++ -*----------------------------------*\
| =========                 |                                                 |
| \\      /  F ield         | OpenFOAM: The Open Source CFD Toolbox           |
|  \\    /   O peration     | Version:  v1706                                 |
|   \\  /    A nd           | Web:      www.OpenFOAM.com                      |
|    \\/     M anipulation  |                                                 |
\*---------------------------------------------------------------------------*/
FoamFile
{
    version     2.0;
    format      ascii;
    class       volScalarField;
    location    "3.2711";
    object      mfp_mixture;
}
// * * * * * * * * * * * * * * * * * * * * * * * * * * * * * * * * * * * * * //

dimensions      [0 1 0 0 0 0 0];


internalField   nonuniform List<scalar> 
60268
(
0.6974401703
0.6924882282
0.6826979859
0.6699408181
0.6571319283
0.6433080471
0.6300058566
0.6142926657
0.6010032312
0.5867436972
0.5768825271
0.562576112
0.6825744456
0.6811995188
0.6714389671
0.6585472313
0.6447530026
0.6301477571
0.616497609
0.6023725721
0.5866971651
0.5750125973
0.6709142387
0.6823592997
0.6715108483
0.6587246461
0.6454098495
0.6316479298
0.6178203133
0.6022564923
0.6863584813
0.4661214641
0.5555959125
0.6741750409
0.6698741048
0.6578894663
0.646365983
0.6320425235
0.6169513526
0.600091784
0.570913025
0.5333768327
0.6638347917
0.6593621295
0.6462561929
0.6321527815
0.7214893279
0.5825359353
0.496255671
0.5351367837
0.6550265756
0.6502875546
0.6301962045
0.5021367296
0.7112904845
0.720249084
0.7209479867
0.7164325056
0.7087578616
0.7021629344
0.6899624885
0.675299292
0.6588589983
0.6415813788
0.6240250608
0.6067549956
0.5901720332
0.5749817715
0.5609615094
0.5533573007
0.5421798438
0.531204942
0.5253063597
0.5199046513
0.718357617
0.7162333904
0.716166411
0.7220254777
0.7167236686
0.7253321487
0.6853749359
0.6712461517
0.6555500866
0.6389465513
0.6219881126
0.6052128149
0.5892124854
0.5743248896
0.5618272221
0.5533318198
0.5418348587
0.5322629688
0.5221591284
0.5199972117
0.7192363455
0.7158003594
0.7158670042
0.7091328123
0.6962624411
0.703335422
0.6863477708
0.6725664702
0.6570348605
0.6404089189
0.6235171987
0.6066846597
0.5906541994
0.5787126841
0.5477394442
0.5599836805
0.5428589924
0.5320421245
0.6003905769
0.4204844583
0.7240346694
0.7176547054
0.7163863196
0.7154287527
0.715613759
0.7133877751
0.7148484498
0.6766250932
0.6610034524
0.644551599
0.6274670084
0.6105055884
0.5943500584
0.5688784648
0.5918143247
0.5509250604
0.5441375272
0.5331921384
0.5076209954
0.5752369012
0.7163360315
0.7108963278
0.7085465728
0.704573957
0.6961645208
0.7043876812
0.6992931969
0.6612696327
0.645404733
0.6291060043
0.615892651
0.5877650048
0.5766783061
0.5829286158
0.5612657025
0.5465504476
0.5351129718
0.5278948795
0.6949356091
0.7128270273
0.711268161
0.7066027499
0.698403653
0.6882265608
0.7038850155
0.6647516641
0.6476842077
0.6330090349
0.6004222348
0.6285249866
0.6023849207
0.5697767625
0.5612555254
0.5478843055
0.6191718769
0.4327464604
0.5743796202
0.7138211336
0.7027785886
0.6985424205
0.6921885732
0.6844685385
0.6628397042
0.6597339313
0.6490661144
0.6334129776
0.6263855504
0.5984937763
0.5913427859
0.5745858739
0.5601926722
0.6362445175
0.4263089362
0.5517656686
0.7076671915
0.6960096728
0.6889680256
0.6808852908
0.6684182412
0.6574849032
0.6457170981
0.6333158193
0.6190099117
0.6042263784
0.5898117564
0.5761701524
0.6526049166
0.4368504988
0.547340442
0.7026486946
0.6904333956
0.6806601867
0.6702177961
0.6596728597
0.6458403327
0.6341867708
0.62111141
0.6076810598
0.5927323169
0.6714912956
0.4513922417
0.5651943615
0.6609166691
0.6855106237
0.6715255719
0.6612681231
0.6499627206
0.6365677781
0.622944876
0.70036817
0.576999798
0.4779338731
0.5507808599
0.673488517
0.66216965
0.649680604
0.6364134834
0.6249561431
0.5009648524
0.7047485361
0.7133994835
0.7223541399
0.7246003253
0.7251600459
0.7210427807
0.7135622898
0.7026424002
0.688777803
0.6725090688
0.6545427957
0.6357382614
0.6166341125
0.5981440026
0.5807266817
0.5650008576
0.5512056734
0.5395838711
0.5303127817
0.5233454955
0.5185888322
0.5158958939
0.5146027016
0.5179743802
0.7087850917
0.718090471
0.7218483752
0.7257810866
0.7316876066
0.7274183511
0.7191149344
0.7072739732
0.6924915004
0.6753592781
0.6565952639
0.6371829558
0.617788217
0.5990301459
0.5816208377
0.5656877413
0.5518850701
0.5402449709
0.5310187457
0.5239198527
0.5190101481
0.5161227008
0.5142849864
0.5187408374
0.7126070739
0.7143437986
0.7214417839
0.7235700498
0.7296404657
0.7264731559
0.7195908075
0.7090088672
0.6951324273
0.6786751017
0.6603657693
0.6410105536
0.6215600227
0.6025815748
0.5848055535
0.5687055901
0.5545233857
0.5427261887
0.5330148944
0.5255595287
0.5202574794
0.5214694347
0.501632552
0.5247944299
0.7146921402
0.7177609882
0.7194314906
0.7225878503
0.729227226
0.7258132199
0.7184125952
0.7075852541
0.693753248
0.6774942163
0.6595767141
0.6409361925
0.6219146463
0.6034272255
0.5860738226
0.5701343353
0.55614798
0.5441869095
0.5344925864
0.5270126522
0.5215329571
0.5119174767
0.5373626707
0.5111485716
0.5695344594
0.7219431158
0.7299623059
0.737746048
0.7549361656
0.7287761845
0.7218093588
0.7114261285
0.6980735584
0.6822956073
0.6646791405
0.6460226794
0.6272064213
0.6087910181
0.5912539962
0.5752873917
0.5610021997
0.5486761268
0.5384950576
0.5303641612
0.5244172486
0.5200346597
0.5223959393
0.5198411898
0.6891747696
0.7102546035
0.7045295278
0.7249613681
0.7192785393
0.7141694572
0.7057904976
0.6945192332
0.6807844022
0.6652847895
0.6484354366
0.6307880395
0.6131898568
0.5962510811
0.5804993134
0.5662877854
0.5537196668
0.5430694528
0.5344988772
0.5323329232
0.5104936788
0.5297870765
0.5216028842
0.5714245151
0.7219507831
0.7291391006
0.7331420865
0.744444002
0.7220228573
0.7139489775
0.7026848322
0.6887092833
0.6726218386
0.6554448708
0.6375302229
0.6199731999
0.6028122898
0.5867199368
0.5721009278
0.5592458816
0.5483481024
0.5425577905
0.5092888075
0.5560304666
0.5166253174
0.5681030446
0.6884042526
0.7067495998
0.7108786192
0.7313994345
0.7336401333
0.7067563838
0.6980280449
0.6864090766
0.6726984574
0.6572849486
0.6409416187
0.6243821037
0.6081454824
0.5925998769
0.5783379957
0.5655231433
0.5575817432
0.5214402633
0.5654784279
0.526989296
0.5991759602
0.4236246012
0.5714549404
0.7199829168
0.7113797251
0.7121491071
0.7293537351
0.727246844
0.6992109133
0.6884232055
0.67562071
0.661331931
0.6460637699
0.6304109989
0.6149126252
0.59983643
0.5857632402
0.57662591
0.5377820899
0.5806862062
0.5397243029
0.5343674816
0.5034041819
0.5494685291
0.7149467562
0.704721883
0.7034454088
0.7302404472
0.6844735208
0.7070206909
0.6749233411
0.6621778394
0.6483203463
0.6338296335
0.6190861917
0.6095252988
0.5825667126
0.563512581
0.5975666025
0.553400796
0.5462542519
0.6150131287
0.4337992119
0.5500596924
0.7183280226
0.7079333111
0.6908552726
0.7096629659
0.7191682474
0.6787332872
0.6676955478
0.6554208861
0.6432635544
0.626933413
0.5963054421
0.6249057808
0.5985578855
0.5684933308
0.5606177858
0.631089227
0.4287025574
0.5538900765
0.7097054841
0.6962177452
0.6941089297
0.673711487
0.6757758629
0.6658454625
0.6535583878
0.6423151051
0.631047101
0.6250858022
0.5966366052
0.5895340232
0.6627637137
0.5377079068
0.4549759757
0.5614944068
0.6615463133
0.6941109549
0.6781251927
0.6724677122
0.6631583559
0.6546727821
0.6426437429
0.6326023283
0.6187391154
0.6944076162
0.5723446561
0.4783809989
0.5579056241
0.6814439688
0.6754224185
0.663901588
0.6532918268
0.6414795445
0.6308327858
0.6207156881
0.4980998291
0.6864030346
0.701314591
0.7123709125
0.7252086071
0.7446211717
0.7491587203
0.7483017203
0.7423666498
0.7315124754
0.7165999284
0.6981826952
0.6771730305
0.6546767265
0.6317397914
0.6092810494
0.5881663163
0.5689891466
0.5523497302
0.5384990533
0.5275096587
0.5193097967
0.513666612
0.5106434453
0.5099951494
0.5115562692
0.5151277172
0.5203733254
0.686239846
0.7014189193
0.7135546728
0.7239393997
0.7396949657
0.7451582579
0.7457907942
0.7417029548
0.7326401973
0.7190733328
0.701763884
0.681554908
0.6594561239
0.6366346861
0.6141871458
0.5928837851
0.5734655887
0.5564541911
0.5420902312
0.5306059644
0.5219881379
0.5161341329
0.5128216899
0.5117538803
0.5129703937
0.5160467713
0.5208612821
0.5559267486
0.7098812358
0.7145503161
0.7273871604
0.7479460036
0.7526624609
0.7522363145
0.7465702029
0.7361444537
0.7214405838
0.7031813946
0.6824799271
0.6603199871
0.6375943902
0.6152855713
0.5940326518
0.5748119887
0.5578119912
0.5437005115
0.5323130921
0.5235382557
0.5174062391
0.5137422599
0.5125612361
0.5133635475
0.5163192367
0.5209405968
0.6763017116
0.7026391934
0.7139300452
0.728573545
0.7328461548
0.7331454235
0.7288665483
0.7203269214
0.7080528131
0.6924814713
0.6741388302
0.6541187601
0.6332447674
0.6123396843
0.5922626174
0.5740008912
0.557797954
0.5439459382
0.532620279
0.5238923815
0.5176668266
0.5138977047
0.5124754505
0.5130555736
0.5155543914
0.5198764522
0.7034979827
0.7157892441
0.7297974171
0.7573638484
0.7341486567
0.7348114868
0.731130087
0.7235857495
0.7121699344
0.6970697735
0.6792731267
0.6595663759
0.6389351854
0.6182922376
0.5983893187
0.5797004224
0.563234696
0.5489816112
0.5370577955
0.5277962434
0.5210314283
0.5166839262
0.5145429668
0.5145081496
0.5163527555
0.5199638845
0.7077553015
0.701373629
0.702508279
0.7311742219
0.7397706397
0.7420307343
0.7392302441
0.7317369224
0.720281186
0.7051180405
0.6871880361
0.6674512882
0.6465789415
0.6257474865
0.6056927471
0.5869421577
0.5701296265
0.5553542921
0.5429684591
0.5330189654
0.5255650097
0.5204419913
0.517656463
0.5169309838
0.5179600173
0.5208479513
0.5627373727
0.717310669
0.7242570478
0.7383306927
0.7625314329
0.7366602609
0.7350795978
0.7293648684
0.7197652349
0.706658195
0.6906928918
0.6726415208
0.6533385366
0.6334679387
0.6140204813
0.5954668199
0.5784920889
0.5635489421
0.5507918966
0.5402519627
0.5319682715
0.525982608
0.5221609939
0.5204806978
0.5206426961
0.5220389585
0.6787453606
0.6974683924
0.6967545593
0.722889292
0.7306010822
0.7315673012
0.7281192962
0.7205091038
0.7092503204
0.6948782081
0.6782385531
0.66014212
0.6412308078
0.6224726566
0.6043448244
0.5875006547
0.5723042143
0.5591318751
0.5480334797
0.5390440146
0.5322387937
0.5275288441
0.5247467445
0.528997225
0.4944024725
0.5605362311
0.7172338583
0.7234219664
0.7328969754
0.7495712145
0.7270646578
0.7240846981
0.7175433481
0.7077532175
0.6950824136
0.6801210573
0.6636084399
0.6462220337
0.6285924337
0.6112958499
0.5949269144
0.579961602
0.5665270116
0.5550251409
0.5455490689
0.537886629
0.532334513
0.5286089718
0.5192688443
0.5474963543
0.5441166063
0.71553362
0.7087961259
0.7398086594
0.7495215586
0.726254821
0.7212390683
0.71270762
0.7011775305
0.6870551724
0.6711837683
0.6542335896
0.6369604417
0.6197680985
0.603396936
0.5880407151
0.5741779577
0.5620496744
0.5518044928
0.543465597
0.5370019552
0.5386493117
0.5132075788
0.5390475195
0.6837818799
0.703994548
0.709897357
0.7359599335
0.7396649774
0.711482012
0.7048423897
0.6955595464
0.6839552526
0.670427429
0.6556220149
0.6400985332
0.6244310625
0.6090775862
0.5945112853
0.5810224914
0.5689306498
0.5584960876
0.5495337805
0.5486633459
0.5129273582
0.5614643615
0.5252415217
0.5617707387
0.7151266101
0.7021481329
0.7065189103
0.7288218786
0.7289211098
0.7036785017
0.6959508907
0.6859327
0.6741941747
0.6609308265
0.6468732658
0.6322509556
0.6177047787
0.6034976159
0.5901125897
0.5778903097
0.5732613038
0.5515997522
0.5342004392
0.5700924868
0.6035187374
0.4964083327
0.5433481897
0.7143527222
0.7020826221
0.7032056357
0.7368861993
0.6910559916
0.7176917302
0.6905421619
0.6802875211
0.6682315964
0.6548876675
0.640827847
0.6266738812
0.6128242409
0.6052115186
0.5801200357
0.5587650392
0.5903077569
0.5657237152
0.6164885862
0.4252063221
0.5633614597
0.6635708794
0.7129976306
0.6856807962
0.7073929842
0.7243577842
0.6855007155
0.6761444675
0.6689809337
0.6578597986
0.6481737712
0.6347838313
0.6215124382
0.5903875773
0.6214049068
0.5944434372
0.5637464672
0.6436501288
0.4368396481
0.5436837038
0.7059798152
0.6961925756
0.6802902648
0.6838123467
0.676839433
0.6670857561
0.6575289394
0.6478840171
0.636548376
0.625869358
0.6200748283
0.591110774
0.6722411278
0.5499674809
0.4638617856
0.5593684029
0.6900614757
0.653043215
0.6882672648
0.6711847227
0.6657223077
0.6581838395
0.6467350034
0.6370349791
0.7157663937
0.5937413956
0.6029934695
0.4849545965
0.5452904427
0.6700286911
0.6626840497
0.6548898462
0.6463289265
0.637411327
0.5109842466
0.6694039167
0.689098859
0.7026506689
0.7237278108
0.7359579372
0.7433309907
0.7461781544
0.7439283751
0.7364350239
0.7243304483
0.7078149767
0.6877308914
0.6650157738
0.6408808522
0.6165593943
0.5930791098
0.5712308847
0.5519803434
0.5357168563
0.5227947467
0.5131331267
0.5067139087
0.5033519702
0.5029085548
0.5049962804
0.5092505954
0.5155424913
0.523627233
0.533269958
0.5417060162
0.6954068367
0.7069850882
0.7293207665
0.7425923801
0.7511358474
0.754577951
0.7527526559
0.7457478241
0.7335095568
0.7168472785
0.6964995331
0.6733831459
0.648636743
0.6234531776
0.5991173049
0.576622996
0.556678875
0.5399878198
0.5265744762
0.5164903032
0.5096832385
0.5060252845
0.5050670075
0.5066801981
0.5106742516
0.5166264157
0.524348536
0.5337077311
0.6798427948
0.7119275413
0.7482870837
0.7327874049
0.7399314818
0.7433970836
0.7426187282
0.7370543147
0.7268339
0.7122334124
0.6936721315
0.6721051069
0.6487374009
0.6247131588
0.6012353319
0.5792602884
0.5596052456
0.5429184946
0.5294178856
0.5190940645
0.511999179
0.5078217178
0.5065429897
0.5077961717
0.5113587321
0.5169422623
0.5243234862
0.5333578545
0.6796200394
0.6865095396
0.7241071564
0.7403127799
0.7505363898
0.7551112151
0.7542025498
0.7478800146
0.7362288282
0.7200466181
0.7002658718
0.6776811824
0.6535529737
0.6291356941
0.6052180299
0.5828948576
0.5630533941
0.5460644668
0.5321124942
0.5214804464
0.5139668912
0.5093837979
0.5076809026
0.5084364164
0.5114524937
0.5165630779
0.5234538487
0.5319803531
0.6907201841
0.6995093269
0.7126260306
0.7387471517
0.7495833756
0.7555430471
0.7561325422
0.7509937737
0.7405772363
0.7254169612
0.7064059505
0.6844292527
0.6606689586
0.6362649719
0.6124675884
0.5899773437
0.5697181063
0.552242532
0.5377360496
0.5262404751
0.5179281607
0.5127037984
0.5101820092
0.5102230044
0.5124456945
0.516756271
0.5229192777
0.5306188279
0.6899001637
0.688453661
0.6997366344
0.7235448611
0.7342119181
0.7405308545
0.7423649427
0.7392840951
0.7315856982
0.7192101897
0.702878995
0.6833833914
0.6617300448
0.6391103684
0.6164799684
0.5949493568
0.5751680642
0.557822472
0.5431755314
0.5314682343
0.5226006319
0.5166558613
0.513449051
0.5126791469
0.5141146489
0.5175026979
0.5228165922
0.5296320512
0.5473708871
0.7202204297
0.7190604134
0.7478181278
0.7397198822
0.7462733991
0.7480353459
0.7447699006
0.7367825914
0.7244169973
0.7081327387
0.6890911408
0.6678944969
0.6457672499
0.6236354951
0.6024468483
0.5827332336
0.5651519752
0.550240547
0.5380278255
0.5285389077
0.5218268884
0.51769303
0.5159698092
0.5164624412
0.5188247314
0.5231297165
0.5291228759
0.6568728379
0.6834525217
0.7167564815
0.7356890656
0.7448341862
0.7491646746
0.7481653806
0.7422983455
0.7317472913
0.7171676962
0.6994724588
0.6794889671
0.6581384882
0.6361815809
0.6149783828
0.5950938654
0.577026669
0.5612937114
0.548182391
0.5376461554
0.5297413077
0.5243900581
0.521330585
0.5205126363
0.5217704388
0.5247028279
0.5293625904
0.5472871111
0.7221797217
0.7191732235
0.7441302713
0.7329934346
0.739033983
0.7404538634
0.7376764581
0.7302172005
0.7188084603
0.7038849469
0.686319406
0.6667937182
0.6463225583
0.6260209391
0.6064651847
0.5884011442
0.5723007548
0.5584748752
0.5471016267
0.5380832906
0.5315171871
0.5272121553
0.5249843825
0.5247773202
0.5264014824
0.5296857881
0.665816598
0.7005420528
0.738623587
0.7586513512
0.7418608007
0.7441170747
0.7419964584
0.7354616508
0.7248969746
0.7107956453
0.6939567175
0.6752926057
0.6557103516
0.6358160492
0.6164872449
0.598335203
0.5819561966
0.5675499584
0.5552706682
0.545357364
0.5378039446
0.5323508854
0.5289638012
0.5274564022
0.5278468139
0.5298159684
0.5502313933
0.7037702322
0.6876206499
0.712810346
0.7255750913
0.7299404746
0.7301625036
0.7264141674
0.7186055856
0.7075394212
0.6934887123
0.6773061075
0.6598018622
0.6417559908
0.6237281582
0.6064621798
0.5904278564
0.5759495818
0.5633377768
0.5528160805
0.5442166796
0.5375811371
0.5329797777
0.5302433698
0.5292790996
0.5298524508
0.5335381341
0.7309161909
0.7230202366
0.7395706244
0.7301043819
0.7318353013
0.7297168737
0.7235668187
0.7139478335
0.7014122612
0.6865378646
0.6700326743
0.6527168886
0.6352544445
0.6181504616
0.6020785304
0.587188626
0.573984497
0.5624203297
0.5529197222
0.5452099772
0.5392347809
0.5350259071
0.5399059301
0.5294832365
0.6714741919
0.6936807875
0.7265753249
0.7338238264
0.7204974204
0.720082804
0.7162416935
0.7090340568
0.6990361391
0.6867903818
0.6727623095
0.6575639631
0.641947153
0.6262942826
0.6110980692
0.5967305112
0.5835408393
0.5718314106
0.5616573901
0.5531197635
0.5460784099
0.5467825816
0.5114647338
0.5527439353
0.556907095
0.7097981265
0.69901858
0.7374386049
0.6937846846
0.7349376177
0.7123458388
0.7078645958
0.7002884266
0.6902791623
0.6783447454
0.6649507628
0.6507564955
0.6361668503
0.6217045777
0.6077592694
0.5946328238
0.5824500483
0.5715985083
0.5622028643
0.5608656743
0.5232235396
0.5685051629
0.5819813745
0.5552787847
0.6598841375
0.6941285773
0.711501997
0.7234198248
0.7215059408
0.7008726127
0.69562077
0.6881297008
0.6786083823
0.6675835987
0.6553557411
0.6423704032
0.6292131779
0.6160901715
0.6034051835
0.591497853
0.58807871
0.5642468149
0.5450665919
0.5813431195
0.614238099
0.4160067394
0.5312259686
0.707451986
0.692840166
0.726258807
0.6867354244
0.6775454834
0.7024842532
0.6758318953
0.6669419192
0.6567543708
0.6455927627
0.6339155796
0.6284632519
0.6038483716
0.599389321
0.5722344593
0.6017443508
0.6633208858
0.5275248059
0.4503389768
0.5601753461
0.662764897
0.6898726163
0.6902549257
0.699570985
0.7161890347
0.676902831
0.6704432675
0.6620451265
0.653740382
0.6407627299
0.6132277865
0.6435887215
0.6122991674
0.6039041135
0.6534177139
0.4524301757
0.5581188836
0.6548051717
0.7048603372
0.6713294635
0.6797193628
0.6724889163
0.6663877266
0.6571658186
0.6502308528
0.6445658106
0.6969491378
0.591326583
0.6022538348
0.484542192
0.552193137
0.6754664609
0.6745116394
0.6711770215
0.66174455
0.6544091077
0.6501209999
0.6427792809
0.5154358414
0.6664752248
0.6880040086
0.7172483753
0.7369675796
0.7515048915
0.7604069624
0.7631807077
0.7598783193
0.7503492434
0.7351522536
0.7149100179
0.6905571201
0.6636236453
0.6355240312
0.6074918157
0.5809748237
0.557063022
0.536626705
0.5201322511
0.5077560848
0.4994544948
0.495048578
0.4941321914
0.4963730932
0.5013605763
0.5087866291
0.5183100141
0.5296437221
0.5425835643
0.5568635569
0.6778874275
0.6982544843
0.7426784325
0.7325627679
0.7463525771
0.7553511818
0.7588841426
0.7567147852
0.7486521008
0.7348420665
0.7159793472
0.6928883711
0.6666518916
0.6389460736
0.6112337039
0.5847870752
0.5607605298
0.5402049856
0.5235380002
0.5109342731
0.5022523426
0.4975246957
0.4962645533
0.4981490504
0.5028065446
0.5098771002
0.5189772121
0.5301051198
0.5427995149
0.5567415629
0.6604562623
0.6743135845
0.7153766937
0.7390382031
0.7545922129
0.7650818342
0.7695535365
0.7675654186
0.7593592185
0.7451574728
0.7255647099
0.7016534585
0.6748657854
0.646516854
0.618086834
0.5910381077
0.5664489615
0.5452133863
0.5280438982
0.5148907359
0.5056774454
0.5003671362
0.4985098852
0.4998416611
0.5040994117
0.5107478509
0.5194045671
0.5300315065
0.5421475347
0.5556447919
0.6679883443
0.680943306
0.7015315261
0.7291328506
0.7443523225
0.7546629816
0.7596752678
0.758859736
0.7522547867
0.7398871022
0.7222444182
0.700241364
0.6749478062
0.6478620643
0.6204277406
0.5940782691
0.5699588639
0.5489224316
0.5315410535
0.5180623875
0.5086028362
0.5027709125
0.5004608177
0.5012041926
0.5046488677
0.5106933934
0.5189233906
0.5288691527
0.5405183415
0.5534991969
0.6667116678
0.6787259058
0.6929454478
0.7203981157
0.7345060148
0.7443985744
0.7492805273
0.7488942628
0.7433891691
0.7325531863
0.7166889917
0.6966765934
0.6733689639
0.648193044
0.6224422778
0.597274704
0.5739977994
0.5534585345
0.5363151498
0.5226952965
0.5125414487
0.5062546659
0.5033410769
0.5033273318
0.5061195939
0.5112205402
0.5185993644
0.5278049234
0.5385560631
0.5507012465
0.5317478281
0.6905803341
0.6899067887
0.7233646665
0.7397202767
0.7512382711
0.7576844251
0.7584844132
0.7537214415
0.743465078
0.7280888387
0.7082735749
0.6850935393
0.6598281048
0.6337846376
0.6082735012
0.584420721
0.5631354412
0.545108973
0.5305058262
0.5195836064
0.5121195727
0.5081133864
0.5069498343
0.508500435
0.5126117879
0.5188495968
0.5270153705
0.5368283735
0.5481408055
0.668319478
0.7037318269
0.7394984129
0.7322170213
0.7434391009
0.7500985803
0.7517665263
0.7484145961
0.7398571535
0.726516185
0.7089478459
0.6878630829
0.6643959612
0.6399076408
0.6155388481
0.5923633208
0.5713555477
0.5531165878
0.5381042784
0.526427072
0.518058376
0.5129758188
0.5108591998
0.5113123214
0.5140809006
0.5190944067
0.5261485685
0.5348885033
0.544824509
0.6735312193
0.6670049941
0.7035793382
0.721657869
0.7343276514
0.7426332201
0.7463180581
0.7451305449
0.7389873817
0.7280314076
0.7125749917
0.6935280924
0.6718431896
0.6487049844
0.625131677
0.6025014034
0.5815935061
0.5630926387
0.5476171682
0.5352184108
0.5258714285
0.5196010978
0.5161909179
0.5153249574
0.5168965604
0.520556789
0.526222828
0.5335080796
0.5421773617
0.5378209698
0.7109193416
0.7135952361
0.749093494
0.739081599
0.7495865572
0.7550717185
0.7553625484
0.7504835915
0.7406136151
0.7261058785
0.7078906316
0.686763884
0.6638082382
0.6403424098
0.6175579001
0.5961387874
0.5769149406
0.5603048698
0.5466276415
0.5359782742
0.5281925642
0.523166579
0.520638759
0.5206220683
0.5226858521
0.5267024641
0.5323835677
0.5397884296
0.6530231531
0.6733589866
0.7049949452
0.7215706515
0.7307811629
0.7365733276
0.7381583021
0.7356293679
0.7287431905
0.7177834995
0.7030766544
0.6854823857
0.6659871937
0.645264685
0.6245027991
0.6043736866
0.5858682285
0.5695128797
0.5554892493
0.5441287779
0.5353946471
0.5291640059
0.5254292389
0.5239557469
0.5245526077
0.5270773868
0.5312594373
0.5369844812
0.5394492128
0.7131875316
0.708936726
0.7371721287
0.7276262575
0.7358242715
0.7392408713
0.7381124692
0.7327071804
0.7232018331
0.709880423
0.6936621301
0.6751858651
0.6555693731
0.635665272
0.6161896401
0.5977963043
0.5811353058
0.5665378203
0.5542439196
0.5443332927
0.5367304145
0.5314953392
0.528400677
0.5274478194
0.5282911807
0.5308180203
0.5349244844
0.6557523029
0.6828751358
0.7206563323
0.7405644604
0.7242231922
0.7294004117
0.7307016893
0.7279815639
0.7214193377
0.7113381025
0.6981691966
0.6824267483
0.6650208423
0.6466311669
0.628140184
0.6103656401
0.5938612276
0.5787946002
0.565754395
0.5548668904
0.5460064376
0.5392289924
0.5346401864
0.531970686
0.5311082531
0.5318746056
0.5341920041
0.5427276304
0.69540666
0.6767979703
0.7038218384
0.7214219005
0.728490574
0.7312965283
0.7300548648
0.7247946239
0.7160502578
0.7043610347
0.6901646422
0.6741807868
0.6570314697
0.6396900083
0.6225519206
0.606273928
0.5912713135
0.5776760334
0.5659494327
0.5561036021
0.5481663354
0.542097484
0.5379359493
0.5354600542
0.5346479435
0.535229797
0.5198776039
0.7194478818
0.7062895195
0.7218396241
0.7174398415
0.7229007562
0.7250359232
0.7232620262
0.7179698458
0.7095396903
0.6981777455
0.6847334983
0.6697219627
0.6538098718
0.6375569661
0.6216929583
0.6065210977
0.5924752537
0.579896539
0.5689326584
0.5594686781
0.5518266
0.5458761893
0.5415529761
0.5389479909
0.5368485787
0.5320207159
0.7081863923
0.7310791338
0.6931303132
0.7410800851
0.725972025
0.7266882436
0.7234389015
0.7169352841
0.7073909158
0.6955409694
0.6818775835
0.6669267511
0.6513554407
0.6357139366
0.6204648606
0.606122106
0.5928257282
0.5809757179
0.5705113378
0.5615976774
0.5541984372
0.5483690526
0.5496015441
0.513557493
0.5326207647
0.6856793404
0.7015183361
0.7230790997
0.7284422054
0.7134038744
0.7126232427
0.7086187288
0.7018399221
0.6927464051
0.6816721773
0.6692347587
0.655853904
0.6420426512
0.6281182283
0.6147497258
0.6020806845
0.5901602217
0.5794464567
0.569988579
0.5688175209
0.5500456485
0.5336134288
0.5756105089
0.5269849456
0.7061062343
0.6929163339
0.7327942705
0.687269143
0.7241212838
0.7027888786
0.6985365145
0.6920765528
0.6836319286
0.6734026845
0.661951321
0.6498080633
0.6373222146
0.6246439602
0.6122950569
0.6006014175
0.5896945422
0.5869524242
0.5432797119
0.5829118322
0.6430933911
0.5160895983
0.5520918428
0.6559576683
0.6905857218
0.7068328002
0.7294062003
0.6836744524
0.7116940141
0.6903087794
0.6837195303
0.6752521541
0.6656221311
0.6548261114
0.643490557
0.6319743179
0.6283515175
0.6028286718
0.5990964117
0.5727798369
0.606698586
0.636743429
0.4430992876
0.5482828129
0.6547808963
0.6844408898
0.6970326698
0.7163041628
0.6776176738
0.6735814544
0.667269718
0.6622189623
0.6564427883
0.6457028733
0.6358130115
0.6075874629
0.6393822913
0.6084688384
0.6828214197
0.5535989982
0.4740897218
0.5436724551
0.6810146446
0.6353231356
0.6808006784
0.6655129325
0.6639104343
0.6592053082
0.6511116983
0.6455740367
0.6376936108
0.7178355275
0.5877382952
0.6087704092
0.4900385891
0.5422009015
0.6662923114
0.6632321919
0.6575369848
0.6536968015
0.6471031481
0.6419273055
0.5151239631
0.6435785656
0.6643621176
0.6883380452
0.7192578607
0.7385334585
0.7530419082
0.7621149591
0.7652692516
0.7619720664
0.7522794786
0.7359736186
0.7140171542
0.6873106352
0.6576161663
0.6263697038
0.5955435079
0.5666350927
0.5411268954
0.5199027739
0.5035536513
0.4922182987
0.4857318932
0.4837127689
0.4855508928
0.4908814667
0.4993418559
0.5103874757
0.5235677822
0.5385721587
0.5550851464
0.5729095576
0.5918403559
0.6473482003
0.666145942
0.689228455
0.7250877099
0.7462924157
0.762280508
0.7726446308
0.7768017825
0.7738880027
0.7639781331
0.7473008078
0.7246396371
0.6971102417
0.6664544121
0.6343080355
0.6025232555
0.5729031218
0.5465171546
0.524625943
0.5076887339
0.49577673
0.488681961
0.4862115157
0.4877668904
0.4927489162
0.50084064
0.5114495743
0.5242759203
0.5390774526
0.5553103013
0.5726944157
0.5912480594
0.6522981854
0.6681091604
0.6909096923
0.7248324281
0.745152297
0.7610960777
0.7712108242
0.7752361086
0.7726811128
0.763210641
0.7472708731
0.7253985917
0.6987247767
0.6686654379
0.6370296015
0.6055939846
0.5761159743
0.5498113944
0.527955236
0.5109229509
0.4987557959
0.4913931235
0.4883329238
0.489270485
0.4938399264
0.5014436275
0.5114935283
0.5239070527
0.5381785789
0.553955424
0.5710820913
0.5892931831
0.5164077428
0.6759424678
0.6813950018
0.7165643184
0.7358268911
0.7506108561
0.760278394
0.7641578813
0.7619687485
0.7536568723
0.7393017447
0.7192785333
0.6944993622
0.6663755432
0.6365491282
0.6064618385
0.5782098191
0.5527266103
0.5311073612
0.5140333925
0.5016159926
0.4937917129
0.4903952752
0.4908172089
0.4946814826
0.5015792015
0.5112070556
0.5229503043
0.5364216655
0.5514864976
0.5678523855
0.5853831187
0.6380658176
0.6760163839
0.7128371753
0.7338915628
0.7504851392
0.7617173721
0.7674940596
0.7668141047
0.7595966758
0.7461834681
0.7268145181
0.7027452682
0.6750742054
0.6454402418
0.6156110225
0.5871195681
0.5612368063
0.5391717433
0.5214821196
0.5082014759
0.4994022617
0.4949983815
0.4943412217
0.497153709
0.5030438919
0.5114953711
0.5222130296
0.5348050699
0.5489444335
0.5645558522
0.5812205709
0.6766910353
0.689825384
0.7371091451
0.73607667
0.7553179777
0.7690125532
0.7767675495
0.7779698004
0.7724144008
0.7601708823
0.7417221539
0.7180396969
0.690462905
0.6607511841
0.6304150547
0.6011935223
0.5744400821
0.5513555518
0.5322563934
0.5177623454
0.5076482424
0.5018043916
0.4998641068
0.5012142192
0.5056667922
0.5127849109
0.5221939383
0.5335216867
0.5465445154
0.5609733253
0.5764354519
0.6570391431
0.6587822053
0.6977987463
0.7257181009
0.7442034041
0.7581688625
0.7666353987
0.7689669903
0.765015543
0.7548618588
0.7385781252
0.7171883963
0.691859097
0.6642132715
0.6356517481
0.6076860376
0.5817397153
0.5588207781
0.5397143553
0.5247739088
0.5138562503
0.5068978771
0.5039430421
0.5040949276
0.5072780263
0.5130790783
0.5212355429
0.5312540882
0.5428956581
0.5559986173
0.5703504592
0.5244411645
0.6808007758
0.6785241633
0.7147932807
0.7334689393
0.7479306403
0.7569166502
0.7598709546
0.7570759989
0.7485599299
0.7344043381
0.7153408376
0.6924629814
0.6669318408
0.6402102986
0.6137769305
0.5889189555
0.5667230728
0.5476186252
0.5322544899
0.5207542892
0.512956454
0.5086292151
0.5075477059
0.5092750929
0.513685717
0.5203889526
0.5291033663
0.5394155407
0.5512459799
0.5642089573
0.6566547828
0.6907941247
0.7278720578
0.7251286233
0.7400839417
0.7503940707
0.755889191
0.7560100397
0.7503281289
0.7392430752
0.7229108767
0.702447566
0.6788697976
0.6535897744
0.6279802107
0.6033923316
0.5808457213
0.5612139777
0.5447465414
0.5318671893
0.5225370065
0.5165379059
0.5136955723
0.5137289011
0.5163334716
0.5211850311
0.5280054504
0.5365156928
0.5466652087
0.5580139499
0.5382268581
0.6721554526
0.6953952902
0.72450111
0.7420298509
0.754821996
0.7619384875
0.7632577819
0.7585004962
0.7481438859
0.7327058877
0.7132357933
0.6907764792
0.6663859322
0.6414295753
0.6171550872
0.594446776
0.5743216141
0.5571555646
0.5432141564
0.5325243105
0.5248965947
0.5204498973
0.5187313052
0.5194930343
0.5225124119
0.5275939829
0.5343543039
0.542685805
0.5523471
0.6627958936
0.6952119915
0.7310778201
0.7287968326
0.7432816399
0.752868689
0.757271196
0.7562237847
0.749462453
0.7377214099
0.7215490825
0.7018011998
0.6795635172
0.656273606
0.6329330434
0.6107611298
0.5902773393
0.572269921
0.5570384106
0.5446838965
0.5353750868
0.528957789
0.5253172942
0.524090421
0.5251118896
0.5281334657
0.5329282445
0.5394202001
0.547310614
0.5377768414
0.6717005143
0.6878928563
0.7171834662
0.7332782506
0.7446077638
0.7508931993
0.7519936753
0.7477817723
0.7386927381
0.7253379372
0.7083831044
0.6888075971
0.6675783051
0.6458904474
0.6247171782
0.604691988
0.5865937093
0.5707416879
0.5574455995
0.5468452167
0.5387668412
0.5332192083
0.5300835068