/*--------------------------------*- C++ -*----------------------------------*\
| =========                 |                                                 |
| \\      /  F ield         | OpenFOAM: The Open Source CFD Toolbox           |
|  \\    /   O peration     | Version:  v1706                                 |
|   \\  /    A nd           | Web:      www.OpenFOAM.com                      |
|    \\/     M anipulation  |                                                 |
\*---------------------------------------------------------------------------*/
FoamFile
{
    version     2.0;
    format      ascii;
    class       volScalarField;
    location    "3.2711";
    object      mfp_N2;
}
// * * * * * * * * * * * * * * * * * * * * * * * * * * * * * * * * * * * * * //

dimensions      [0 1 0 0 0 0 0];


internalField   nonuniform List<scalar> 
60268
(
0.8579024697
0.8512979941
0.8388742008
0.8228410438
0.8068304848
0.7897323235
0.7732678956
0.7539348487
0.737712895
0.7203176545
0.7084581319
0.6921607352
0.8392171769
0.8371073186
0.8247382531
0.808568848
0.791503089
0.7734621566
0.7566421968
0.7393269655
0.7201802926
0.7059846597
0.8249126241
0.8385148686
0.8248834128
0.8088789996
0.7922700774
0.7752563939
0.7582121991
0.7391858832
0.8425429639
0.5723719752
0.683236413
0.8286191651
0.8230336852
0.8080349354
0.7937463428
0.7760149515
0.7573907059
0.7366874361
0.7009576636
0.6557321851
0.8155813405
0.8098084056
0.7935074245
0.7760594076
0.8856628869
0.7152037172
0.6094439986
0.657671757
0.8046813471
0.7986385851
0.7738138569
0.6165715863
0.8768895556
0.8869389012
0.8871848858
0.8811578007
0.8710257168
0.862189961
0.8467445433
0.8284089043
0.8080320085
0.7867280429
0.7652149399
0.7441407203
0.7239568626
0.7055902932
0.6886904147
0.6797141871
0.6663110588
0.6531732731
0.6463924697
0.6401735654
0.8855963726
0.8821394313
0.8814991455
0.8881614704
0.8810090515
0.8909145955
0.8412691938
0.8236076779
0.8041594138
0.7836838312
0.7628756978
0.7423442851
0.722840497
0.704810931
0.6897868225
0.6796879153
0.6659600825
0.6545916553
0.6425513629
0.6403332639
0.8866149754
0.8814986893
0.8811024618
0.8722400936
0.8558310294
0.8639846343
0.8425179426
0.8252868343
0.8059781264
0.7854028291
0.7646621289
0.7441167409
0.7245918884
0.7102533466
0.6725296306
0.6878744734
0.6671858288
0.6542836099
0.7387931907
0.5178196197
0.8925795202
0.8839244505
0.8818317051
0.8800302822
0.8797249834
0.8764058065
0.8776859878
0.8301880102
0.8108535963
0.7905219045
0.7694888485
0.748753122
0.7290969885
0.6981596989
0.7265682176
0.6766399719
0.6686405547
0.6555950099
0.6244548334
0.7093039086
0.8826088566
0.8752379408
0.8718203176
0.8664101966
0.85558428
0.8651537346
0.8584300192
0.8114501492
0.7918145946
0.7717720563
0.7557123019
0.7212993531
0.7078374074
0.715751687
0.6894197141
0.6716683054
0.6579853403
0.6496034639
0.8564144009
0.8776939673
0.8752384899
0.8689001517
0.8583153251
0.8453881672
0.864297287
0.8159122234
0.7947782053
0.7766778207
0.7367382931
0.7712880271
0.7393556008
0.6995306255
0.6892783535
0.6731762501
0.7612064679
0.5323521363
0.7079897487
0.8789985851
0.864944839
0.8592471567
0.8510436827
0.8411187271
0.8141984751
0.8101142615
0.796823587
0.7775184349
0.7688085079
0.7346469084
0.7259968849
0.7056171748
0.6881874485
0.7819353671
0.5241575436
0.6798499269
0.8711731926
0.8563445769
0.8472445728
0.8369249936
0.8212639163
0.807628986
0.7930359923
0.7776745112
0.7600848572
0.7419407434
0.724325965
0.7076964652
0.8018312601
0.5370025143
0.6740049257
0.86467194
0.8491962578
0.8368760687
0.8237015342
0.8104469897
0.7932427979
0.7788007599
0.7626716395
0.7462099835
0.7279711042
0.8248938234
0.5547072519
0.6957808846
0.8131384514
0.842978217
0.8254168793
0.8124734037
0.7984209703
0.7818427948
0.7650515625
0.8602385482
0.7087387449
0.5871202085
0.6776244299
0.828224013
0.8140752711
0.7985105251
0.7820919619
0.7678677602
0.615612598
0.8699979779
0.8800145971
0.8903089332
0.8921825792
0.8918587081
0.8860765289
0.8762777407
0.8623055403
0.844903151
0.8246393384
0.8023778321
0.7792385072
0.7558536484
0.7332677198
0.7120904345
0.6930724379
0.6764260286
0.6625413509
0.6515277839
0.6434814113
0.6381214932
0.6353318863
0.634209846
0.6388475774
0.8751203745
0.8857302617
0.889734265
0.8936910651
0.8997783402
0.89377095
0.8829655128
0.8678849003
0.8492915657
0.8279753899
0.8047258285
0.7808360769
0.7571330374
0.7342313607
0.7131027217
0.6938623122
0.6772863159
0.6634208629
0.6525168429
0.6442208294
0.6386097472
0.6355362157
0.6337501108
0.6397029321
0.8798603011
0.8810286556
0.8891993107
0.8909559379
0.8972806281
0.892723454
0.8836401449
0.8700668473
0.8525745108
0.8320188585
0.8093818629
0.7855805927
0.7617357902
0.7385823925
0.7169901168
0.6975030586
0.6804621962
0.6663766291
0.6548382925
0.6461487878
0.6400953311
0.6420374325
0.6180810289
0.6471085806
0.8825253824
0.8853027835
0.8867389114
0.8897981267
0.8968797915
0.8919621732
0.8822439215
0.8684148879
0.8510047821
0.8307471787
0.8085159904
0.7855566309
0.7622359835
0.7397027556
0.7186327366
0.6993059579
0.6824312721
0.6681552352
0.6567167023
0.6479319495
0.6416512717
0.6302742562
0.662055247
0.6302629963
0.7035414881
0.8906848744
0.8999242507
0.9085587972
0.9287835991
0.8957360689
0.8865288485
0.8732340403
0.8564446352
0.836737708
0.8149521582
0.7919729876
0.7689189661
0.7464236173
0.7250260557
0.7056867418
0.6885105623
0.673731908
0.6615909963
0.6520379779
0.6451759924
0.6401950298
0.6435666308
0.6409893886
0.8505142769
0.8757735935
0.8681378873
0.8924586713
0.8845295061
0.8776187186
0.8667228512
0.8524795187
0.8352325739
0.8159347954
0.7951284142
0.7734085392
0.7518594975
0.7312632342
0.7121477308
0.6949911864
0.679872257
0.6671618959
0.6570405964
0.6547276078
0.6282527989
0.6524873291
0.6429706072
0.7053583808
0.8903991585
0.8985357343
0.9026733844
0.9157868286
0.8873186674
0.8768708952
0.8625271604
0.8449841043
0.8249451524
0.8036895344
0.7816787004
0.7601719342
0.7392690185
0.7197468751
0.7020706791
0.6866107994
0.6735947772
0.6668428412
0.6263721401
0.6843387202
0.6362556516
0.7002132703
0.8492639028
0.8712858816
0.8757287953
0.9003184359
0.9022930889
0.8685401116
0.8572983451
0.8426712655
0.825565547
0.8063877747
0.7862157982
0.7658987038
0.7461011869
0.7272186882
0.7098895118
0.6943701082
0.6849808773
0.6409101195
0.6954371818
0.6484928535
0.7378240001
0.5219483209
0.7051992186
0.8877346136
0.8764020931
0.8767579222
0.8972969221
0.8940258604
0.8589207971
0.8452949789
0.8292455322
0.8115075849
0.7926786603
0.773443035
0.7544967235
0.7361055909
0.7189720367
0.7080568467
0.6606279093
0.7137030278
0.6637140856
0.6575762153
0.6197994025
0.6777911675
0.8811741742
0.8681273931
0.8659098571
0.8982747068
0.8414533982
0.8686866155
0.8288501501
0.8129488927
0.7957665229
0.7779152912
0.7598201436
0.7482161078
0.7153032107
0.6921010758
0.7341722715
0.6801667535
0.6716927099
0.7567090728
0.5340642021
0.6783276057
0.8850016579
0.8717343008
0.8502111841
0.8729273687
0.8841569997
0.8340467961
0.8202197
0.8049512879
0.7898708629
0.7697670633
0.7322222163
0.7674405689
0.7352520554
0.6985289794
0.6890072168
0.7760419774
0.527414818
0.6827851199
0.874279911
0.8570861031
0.8540558915
0.8285837518
0.8308018036
0.8183360588
0.8030101495
0.7890867482
0.7752341606
0.7679034526
0.733001105
0.7243374465
0.8144950243
0.6610338798
0.5595084871
0.6920377788
0.8149522531
0.8545218873
0.8343129674
0.8270539032
0.8153145783
0.8047089454
0.7897527844
0.7773047583
0.7601994721
0.8532002994
0.7033059053
0.5879987129
0.6872138477
0.8388962324
0.8311818082
0.8166722287
0.8034799718
0.7887197589
0.7754903907
0.7630035527
0.6123236536
0.8486804708
0.8664997759
0.8793692936
0.8942173597
0.9167208363
0.9213232853
0.9193190943
0.9112944985
0.8972877341
0.8784272644
0.8553848111
0.8293296015
0.801623631
0.7735109235
0.7461198676
0.7204725613
0.6972920429
0.6772401264
0.660693634
0.647694538
0.6381644364
0.6317889398
0.6285492218
0.6282804304
0.6307066683
0.635617507
0.6426073755
0.8486015042
0.8665288659
0.8807708283
0.892693922
0.9107857303
0.9165741024
0.9164552991
0.9105802495
0.8987268109
0.8815114403
0.8597634206
0.8346766081
0.8074332623
0.7794298825
0.7520188289
0.7261259709
0.7026889126
0.6822540901
0.6650246769
0.6514180002
0.6412841826
0.6346347681
0.6311133316
0.6303502799
0.6323406393
0.6366737163
0.643109245
0.687544426
0.8771083136
0.8820141658
0.8968494298
0.9207162097
0.9255547582
0.9241780179
0.9164145732
0.9029045954
0.8843528163
0.8615033401
0.8357800846
0.8084565412
0.7806149429
0.7534737592
0.7276330643
0.7043077504
0.6838474719
0.6670208553
0.6534979725
0.6431654013
0.6361733678
0.632206361
0.6313101298
0.6327780219
0.6369582388
0.6431814775
0.8358952295
0.8676424921
0.880613099
0.8973760151
0.9018457816
0.9014287221
0.8954087508
0.8842508859
0.868607079
0.8490357608
0.8262188547
0.801435853
0.7757728782
0.7501591258
0.7256820279
0.7036211716
0.6840874695
0.6674744043
0.6539972282
0.6437433304
0.6365208721
0.6323501132
0.6311680632
0.6324161553
0.6360250581
0.6418460389
0.8696424635
0.8839109914
0.9003425396
0.9331640714
0.9035326329
0.9035469896
0.8982867743
0.8883125414
0.8737312564
0.8547067952
0.832561267
0.8081860477
0.7828384761
0.7575446326
0.7333183451
0.7106102585
0.6907414759
0.6736151974
0.6593654807
0.6484374735
0.640649962
0.6357840651
0.6336365993
0.634167782
0.6369558741
0.6418362869
0.8749944461
0.8660825032
0.8668194872
0.9012148774
0.9104442861
0.9124000147
0.9081319749
0.8982676893
0.8835459985
0.8644781474
0.842166061
0.8177888695
0.7920834182
0.7665830592
0.7421755193
0.7194560067
0.6990691033
0.6812894076
0.6665046479
0.6547231012
0.6460006024
0.6401945326
0.637279612
0.6369082132
0.6386740048
0.6427219035
0.6958542976
0.8860354091
0.8939095068
0.9103030122
0.9391233141
0.9062266858
0.9034556294
0.8957513511
0.8833383421
0.8667758018
0.8468386142
0.8244665112
0.8006561247
0.7762432425
0.7525118563
0.7299176412
0.7093677174
0.6914019455
0.6761651585
0.6635969048
0.6538459188
0.6470157486
0.6427787321
0.6411904892
0.6418142239
0.6439415381
0.8388073399
0.8611935994
0.8595313097
0.8908597106
0.8992887327
0.8996399621
0.894621314
0.8846462334
0.87030427
0.8522238573
0.8315225841
0.8091231937
0.7859375052
0.763048025
0.7409461403
0.7204603019
0.7021125422
0.6862781916
0.6730437884
0.6624205224
0.6545484004
0.6491925241
0.6461940371
0.6518820428
0.6096787163
0.6930114182
0.8857949192
0.8926659724
0.9034934091
0.9230890782
0.8944267508
0.8901063816
0.8814588324
0.8688993246
0.8529742443
0.834347331
0.8138969887
0.7924293825
0.7707744945
0.749675542
0.7297835866
0.7116198511
0.6954530855
0.6816982736
0.6704756885
0.6614944663
0.6550717374
0.6508679472
0.6397827758
0.6750493975
0.6723873214
0.883260391
0.874180574
0.9115877527
0.9226023466
0.8930114061
0.8861522691
0.8751145082
0.8605273718
0.8428818553
0.8231876397
0.8022994569
0.7811341157
0.7600946506
0.7401350348
0.721545897
0.7048123846
0.6901586947
0.6779137914
0.6680596281
0.6605607875
0.6630412336
0.6321542665
0.6644208265
0.8443648694
0.8686217607
0.8752578173
0.9065993114
0.910376446
0.8749746553
0.8662979086
0.8544043828
0.8397860246
0.8229259757
0.8046006429
0.7854890988
0.7663062
0.7475741066
0.7298161956
0.7134486814
0.698832047
0.6863188819
0.6756683574
0.6749329291
0.6313591767
0.691569869
0.6473896422
0.6941162757
0.8828068196
0.8660824718
0.870880416
0.8976627548
0.8970107636
0.8652415436
0.8553058547
0.8426470069
0.8278847185
0.8114514332
0.7940839403
0.77608363
0.7582785208
0.7409421021
0.724676873
0.7099017343
0.7044931674
0.6781563219
0.6570787578
0.701630596
0.7432358151
0.6117262195
0.671023076
0.8815804155
0.8658468439
0.866674489
0.9075095822
0.85048197
0.8826779119
0.8487375001
0.835786597
0.820726015
0.8041551282
0.7868419799
0.7694897057
0.7525704536
0.7434399542
0.7128136157
0.6868029893
0.7258742548
0.6959036287
0.7586589974
0.5235429766
0.6953409249
0.8185324439
0.8790443043
0.8448786712
0.8711462737
0.8915088538
0.8432379656
0.8314567605
0.8223927738
0.8084779911
0.7964350853
0.779873708
0.7635340924
0.7253450914
0.7635974772
0.7306180881
0.6931438399
0.7917035903
0.5375452446
0.6706823566
0.8702795496
0.8576093846
0.8376363651
0.8416139423
0.8327167141
0.8204819326
0.8084861825
0.7965017286
0.7825126127
0.7693598997
0.7622552274
0.7266743127
0.826570738
0.6763862443
0.5706321608
0.6899256004
0.8507125424
0.804712248
0.847642593
0.8261802855
0.819187933
0.8096736791
0.7954320831
0.7833295231
0.8801859859
0.7301307851
0.7416065862
0.596582627
0.6720544083
0.8254231572
0.8160069837
0.8062344942
0.7954507524
0.7843248867
0.6286456175
0.8287212346
0.8522235507
0.8679843994
0.8927228187
0.9067801725
0.9149589583
0.9174465273
0.9138323869
0.9037930689
0.8882795088
0.867388207
0.8423028359
0.8141583536
0.7844483034
0.7546621372
0.7260711617
0.6995945812
0.6763690312
0.6569024045
0.6415545433
0.6302518919
0.6229496886
0.6193520944
0.619356984
0.6225259191
0.6282918916
0.6365959808
0.6471362536
0.6595537037
0.670725657
0.8601205746
0.8734061133
0.8996533341
0.9149646244
0.9244609613
0.9276668933
0.9245794286
0.9150782013
0.89932384
0.8783437631
0.8528902501
0.8242803522
0.7938388608
0.7630955157
0.7334919331
0.7061300387
0.6820483359
0.6620491087
0.6460854692
0.6342626961
0.6264631275
0.6225649208
0.6219613454
0.6244585812
0.6299530937
0.6378354193
0.6478699608
0.6599328885
0.8408364266
0.8794272983
0.9233768219
0.9028947401
0.9107979397
0.9141569226
0.9123856498
0.9047862459
0.8915051986
0.8729828171
0.8497486532
0.8230045853
0.7941720085
0.7646659107
0.7360276143
0.7093440024
0.6855882477
0.665612295
0.6495534284
0.6373669799
0.6291719127
0.6245964557
0.6236393469
0.6257874961
0.6307165897
0.6381736913
0.6478023326
0.6594612431
0.8409287762
0.8485130893
0.893777954
0.9124098411
0.9238453319
0.9284529137
0.9264242235
0.9177750572
0.902752919
0.8822488257
0.8575771227
0.8296144191
0.7998734354
0.7699511084
0.7408381546
0.7137587595
0.6898509924
0.6693893112
0.6527377989
0.6402604065
0.6316014367
0.6265343849
0.6250322495
0.6265470831
0.6307767818
0.6375765413
0.6466005371
0.6576294458
0.8549389485
0.8647791358
0.8798353375
0.9106707237
0.9230501394
0.929252427
0.9289943435
0.9218279702
0.9082377494
0.8890269346
0.8651894326
0.8379127428
0.8086561844
0.7787109851
0.7496820348
0.7224034127
0.6979224838
0.6768448242
0.6595343858
0.6459615565
0.6362979317
0.6304199937
0.6278654626
0.6284798311
0.6318193341
0.63770012
0.6458558638
0.655915806
0.8537901236
0.851330861
0.8640823697
0.8922164906
0.9043820155
0.9112744695
0.9126059562
0.9080101555
0.8978329673
0.8819801922
0.8613987389
0.8372137725
0.810444926
0.7826365153
0.7549217066
0.7287017692
0.7047143921
0.6838069378
0.6662906178
0.6523578866
0.6419838108
0.6352317808
0.6318396599
0.6314398886
0.6336773321
0.6383639753
0.6454604677
0.6543891272
0.6773399332
0.8904544921
0.8881581676
0.9226277037
0.911344492
0.9183770242
0.9196426114
0.9147948728
0.9042370824
0.888451691
0.8679582397
0.8442920683
0.8179973277
0.7907896442
0.7637284799
0.7379736201
0.7140996353
0.6928726938
0.6750036598
0.6604962353
0.6492777761
0.6415359057
0.6370350515
0.6353917211
0.6364860575
0.639915645
0.6457416791
0.6536283988
0.8125329254
0.8445701332
0.8847265425
0.9067098381
0.9169286893
0.9213782741
0.9192482707
0.9112387553
0.8976055941
0.8791825225
0.8570917825
0.8324088419
0.8061236113
0.7792448595
0.7533318085
0.7291954987
0.7073751284
0.6884114577
0.6727229281
0.6602881496
0.6510788615
0.6449583291
0.6416543905
0.6411873619
0.6432818062
0.6473971973
0.6536671983
0.677236994
0.8927222767
0.8879657273
0.917848553
0.9030406754
0.9094861402
0.9103650503
0.9061436552
0.896319916
0.8818032425
0.8630472762
0.8411721279
0.8171008929
0.7918850509
0.7670188864
0.7431998145
0.7213081106
0.7018965661
0.6853200837
0.6718246655
0.6612118792
0.6536124658
0.6488008689
0.6465777057
0.6468274109
0.6493406486
0.6538383725
0.8234613018
0.8655031946
0.9115804406
0.9350965512
0.9131464504
0.9150636671
0.9117154513
0.9030503609
0.8894782367
0.8717214032
0.8506959002
0.8275589741
0.8035159887
0.7792044083
0.7556070037
0.733555283
0.7137218905
0.6964189476
0.6816998448
0.6700018705
0.6612024693
0.6549863072
0.6512632546
0.6498210035
0.6507986894
0.6537413273
0.6807168703
0.8697499355
0.8493366348
0.8793287399
0.8939503983
0.8985447439
0.8979801296
0.892679926
0.8825151764
0.8684165638
0.8507305881
0.8306036141
0.8090197491
0.786880988
0.7648405453
0.7437735573
0.7243098841
0.7067979272
0.6916825682
0.6791780268
0.6690609254
0.661295982
0.6561013093
0.6531787482
0.6523962891
0.6535698
0.6598831002
0.9031376509
0.892383585
0.9117701613
0.8989838473
0.9002975261
0.8970057306
0.8888290846
0.8765349396
0.8607640918
0.8421966016
0.8217537617
0.8004112548
0.779026659
0.7581941573
0.7386513267
0.7205976514
0.7047029624
0.6908464538
0.6795024978
0.6704436312
0.6635174754
0.6588131638
0.6652266162
0.6528466293
0.829983473
0.8565710435
0.8964862888
0.9044628302
0.8871251809
0.8859471515
0.8805717808
0.8711939746
0.8584763993
0.8431148488
0.825666004
0.8069032076
0.7876805028
0.7685410262
0.7499956892
0.7325184133
0.7165957088
0.7024665663
0.6902602371
0.6800983975
0.6718303177
0.6730804047
0.6299621472
0.6812312429
0.688637753
0.8768044208
0.8630294886
0.9097052414
0.855208583
0.9050964947
0.8764070372
0.8703501213
0.8605832051
0.8479259969
0.833004825
0.8163848875
0.798852131
0.7808878446
0.7631967553
0.7461761046
0.7302582989
0.7155532542
0.7024942423
0.6912382772
0.6899381516
0.6439656783
0.7000599485
0.717045912
0.6862955899
0.8152334867
0.8568180152
0.8774687465
0.8916018827
0.8884967071
0.8624427434
0.8555245951
0.8459213098
0.8338766843
0.8201200716
0.8050067906
0.7889744577
0.7727451668
0.7566628484
0.7411744816
0.7266767906
0.7228217706
0.6937692165
0.6704491794
0.7153837676
0.7561878464
0.5123768339
0.6562509908
0.8731490866
0.8547075141
0.8953032632
0.8460818932
0.8343578698
0.8645354878
0.8312581788
0.8200220002
0.8073096768
0.793503423
0.779161201
0.7725124555
0.7423379843
0.7369189244
0.703666593
0.7401560665
0.8161157071
0.6492812618
0.5546055959
0.6917990054
0.8179961262
0.8509414446
0.8508335501
0.8618715801
0.8818768961
0.8331780495
0.8249324631
0.8143957658
0.8040356133
0.7879331717
0.7540737815
0.7913879259
0.7529649476
0.7427410193
0.8038291905
0.5567539149
0.6887046429
0.8075437337
0.8687564871
0.827112788
0.8370465977
0.8278738344
0.8201212976
0.8085610673
0.7998590429
0.7928207441
0.8572399204
0.7273988226
0.7409760279
0.5962978858
0.6811340719
0.8327635516
0.831262877
0.8269305302
0.8149431309
0.8056424793
0.8002397179
0.7910578845
0.6343509564
0.8254192749
0.8508239606
0.8857434995
0.9088131072
0.9255194354
0.9353686773
0.9378048109
0.932672991
0.9200131465
0.9005842783
0.8751841014
0.8449312051
0.8117003331
0.7772537753
0.7430454152
0.710793984
0.681916786
0.6574023675
0.6377246954
0.6230795141
0.6135240587
0.6087545504
0.6083011677
0.6116905044
0.6184367883
0.6281680734
0.640509295
0.6550908307
0.6716760022
0.6898378439
0.8393156363
0.8637322044
0.9172390114
0.9034174618
0.9192919932
0.9292890961
0.9325590102
0.9289253295
0.9181903917
0.9004765133
0.8766880042
0.8479228682
0.8155333128
0.7814458927
0.7475982801
0.7153923433
0.6863147372
0.6616660596
0.6417953182
0.6269051763
0.6168682281
0.6116783648
0.6107827597
0.6137435983
0.6200859607
0.6293798849
0.6412137419
0.6555163518
0.671742071
0.6895343701
0.8177789117
0.8340916442
0.8837109789
0.9114497844
0.9295714548
0.941247717
0.9456474742
0.9421774821
0.9310639427
0.9128385826
0.8882071028
0.8584136361
0.8253477336
0.7906222487
0.7559174003
0.7230853852
0.6933217572
0.6677738893
0.6472784198
0.6316546197
0.621006347
0.6151062774
0.6134793568
0.6158278623
0.6216908379
0.6304579119
0.6416589078
0.6553474367
0.6708218145
0.6880445667
0.8271438138
0.8425312461
0.8669390321
0.8996419558
0.9171037982
0.9287422599
0.9337640098
0.9318334567
0.9228295097
0.9067701354
0.8844587542
0.8570343658
0.8257245657
0.7924574032
0.7589074047
0.7268267182
0.6975773666
0.6722143775
0.6514596259
0.6355626523
0.6245982505
0.6180214838
0.6158224853
0.61735405
0.6221947424
0.6302525467
0.6410333824
0.6538615235
0.668757145
0.68531904
0.8259595338
0.8399111817
0.8564751716
0.8890749667
0.9051967256
0.9162937948
0.9214425027
0.9198907785
0.9123064608
0.8982851034
0.8781870366
0.853086309
0.8242499808
0.7933010126
0.7617231222
0.7310313833
0.7028248836
0.6780379653
0.6574545131
0.6413018398
0.6294013903
0.6222830839
0.6192674565
0.6198918231
0.6239402863
0.6308548005
0.6405346157
0.6524590125
0.6662025009
0.6817691434
0.6590000092
0.854849573
0.8528279018
0.8927674394
0.911819815
0.9249248417
0.93181793
0.9318810436
0.9250897833
0.9117325179
0.8921849268
0.8673557411
0.8385930831
0.8074161312
0.7754496751
0.7443153361
0.715374309
0.6896795799
0.6680591532
0.6506905167
0.6378190811
0.6292368392
0.6249411705
0.6241642701
0.6266433889
0.6322782637
0.6405818681
0.6511433411
0.6637660917
0.678266631
0.8274508068
0.8699900452
0.9131908261
0.9028821173
0.9156947397
0.9228678574
0.9238748475
0.9188953813
0.907643721
0.8905885013
0.8685350277
0.8422694294
0.8132893757
0.7833038528
0.7535351406
0.7253376562
0.6999761345
0.6779978692
0.6600625597
0.6462355859
0.6365176874
0.6308220187
0.6288422492
0.6299499038
0.6339789035
0.6406772342
0.6499107873
0.6612465975
0.6740557181
0.834017423
0.8250107998
0.8692178648
0.8902692042
0.9048201467
0.914028168
0.9176684768
0.9152790287
0.9069504274
0.8928166984
0.8733056792
0.8494868763
0.8226198907
0.7941512111
0.7653776993
0.7377786426
0.7124398979
0.6901268741
0.6715446591
0.6568725101
0.6458672507
0.6387225302
0.6350938264
0.6346088643
0.6371059067
0.6421782903
0.6497376855
0.6592568471
0.6704756309
0.66614745
0.8800824871
0.8820978482
0.9248305611
0.9111240336
0.9229786898
0.9287186381
0.9281756533
0.9213441823
0.9085051729
0.8900925627
0.8673441947
0.8411765943
0.8129215238
0.7840914408
0.7562376665
0.7302263779
0.7069761536
0.6870218155
0.6707309893
0.6581519206
0.6491084696
0.6434049796
0.640877171
0.6413964074
0.6445018348
0.6499657374
0.6574914573
0.6671795845
0.8083124124
0.8326168814
0.8706618441
0.8898626686
0.9002698369
0.9064754929
0.9075868587
0.9037227868
0.8946350068
0.8805661524
0.8620079254
0.840112013
0.8160737591
0.7905981937
0.7652244412
0.7406502981
0.7181931876
0.6984861259
0.6816598881
0.6681461604
0.6578789787
0.6507094218
0.6465985185
0.6453384702
0.6465717309
0.6502049757
0.6558307061
0.6633697608
0.6680107397
0.8822775225
0.8761181483
0.9099910709
0.8970848138
0.9060903092
0.9095246426
0.9073102743
0.8999769956
0.8877203417
0.8708615195
0.8505794811
0.8276425016
0.8034913094
0.7790573065
0.7552704873
0.7328997492
0.7126803297
0.6951335893
0.680491557
0.6687340414
0.6598663854
0.6539167417
0.650595391
0.6498720338
0.651368545
0.6550133744
0.660521783
0.8114543203
0.8444034277
0.8903091543
0.9138000257
0.8924958097
0.8980975111
0.898883452
0.8948762644
0.8861640228
0.8732322085
0.8566462528
0.8370222435
0.815506721
0.7928886197
0.7702472419
0.7485545571
0.7285252592
0.7102952623
0.6945685256
0.6815652685
0.6711214277
0.6632422739
0.658041729
0.6552140314
0.6546285586
0.6560160581
0.65930447
0.6721042437
0.8600415778
0.8366140263
0.8689964755
0.8894961998
0.8972969602
0.8999571097
0.8976375098
0.8904993329
0.879225156
0.8644566304
0.8467147198
0.8268819737
0.8057502592
0.784498501
0.7635134381
0.7437063309
0.7255738968
0.7092151342
0.6951178156
0.6834163864
0.6741087692
0.6670396939
0.6623234038
0.6596919902
0.659073092
0.6602435934
0.6433767392
0.8897253056
0.8725227142
0.8908228757
0.8844973942
0.8903786209
0.8922697866
0.8894184931
0.8823154905
0.8714826564
0.8571658586
0.8403784729
0.8217602438
0.802032368
0.7820822326
0.7627485092
0.7442759269
0.7272846774
0.7121525052
0.6990190352
0.6877203537
0.6786839019
0.6717842293
0.6668661472
0.6640870532
0.6618818039
0.6584112788
0.8754234601
0.9028401474
0.855360504
0.9135781416
0.8939987901
0.8943068813
0.8896306158
0.8810771055
0.8689264564
0.8540107465
0.8369996304
0.8185570186
0.7993319258
0.7801236009
0.7615494561
0.7441611373
0.7280378465
0.7137655777
0.7012107689
0.6905920433
0.6818175292
0.6749809076
0.676838001
0.6328245428
0.6587993866
0.8474682912
0.8663330363
0.8924250425
0.8980368281
0.8786255184
0.8771042464
0.8716143994
0.8628891266
0.8514037569
0.8375576668
0.822115326
0.805570375
0.7885374001
0.7714075717
0.7550732601
0.7397058217
0.7252410019
0.7123628637
0.7010216647
0.6998738562
0.6770575737
0.6571122796
0.7091773967
0.6517205092
0.8725255718
0.8556114011
0.9041801448
0.8473340595
0.8922265584
0.8651735922
0.85954323
0.8511875986
0.8404507581
0.8276832567
0.8134248108
0.7983884487
0.7830860185
0.7675378861
0.7524349132
0.7382019303
0.7249942457
0.7218489857
0.6683971378
0.7174446382
0.7918478059
0.6357885854
0.682632156
0.8104526478
0.8526732727
0.8722716046
0.8994801783
0.8425927019
0.8765588129
0.8496149354
0.8412639514
0.8304587562
0.8184057115
0.8050294756
0.7910075586
0.7768403039
0.7725594547
0.7412707602
0.7367564835
0.704531403
0.7464695438
0.7836963267
0.5455442138
0.6775265257
0.8087834073
0.8448217084
0.8598465642
0.8831678962
0.8350480585
0.8297895952
0.8217219537
0.8152689353
0.8080158125
0.7946526747
0.7823817289
0.7475898222
0.7867109279
0.7487267911
0.8403546848
0.6814121718
0.5835685831
0.6715689654
0.8408029765
0.7839658112
0.8397000174
0.8204238027
0.8181758678
0.8120843326
0.8019535242
0.7950430204
0.7852341773
0.8839214332
0.7237336474
0.7495997183
0.6034545977
0.6690700341
0.8218268081
0.8177341277
0.8105065286
0.8055508845
0.7971333866
0.7905387587
0.6344188247
0.7978489949
0.8227157737
0.851325404
0.8878585351
0.9105401107
0.9271747385
0.9371559808
0.9399203402
0.9348444348
0.9219968805
0.9011928733
0.8736529221
0.8404932974
0.8039137932
0.7656095671
0.7280032203
0.6929439895
0.6621816044
0.636756442
0.6173774395
0.6041354398
0.596888139
0.5950838556
0.5980145142
0.6051873192
0.6162805145
0.6306079862
0.6475269742
0.6666485476
0.6875902792
0.7101272744
0.7340291145
0.8025268935
0.8250976316
0.8523335355
0.8952057228
0.9201473961
0.9385332312
0.950153396
0.9540001855
0.9493518909
0.9362008877
0.9149925605
0.8865230914
0.8523112691
0.8145510655
0.7751336
0.7363612562
0.7004421597
0.6686615228
0.6424094101
0.6222778322
0.6083080931
0.6002900721
0.5980381158
0.6006825466
0.6075070677
0.6181406024
0.6318100358
0.6482700087
0.667145739
0.6878064723
0.7098500059
0.7332980365
0.808761909
0.827506881
0.8544380694
0.8951026502
0.9189665136
0.9373976974
0.9485740528
0.9522828118
0.9481084829
0.9354529629
0.9150570454
0.8875709196
0.8544418979
0.8174042413
0.7785947984
0.7402898417
0.7045016811
0.6726844055
0.6464222059
0.6262010605
0.6119769051
0.6036332035
0.6005294754
0.6024771897
0.6088244326
0.6187827203
0.631822366
0.6477493244
0.6659269959
0.6859815808
0.7077320504
0.7307513658
0.6404229077
0.8371989856
0.842915709
0.8848747259
0.9073732891
0.9243748579
0.9352565915
0.9388621144
0.9350949937
0.9240392499
0.905662386
0.8804971414
0.8496582715
0.8149390896
0.7783254882
0.7415056971
0.7071680785
0.6764310833
0.6504663923
0.6301449918
0.6155813717
0.6066541654
0.6031750578
0.6043430627
0.6097520222
0.6189255483
0.6313786289
0.6464532157
0.6636797262
0.6828910907
0.7036517394
0.7258259681
0.7904660438
0.8365422175
0.88064734
0.9053666054
0.9246982347
0.937384503
0.9433116588
0.941478092
0.9315774607
0.9142722142
0.8899291885
0.859903098
0.8256712482
0.789176713
0.7527133724
0.71808368
0.6868081259
0.6603006781
0.639187258
0.6234801556
0.6134012404
0.6086544533
0.6085255273
0.6126944142
0.620571023
0.6315892153
0.6453758564
0.6615266548
0.6795624701
0.6994075899
0.7204924171
0.8386702354
0.8537472878
0.9111132316
0.9083743114
0.9307190775
0.9463155551
0.9546703866
0.9549272127
0.9471498438
0.9312543568
0.90791413
0.8783670538
0.8442900281
0.8077543088
0.7706166693
0.7350507396
0.7026638443
0.6748989794
0.6520350315
0.6349266407
0.6231384025
0.6166807213
0.6150129345
0.6173649473
0.6234669714
0.6328553379
0.6450476236
0.6596196385
0.6763371702
0.6947651872
0.7143556545
0.8143335135
0.8156605699
0.8627795338
0.8957176232
0.9173748071
0.9334756209
0.9427394663
0.9445517992
0.9387537358
0.9253632374
0.9046674568
0.8778309334
0.8463927912
0.8123581426
0.7774484916
0.74332483
0.7117879385
0.6842180624
0.6612984722
0.643557857
0.6308433147
0.6229134314
0.6199035721
0.6207429615
0.6252839238
0.6331079628
0.6437777889
0.6567080234
0.671621753
0.6883081353
0.7065358113
0.6500729818
0.843162498
0.8391874743
0.8827068882
0.9045667083
0.9212399546
0.9310695891
0.9337399176
0.9292453377
0.9179627584
0.8999604121
0.8760075897
0.8476035137
0.8161195119
0.7832911967
0.7510362519
0.7208956103
0.6940084573
0.671031628
0.6527445957
0.6391951036
0.6302061152
0.6255683556
0.6248387879
0.6275879989
0.633675971
0.6425015604
0.6537534609
0.6669984735
0.6821503106
0.6986629058
0.8135530983
0.8547339827
0.8995455785
0.8946039495
0.912092552
0.9237325813
0.929379747
0.9285456251
0.9207293743
0.9063586059
0.8857274143
0.860171725
0.8309707146
0.7998521392
0.7685129338
0.7385370196
0.7112781058
0.6876597297
0.6679906626
0.6527160851
0.6418108601
0.634997181
0.6320926384
0.6327797051
0.6365865538
0.6431358484
0.6521345174
0.6631927172
0.6762308833
0.6906273444
0.6670889471
0.8321857535
0.8597144498
0.89417333
0.9146991144
0.9295116462
0.9371204498
0.9378245943
0.9310237721
0.9174355047
0.8978458114
0.8734636068
0.8456429067
0.8155643233
0.7849811434
0.7554825587
0.7279128092
0.7036001008
0.6830391344
0.6664655256
0.6539140919
0.6451165536
0.6401949824
0.6386639536
0.6401126886
0.6444128772
0.6512158274
0.6600769039
0.6709173088
0.6833694579
0.821066708
0.8602362131
0.903281995
0.8992602258
0.916043434
0.9268016464
0.9311452571
0.9289544049
0.9198608487
0.9047283896
0.8842939863
0.8596483424
0.8321550759
0.8035698857
0.7749790349
0.7480540321
0.7232578171
0.7015492931
0.6833054279
0.6686065256
0.6577034958
0.6503690121
0.6464005024
0.6453953166
0.6471952299
0.6514644097
0.6578868423
0.6663692638
0.6765727618
0.6666258491
0.831511547
0.8503872693
0.8851291212
0.904158577
0.9170934583
0.9238226932
0.924292918
0.9182912386
0.9063906407
0.8893713935
0.8681591117
0.8439160171
0.8177430208
0.7911472403
0.7653120743
0.7409475205
0.7190826464
0.6999998302
0.684160381
0.6716635478
0.6622460741