/*--------------------------------*- C++ -*----------------------------------*\
| =========                 |                                                 |
| \\      /  F ield         | OpenFOAM: The Open Source CFD Toolbox           |
|  \\    /   O peration     | Version:  v1706                                 |
|   \\  /    A nd           | Web:      www.OpenFOAM.com                      |
|    \\/     M anipulation  |                                                 |
\*---------------------------------------------------------------------------*/
FoamFile
{
    version     2.0;
    format      ascii;
    class       volScalarField;
    location    "3.2711";
    object      mfpToDx_mixture;
}
// * * * * * * * * * * * * * * * * * * * * * * * * * * * * * * * * * * * * * //

dimensions      [0 0 0 0 0 0 0];


internalField   nonuniform List<scalar> 
60268
(
2.202135846
2.968890957
2.985491926
2.944926207
2.891380475
2.825503753
2.769829557
2.70288772
2.636362467
2.527145592
1.826802193
1.835342813
2.223868147
2.968053611
2.950008795
2.897607809
2.833052011
2.76923421
2.711730061
2.639325521
2.527480082
1.842797201
2.114576995
2.949811351
2.937803197
2.898116529
2.838066244
2.771658857
2.711032937
2.620556892
2.232777255
1.522837113
1.822194886
2.261515801
2.91544003
2.894442082
2.841190324
2.762735499
2.695480956
2.585676355
1.792282897
1.748830588
2.254266722
2.873824941
2.837595784
2.751513802
2.420496258
1.876651805
1.654494387
1.794247144
2.154764343
2.156683822
2.070578925
1.686553605
2.221848428
2.917241722
2.48814818
2.218960898
2.19519071
3.089516915
3.035834953
2.971316889
2.898979583
2.82295807
2.745710271
2.669721972
2.596756949
2.529919797
1.660806876
1.638293527
1.770355832
1.985556771
2.311347985
1.646951162
2.282811265
2.948156505
2.489177889
2.239816619
2.095694419
2.120865547
3.015649721
2.953483071
2.884420372
2.811364829
2.736747699
2.662936377
2.592534939
2.527029517
1.666555021
1.641355004
1.785562967
2.020247157
2.297500168
1.675194818
2.275676655
3.019119505
2.544672124
2.209634364
2.035865949
2.05654729
3.019930195
2.959292472
2.890953377
2.817799246
2.743475677
2.669412494
2.598878481
1.696300296
1.60551273
1.696206378
1.835817591
2.086028952
1.951284866
1.386460885
2.298624549
3.157680708
2.67454559
2.353083967
2.152438215
2.101209117
2.105511381
2.977150413
2.908415181
2.836027039
2.76085484
2.68622458
2.61514026
1.667474611
1.734703319
1.728695176
1.912673389
2.196899812
1.587931251
1.880778123
2.332160719
2.84778883
2.452655023
2.194333048
2.050479822
2.074700281
2.076681585
2.909586375
2.839780828
2.768066422
1.803940311
1.721554858
1.747127763
1.772829976
1.865756933
2.04615138
2.354497079
1.648879511
2.159712373
3.133529727
2.689323212
2.38425307
2.143931746
2.043817145
2.090317847
2.016447197
1.94098387
1.897005225
1.758627694
1.840940232
1.825009555
1.811136795
1.991028612
2.24367122
2.050257603
1.413149928
1.852392797
2.370089973
2.963794951
2.582530931
2.33440345
2.146469427
2.032746761
2.001226486
1.945125176
1.898215763
1.905172958
1.843520047
1.937327892
2.03136081
2.220009357
2.107869465
1.375353997
1.779001778
2.352381731
2.933332021
2.628969525
2.402667062
2.267807602
2.180855928
2.133476419
2.092502072
2.066230802
2.084178101
2.163671027
2.323951278
2.151050537
1.404639287
1.766686993
2.350811995
3.003916818
2.787911704
2.607786964
2.488366548
2.429270333
2.385436508
2.374420031
2.418985098
2.545001878
2.245299489
1.445852427
1.860718508
2.099596418
2.278022641
2.938872038
2.893489023
2.854996445
2.786598417
2.727166359
2.307384089
1.821207249
1.574470269
1.834867878
2.187941211
2.149722713
2.1230526
2.078998775
2.021588624
1.670410373
2.241616924
2.497555581
2.113170068
2.119741044
3.190704206
3.172588239
3.139674079
3.091626551
3.030622337
2.959039906
2.879988304
2.797248341
2.713190098
2.631833614
2.555197391
2.486003776
2.425304966
2.374169036
2.333376232
2.302720183
2.281790865
2.269941936
1.665216707
1.676127212
2.284879326
2.517050522
2.115450755
2.126975969
3.219425473
3.200640749
3.164105715
3.112005472
3.046962606
2.971580827
2.889019165
2.803604997
2.718268158
2.635732645
2.559131678
2.489026065
2.428294311
2.377077875
2.336482473
2.305247355
2.283644654
2.270939886
1.685961479
1.70056893
2.298058164
2.589736362
2.164597125
2.170982725
3.210418053
3.19648189
3.166199557
3.119639006
3.058582684
2.986170451
2.905609388
2.820446427
2.734864103
2.651358932
2.573144427
2.5023046
2.4399029
2.387995233
2.345265528
2.312461929
2.289132912
1.534081579
1.47572457
1.753049258
2.286964885
2.713701653
2.246376115
2.256231634
3.208599798
3.193578171
3.161015423
3.113375108
3.052514295
2.980974555
2.902137546
2.820119238
2.736424447
2.655079795
2.578724811
2.508591078
2.447051115
2.394422405
2.351767373
2.318855673
2.294745014
1.505981212
1.580836996
1.715023537
1.891099343
2.320425185
2.392471544
2.244523438
2.296822765
3.206615216
3.175961183
3.130274955
3.07152366
3.002100676
2.924588222
2.84249978
2.759708257
2.678680483
2.601517575
2.531264526
2.468409682
2.414174961
2.369378246
2.333602312
2.307435897
1.594957436
1.602199531
1.897910972
2.143668685
2.418626205
2.143465279
2.205627244
3.164825577
3.142345616
3.105478179
3.05588463
2.995451373
2.927253077
2.853115912
2.775467377
2.698035373
2.623504749
2.554196982
2.491666259
2.436366537
2.389505585
2.351795063
1.638564075
1.571341103
1.722394448
2.067730092
1.877199316
2.316888813
2.350500875
2.293014443
2.328362918
3.176900576
3.141375491
3.091813265
3.03032085
2.959536093
2.883957422
2.805132984
2.727882083
2.652374067
2.581567725
2.517244085
2.460681882
2.412731643
1.595683187
1.497837837
1.711507043
1.775404688
1.779529852
2.113427724
2.433809411
2.22338203
2.238648147
2.245506419
3.109728079
3.071323401
3.020199941
2.959873216
2.892053764
2.820143126
2.747281259
2.675840114
2.607439462
2.544687184
2.488301834
1.618137606
1.513252738
1.663093657
1.704140031
1.980290704
1.446419195
1.834951086
2.38751305
2.373688574
2.179727251
2.232386724
2.260147152
3.076528022
3.029062108
2.972731128
2.909860487
2.842680591
2.773808398
2.705615542
2.639280295
2.57735826
1.704899801
1.560677756
1.685188224
1.691438633
1.988930043
1.570795732
1.761499394
2.378024102
2.335690132
2.186176744
2.269450711
2.067816738
2.135932471
2.969662704
2.913582484
2.852609527
2.788850391
2.723979235
1.781351571
1.702564489
1.666127849
1.766814782
1.734442499
2.005801331
2.059855576
1.400461665
1.759604783
2.370145956
2.409470306
2.200015454
2.143914869
2.172630634
2.13041856
2.04543518
2.002210989
1.965072192
1.941633215
1.742716239
1.826301381
1.83360153
1.853347465
2.085124434
2.123922257
1.383233523
1.76545044
2.375280152
2.627987982
2.331191888
2.195682072
2.121135751
2.039767583
1.99652134
1.962174824
1.954373441
1.992610312
1.95099108
2.117185967
2.185091331
1.690356607
1.488967407
1.855341292
2.096842948
2.31184004
2.683888873
2.508185253
2.430561845
2.372689667
2.329093572
2.345762731
2.373065669
2.297486416
1.82696115
1.577192824
1.861943834
2.206115731
2.207624185
2.173622848
2.151395354
2.113403527
2.055028871
2.023086883
1.656596041
2.281042045
2.607081705
2.101925045
2.139804009
3.276333155
3.296298373
3.292527559
3.266413263
3.218654896
3.153039689
3.072003849
2.979561338
2.8805776
2.779655086
2.680836609
2.587931795
2.503552248
2.430338805
2.369395838
2.321042501
2.284963108
2.260133086
2.246831162
2.24397866
2.250847587
2.266561948
2.289642634
2.301473284
2.665329389
2.121052187
2.151920946
3.254657849
3.278696339
3.281479484
3.263493005
3.223616872
3.163922668
3.08776108
2.998841599
2.901606949
2.801192622
2.702423433
2.608688658
2.523248593
2.448398433
2.38519702
2.334666246
2.296747809
2.270990177
2.256415438
2.251717076
2.257069735
2.270605786
2.291789644
1.913361048
2.255570461
2.1670514
2.20598232
3.290962416
3.311714832
3.309839773
3.284908897
3.2390356
3.174338572
3.093998126
3.002911683
2.905407947
2.80541532
2.707256505
2.613743671
2.529172753
2.454372753
2.392282253
2.342177608
2.303568328
2.276587445
2.260465946
2.255269442
2.258799612
2.271804634
2.292138629
2.148875173
2.209949249
2.245461372
3.205723597
3.224523085
3.225839853
3.207012816
3.169438458
3.115432381
3.046918464
2.966210857
2.878122548
2.78627698
2.694294602
2.60595552
2.525603924
2.45431099
2.393362131
2.343529231
2.305126481
2.27773403
2.261149904
2.254891985
2.257444527
2.268439315
2.287456393
2.238017067
2.360799208
2.125524636
2.205811476
3.230254093
3.233170531
3.216972387
3.183777302
3.133547715
3.067106994
2.988801761
2.902092058
2.811314819
2.720485837
2.632913006
2.550681862
2.478232654
2.415519092
2.363054303
2.322303474
2.292538277
2.273409278
2.263989056
2.263835861
2.271952117
2.287841094
2.279477919
2.371252011
2.046045408
2.12953456
3.254990819
3.26493522
3.252613078
3.219642463
3.169237222
3.102519368
3.023627362
2.936785672
2.844947346
2.753288932
2.66504809
2.582545497
2.508570349
2.443558888
2.389061223
2.345283451
2.312486035
2.289944765
2.27768844
2.274496331
2.279024069
2.291730988
1.901796259
2.352390322
2.225597726
2.106492996
2.175538872
3.241305137
3.234350234
3.209205425
3.166967037
3.109296048
3.039048728
2.959622695
2.874689565
2.787258921
2.701690121
2.620054011
2.545365183
2.479615348
2.423484348
2.377108639
2.340660387
2.314323478
2.297508376
2.290115073
2.290827855
1.605421887
2.142657324
2.255864576
1.987874287
2.062437937
3.214644752
3.218896129
3.203724907
3.170240061
3.1207014
3.057464119
2.984249637
2.904625331
2.821415545
2.738879692
2.659117231
2.585002872
2.518138546
2.460180254
2.411347314
2.371793657
2.341850695
2.321126917
2.308885678
1.564784937
1.462452931
1.842796437
2.393999863
2.228769551
2.192634403
2.242519327
3.199084498
3.185972676
3.157190736
3.114114147
3.058362624
2.992532656
2.919877139
2.843376939
2.765806712
2.689701743
2.617678415
2.551831052
2.492718854
2.442110623
2.400415895
2.366701171
2.34227186
2.325879479
1.536008182
1.619505752
1.733209263
2.287522009
2.120531019
2.161929883
2.190313718
3.195521216
3.173451904
3.135913518
3.085181138
3.023042762
2.953208584
2.878627785
2.802625947
2.726979637
2.65494651
2.58737915
2.526383017
2.47301857
2.42793976
2.39124863
2.362808606
1.729951798
1.648241916
1.736096032
2.097243058
2.278939772
2.074520608
2.150682819
2.17561906
3.130520856
3.101306505
3.060462008
3.009403115
2.949880691
2.884736856
2.816433549
2.747496679
2.679941371
2.615849658
2.556498965
2.503294862
2.457382777
2.417948637
1.748848306
1.634940894
1.8032257
1.870533348
1.794958668
2.411778243
2.24852419
2.07812463
2.143725631
2.222295612
3.096185398
3.062183923
3.018103883
2.966454372
2.908095627
2.846242373
2.781904208
2.717901017
2.655389513
2.596495398
2.542717366
1.672359619
1.609166963
1.702748215
1.817153063
1.999455613
1.538658006
1.753600252
2.412272645
2.287734898
2.143895652
2.24657915
2.075501621
2.155498784
3.038385516
2.993265096
2.940219015
2.88150574
2.81964253
2.757365068
2.696426663
1.754613746
1.681869161
1.63007006
1.722088773
1.80914181
2.048194127
1.345887209
1.842110837
2.088582876
2.337143246
2.187032599
2.124567768
2.175519457
2.14722625
2.031125245
1.967000575
1.925225791
1.896879645
1.885392784
1.900186547
1.711636555
1.801561203
1.826253077
1.85085242
2.170949867
1.390966427
1.701613245
2.394540189
2.408131695
2.235915004
2.141937692
2.033212908
1.961428195
1.924257532
1.89603168
1.890633717
1.913507214
1.990091574
1.962001454
2.216549623
1.741910813
1.531628322
1.89364017
2.207882292
2.10682435
2.253921183
2.507843636
2.445122844
2.385396107
2.343903127
2.367034324
2.308235066
1.91336506
1.932230779
1.615316595
1.817780607
2.250785437
2.23049951
2.225314973
2.19082585
2.137647064
1.707006215
2.395744223
2.482770474
2.487959275
3.184402367
3.238214923
3.27065636
3.283183879
3.273284854
3.240314095
3.187053976
3.114385901
3.026015926
2.926069395
2.819875753
2.712861338
2.609548086
2.513415884
2.428713514
2.357154171
2.300296878
2.25778576
2.229541201
2.214748671
2.212797634
2.221983636
2.240702622
2.268386964
2.303959818
2.346387818
1.855820761
2.149412796
2.540299527
3.209011372
3.267406472
3.30499773
3.320142984
3.31211169
3.281290415
3.227442054
3.154128029
3.064597949
2.962885833
2.854001673
2.743193985
2.636116145
2.537141174
2.449387053
2.37594641
2.316927688
2.272557337
2.242606252
2.226511254
2.222294826
2.229392874
2.24696671
2.273156232
2.307133551
2.34831402
2.101306351
2.100691435
2.207977886
3.224264581
3.255698521
3.270947167
3.267522408
3.243038974
3.198069164
3.133827018
3.052157382
2.957262461
2.854444567
2.748737902
2.645435463
2.548745261
2.462263084
2.388841379
2.329438689
2.284013887
2.25279639
2.234415561
2.228789147
2.234303158
2.249978424
2.274545957
2.307023332
2.346774563
2.163192184
2.025690293
2.136629942
3.257376231
3.302360116
3.322489346
3.318491223
3.290672054
3.239406848
3.168205123
3.08116984
2.981797193
2.875633088
2.768197057
2.662959335
2.564737365
2.477434937
2.402683657
2.341294967
2.294513967
2.261454324
2.241288713
2.233795964
2.237120235
2.250390975
2.272877545
2.303196927
2.340713556
2.263184302
2.13925066
2.179364374
3.250487467
3.298166854
3.324389407
3.32698319
3.304372594
3.258539844
3.191834633
3.108186186
3.011488702
2.906943421
2.79956588
2.694857392
2.595900304
2.506759671
2.429867144
2.366038611
2.315458093
2.27888391
2.255896716
2.244800833
2.244981222
2.254761059
2.273727595
2.300844815
2.334722846
2.27716648
2.241962433
2.27870565
3.183597388
3.230532441
3.258335759
3.266405752
3.252850008
3.218977076
3.164524839
3.092667582
3.006886912
2.911612201
2.812085624
2.712511864
2.617777161
2.530739486
2.45441888
2.389972331
2.338460234
2.299442783
2.273285792
2.259175817
2.255788249
2.262104458
2.277011873
2.300392998
2.330381028
1.858570896
2.307016075
2.238177639
2.327690109
3.254767483
3.283602956
3.291355526
3.276987552
3.241843406
3.187434792
3.115784054
3.03200101
2.93873579
2.841375903
2.743996182
2.650766124
2.564026231
2.486668694
2.421058399
2.367322435
2.325571197
2.296038312
2.277849325
2.270267163
2.272434744
2.282828821
2.301770745
2.328140657
2.104100542
2.12734302
2.231006324
3.23703189
3.277270419
3.296324572
3.291927664
3.266112724
3.219688086
3.155537867
3.077678809
2.989751459
2.895809352
2.79919896
2.705904875
2.618413011
2.538917347
2.469692322
2.412002523
2.365643087
2.330861757
2.307316248
2.293854577
2.290255602
2.295789934
2.308692435
2.329195401
1.839133046
2.289416346
2.212270929
2.289042073
3.225171112
3.251749529
3.257996988
3.24577642
3.212955686
3.162757229
3.097093756
3.01980539
2.933892364
2.84381926
2.754492123
2.668446816
2.588965038
2.518123313
2.457289454
2.40724716
2.367566481
2.338675616
2.319733486
2.309931286
2.309020212
2.316166515
2.330617471
2.094709737
2.154959011
2.12426108
2.181860378
3.264187527
3.274115118
3.264784421
3.236031267
3.189546692
3.127500829
3.053409561
2.971287469
2.88512555
2.797590607
2.712543881
2.632674896
2.560607257
2.49721982
2.443190943
2.399572404
2.366337349
2.342343899
2.327440728
2.320808172
2.322525974
2.331190264
1.798440863
2.307974057
1.977578038
2.05002291
3.192530406
3.211738078
3.21271502
3.19622234
3.16186458
3.113173443
3.051350338
2.980146877
2.903128197
2.82372635
2.744403899
2.668433594
2.59788256
2.534178163
2.478686221
2.432390757
2.394553383
2.365357006
2.345111024
2.33307083
2.328828031
2.331350786
1.703014367
2.314569682
2.324389625
2.399556038
3.21245927
3.22007533
3.210754248
3.183694006
3.141370458
3.086213953
3.020766608
2.94814377
2.871954301
2.795119559
2.719862034
2.649145525
2.583629957
2.52553179
2.474649454
2.43284677
2.398923903
2.372633039
2.354113994
1.621503179
1.590200632
2.054847231
2.250665275
2.348531655
2.371961208
3.170188653
3.168364342
3.151463455
3.11974984
3.075759016
3.021877684
2.960154165
2.893281428
2.824567477
2.755694847
2.688831496
2.625614252
2.567579696
2.51605821
2.471292509
2.433726962
2.402745006
1.646242731
1.536085539
1.660059648
1.774336466
2.448956324
2.259459145
2.383645367
2.021533668
2.141444127
3.134321694
3.114604212
3.081269081
3.037228318
2.984716884
2.925783347
2.863328584
2.799134145
2.735500133
2.674140788
2.616384428
2.562780216
2.515033429
2.473692606
1.756247039
1.57531161
1.711644671
1.789170103
1.803611059
2.054256735
2.226447818
2.073157961
2.10788385
2.257200024
3.083839486
3.060731392
3.027770687
2.985876886
2.937367825
2.883565264
2.826429777
2.768537974
2.710796758
2.654982811
2.602590556
1.759672142
1.688361412
1.706775137
1.820368368
2.108514388
1.431244803
1.664461458
2.36795321
2.167520392
2.27206916
2.156681626
2.017653018
2.091917824
2.973660343
2.934544435
2.889719235
2.840608159
2.789228541
1.814014709
1.742965599
1.805563143
1.712262355
1.800563008
2.121487647
1.662006837
1.482462903
1.868734711
2.120534544
2.22941273
2.167734563
2.083242445
2.132729097
2.279089949
2.211646993
2.175378876
2.148090757
2.139829129
1.770038617
1.857673307
1.844451963
1.963460434
2.212325356
1.41544298
1.841092898
2.15886652
2.323896403
2.346199321
2.288573037
2.218395145
2.189647994
2.159346217
2.171447955
2.199420466
2.245898737
1.905533064
1.951960824
1.640550837
1.843240123
2.271704968
2.297546637
2.318833013
2.286244999
2.258896372
2.230759293
2.173490768
1.70984064
2.125360509
2.545229025
3.155892852
3.24265735
3.306621522
3.345790634
3.357995115
3.343464605
3.301536675
3.234669906
3.145604082
3.038451332
2.919944043
2.796305728
2.672963992
2.556289227
2.4510773
2.361157494
2.288581908
2.234126776
2.19759977
2.178213746
2.174181645
2.184041613
2.205986529
2.238661171
2.280564065
2.33043238
2.387367675
2.450199653
2.169375826
2.020620137
2.149174878
3.223276178
3.283951339
3.323545199
3.339090228
3.329545054
3.294069248
3.233305082
3.150309132
3.048708836
2.933268326
2.811362715
2.6894283
2.573063134
2.467346334
2.376901929
2.303567204
2.248110804
2.2099103
2.189108664
2.183564037
2.191855825
2.212348789
2.243459244
2.283499736
2.33246253
2.388317858
2.44966288
2.152793387
1.951339573
2.070168664
3.251768093
3.320205736
3.36636007
3.386035562
3.377287841
3.341180565
3.27869287
3.192484727
3.087275221
2.969409459
2.844674148
2.719582073
2.600567677
2.492375433
2.398938892
2.323393155
2.26551924
2.224980753
2.201615402
2.193443498
2.199303312
2.218037404
2.247290547
2.285380098
2.332138631
2.385449145
2.444837087
2.214666911
2.022509867
2.083660153
3.208184542
3.275150219
3.320517118
3.342571179
3.338982838
3.309921066
3.255503239
3.177875444
3.081062005
2.969770351
2.850593074
2.729882062
2.613944387
2.507819004
2.415258691
2.338780638
2.279474508
2.237852472
2.212192017
2.202027601
2.20529845
2.220455011
2.247050934
2.283262921
2.327024275
2.378280695
2.435396469
2.288719724
2.093612157
2.137474054
3.169751709
3.231826465
3.275353727
3.296834321
3.295134756
3.270912348
3.223234009
3.153431567
3.065377014
2.962823445
2.852049384
2.738746026
2.628008701
2.525590321
2.435217544
2.359786662
2.299859307
2.255182367
2.227520533
2.214700741
2.214640262
2.226926206
2.24937038
2.281837206
2.322341666
2.36964667
2.423085488
1.800682347
2.125675728
2.265540137
3.182804532
3.254769217
3.305448392
3.333811471
3.337331418
3.316374347
3.271246333
3.203590894
3.116403733
3.014411577
2.903243652
2.788652409
2.676403408
2.571451175
2.477795933
2.398479484
2.334225638
2.286167861
2.253326122
2.235698903
2.230579274
2.237401907
2.25549187
2.282938228
2.318867633
2.362044836
2.411819547
2.057154574
2.12183684
2.229677437
3.221754893
3.271132043
3.300433754
3.307772715
3.293024227
3.255371465
3.196671218
3.119370526
3.026597569
2.92334222
2.815593623
2.708370935
2.606398615
2.513964402
2.433712989
2.367658828
2.31627911
2.279456857
2.257093605
2.247780482
2.249774207
2.261955965
2.284015392
2.315053704
2.353509407
2.397227842
2.192333378
2.011100983
2.121377069
3.175294624
3.231041666
3.26758617
3.283799455
3.278574401
3.251544469
3.203338197
3.135329967
3.05152361
2.956110025
2.854301935
2.750579382
2.651006178
2.559011418
2.477607613
2.409515543
2.354961
2.313834288
2.286244833
2.271240041
2.267429805
2.274344868
2.290449874
2.315380446
2.347435543
2.385580394
1.831677205
2.240070706
2.08231396
2.185900018
3.251959035
3.298180853
3.322315561
3.323595217
3.302127792
3.25869991
3.194865869
3.114718783
3.02176108
2.920756252
2.817506607
2.717254764
2.623010656
2.538425742
2.46534143
2.405161615
2.358304409
2.324047285
2.30193295
2.290810532
2.290737103
2.299817752
2.317490845
2.34248769
2.375069093
2.057642759
1.964902156
2.057217792
3.174910866
3.215437118
3.240922641
3.247896533
3.236769208
3.206470042
3.158247401
3.093537283
3.016122488
2.930343656
2.839164617
2.747812319
2.659244212
2.577820208
2.505856674
2.444152689
2.394166626
2.35573645
2.328321629
2.311888644
2.305405289
2.308031477
2.319140505
2.337541517
2.36273172
1.816123453
2.271326157
2.144660632
2.230077785
3.201555534
3.237626794
3.252659838
3.247694854
3.223911597
3.18208807
3.123473865
3.052113363
2.97081781
2.884505245
2.7969272
2.711234408
2.630303742
2.556995349
2.492766401
2.438673249
2.395066491
2.361613826
2.338579485
2.324962982
2.320770408
2.324481198
2.335599282
2.353667734
2.055479927
2.065819652
2.07671927
2.134088631
3.186582045
3.209361815
3.215087423
3.203118885
3.174245089
3.129887655
3.071944455
3.002677696
2.92609171
2.845177138
2.763816801
2.68560882
2.612989404
2.546696233
2.489319341
2.441414321
2.402428328
2.372607559
2.352416823
2.340671021
2.336876316
2.340248257
2.350444821
1.78403874
2.30238846
1.95033239
2.028207217
3.174256362
3.20535853
3.217704714
3.212241409
3.189096349
3.150621138
3.099188543
3.036724429
2.966395465
2.89093847
2.814636028
2.739228454
2.667605286
2.601593771
2.54177455
2.490177507
2.446855852
2.411931868
2.385228933
2.36691818
2.356024241
2.352450944
2.35501111
1.68174102
2.358737507
2.315597311
2.426151722
3.156735306
3.180763317
3.190158066
3.182352919
3.159067325
3.121974627
3.071982084
3.012827396
2.94677664
2.876763427
2.805250654
2.73544902
2.668692821
2.606891119
2.551544775
2.5033037
2.461662176
2.428037043
2.401855236
2.382833098
2.371371153
1.598739043
1.716683969
2.287837285
2.361337858
1.9774155
2.114210299
3.194276914
3.197428276
3.18313117
3.15451524
3.112520033
3.060380269
3.000261371
2.934477695
2.865963942
2.797141325
2.730045378
2.666937269
2.608433207
2.556293162
2.510249878
2.471029783
2.438473127
2.412823834
1.692454588
1.529378018
1.688425693
2.21469949
2.001345497
2.062855703
2.184096799
3.138977051
3.135542272
3.117922397
3.088095661
3.048084186
2.999357584
2.944632929
2.885757181
2.824987669
2.763720196
2.704898797
2.649155015
2.596704979
2.549564401
2.50794975
1.607869901
1.554807667
1.643220449
1.772547143
1.687935536
2.323512915
2.077579163
2.197145647
2.007899387
2.115565199
3.092271056
3.073560668
3.045136836
3.00798049
2.962971802
2.912585816
2.859155482
2.804217735
2.748433428
2.694098254
2.64264624
2.594655978
1.829492462
1.535682472
1.647710128
2.044878758
1.612585451
1.840617274
2.100341445
2.211177475
2.065055823
2.13100541
2.093852776
2.179666773
3.037358633
3.008365937
2.971109469
2.92873738
2.881234894
2.831358442
2.780687002
1.854430061
1.779105452
1.887430518
1.785317431
1.891039962
2.112484671
1.384774847
1.804619736
2.088222254
2.182813679
2.134764267
2.193786026
2.333725672
2.21978762
2.13694706
2.120771895
2.102273561
2.107095466
2.137329489
1.793149892
1.886984766
1.916957993
2.26062634
1.80295181
1.610398128
1.812947285
2.25965511
1.9935363
2.13623712
2.193197807
2.126188874
2.111120597
2.085200619
2.106675039
2.143651254
2.333049877
1.910218574
2.035748733
1.649887618
1.804036101
2.374067541
2.332575925
2.312545982
2.30007946
2.292384039
2.255681987
1.721257437
2.350922764
2.022717323
2.095714447
3.164734587
3.249547218
3.313384396
3.35330582
3.367184707
3.352677093
3.310029705
3.238283926
3.141675469
3.024166799
2.893511135
2.7560267
2.620391426
2.493194411
2.380958343
2.287572208
2.215636059
2.165760517
2.137220333
2.128336176
2.136423931
2.159878456
2.197104169
2.245704886
2.303698244
2.369717501
2.442374647
2.520802045
2.604097569
2.401779924
2.041932378
2.11268704
3.190385923
3.28368663
3.354034234
3.399636375
3.417927842
3.405107213
3.361503785
3.288123558
3.188414393
3.067285067
2.932399417
2.790955359
2.651102316
2.520773739
2.404675483
2.308354152
2.233830422
2.181417614
2.150200631
2.139330662
2.14617432
2.168095234
2.203698819
2.25037812
2.306814052
2.371940794
2.443365329
2.519855421
2.601491465
2.456182282
2.091632124
2.163013162
3.189262683
3.278670108
3.348822741
3.393327626
3.411038878
3.399796897
3.35812682
3.287991845
3.191753793
3.074389021
2.94212793
2.80293025
2.664613524
2.53491029
2.419170138
2.323003041
2.248060977
2.194525505
2.162129746
2.148664858
2.152790137
2.172895679
2.206351964
2.250571517
2.305191035
2.36798575
2.437403869
2.512761194
2.592890009
1.769028468
2.055606211
2.208548209
3.152883001
3.237638322
3.302687766
3.345224934
3.362294677
3.352662495
3.316090238
3.252927681
3.164825537
3.055797197
2.932052393
2.800816167
2.668432081
2.544123207
2.431997088
2.336872392
2.26174692
2.20711037
2.172683539
2.157739204
2.159595722
2.176598526
2.206948489
2.249311038
2.300981342
2.360255331
2.426540592
2.498550488
2.575685725
1.940419666
2.308962282
3.136483571
3.229122877
3.302134612
3.351556437
3.376973862
3.373982062
3.342225373
3.283207264
3.19798387
3.092079184
2.970326507
2.839937068
2.70868849
2.583326103
2.469441951
2.372355673
2.294521319
2.236086497
2.197369954
2.177992872
2.175101378
2.187476322
2.213393127
2.250579626
2.297737333
2.35314231
2.41535551
2.484045742
2.557370515
2.162595643
2.038009222
2.177703619
3.238737349
3.323399101
3.383655234
3.417777217
3.423067123
3.398623363
3.344751886
3.263577467
3.15937467
3.038036785
2.907305214
2.773826232
2.645251501
2.527536364
2.425964431
2.341928123
2.278154323
2.233652269
2.207939316
2.199402073
2.205342567
2.224933889
2.256253601
2.297653331
2.347495424
2.404795871
2.468282623
2.536315991
2.224644187
1.946295745
2.061565598
3.193159645
3.274494978
3.335942995
3.373195754
3.383454758
3.366068389
3.321392183
3.24974374
3.155628947
3.044180031
2.922538398
2.796867683
2.673818569
2.55965475
2.458811426
2.374743156
2.309005202
2.260967504
2.230350652
2.217349388
2.218017684
2.232023318
2.257547937
2.293436391
2.337517991
2.388740899
2.446393908
2.509542023
1.785190826
2.118454984
2.15453318
3.145090436
3.227263332
3.290894817
3.33043326
3.343432201
3.331134395
3.293663696
3.231379077
3.147499689
3.046837122
2.934500103
2.816925305
2.700618497
2.591243407
2.493581523
2.409521943
2.341919759
2.291318875
2.25700839
2.237968549
2.233209908
2.240810412
2.260217147
2.289711394
2.328054815
2.373428382
2.425482304
2.482519415
2.043319642
2.10209301
2.214921509
3.190565942
3.256369343
3.301733911
3.325912442
3.326444174
3.301443771
3.252669521
3.180807861
3.090769294
2.987027113
2.875794998
2.763112931
2.654926262
2.555721177
2.469341494
2.396884785
2.340215636
2.299162821
2.272766789
2.260260521
2.260407168
2.271867268
2.29321414
2.323223984
2.360669051
2.405326911
2.455261382
1.777010208
2.044585119
2.1160944
3.187804884
3.264931344
3.321216782
3.352529346
3.35833424
3.337402187
3.291833088
3.22390591
3.138237494
3.039416512
2.932098092
2.822290135
2.715482387
2.615565818
2.527015094
2.451484487
2.390142291
2.343106959
2.309545019
2.289979551
2.282417746
2.285769344
2.299054615
2.321413527
2.35115894
2.387817534
2.430327243
2.016114896
2.121687221
2.231144583
3.206706063
3.270439215
3.312622233
3.331993262
3.327384657
3.297634783
3.245974207
3.174815967
3.087925283
2.990079466
2.88760387
2.784905394
2.687348974
2.597220285
2.517987656
2.45096901
2.396609137
2.355650385
2.327414274
2.311396097
2.305997845
2.310492317
2.323787252
2.344884279
2.373448873
2.408166704
1.769176322
2.049933567
2.099350271
3.155607251
3.226424302
3.276274162
3.303930077
3.308772175
3.290239788
3.250248051
3.191486927
3.116885663
3.030753417
2.937344546
2.841917972
2.748755588
2.660644739
2.581012324
2.51126343
2.45276063
2.406118956
2.370574104
2.346164519
2.332367422
2.328026956
2.332348772
2.344639088
2.364149724
2.39074283
2.002334547
2.270756481
2.354226203
3.145110859
3.1964234
3.230889468
3.24688951
3.243078935
3.220545418
3.179707407
3.123193937
3.053573547
2.974409092
2.89037299
2.804999177
2.72172426
2.643851461
2.573199889
2.511525407
2.459705392
2.418648404
2.387510639
2.365374066
2.352843647
2.348523615
2.352022879
2.362568115
2.379554721
1.768409084
2.280122617
2.209458132
2.269318701
3.202126736
3.248307707
3.274814703
3.280104058
3.264864779
3.230567887
3.180178258
3.116070027
3.042144885
2.961579634
2.878485023
2.795832893
2.717249998
2.644371409
2.578926731
2.521963293
2.473818038
2.434107123
2.404197577
2.382492079
2.370021855
2.365121744
2.366557889
2.374526829
1.714145651
2.166484452
2.165853838
2.211544735
3.15580112
3.183519295
3.196202436
3.192251003
3.172934212
3.139735246
3.093281435
3.036757496
2.972133756
2.902521583
2.830722144
2.759894826
2.691957115
2.628562253
2.571061508
2.520679448
2.477905459
2.442475617
2.414961449
2.394413967
2.38134765
2.375063625
2.375192373
1.668848376
2.105871294
2.14405168
2.199006375
3.099749124
3.122564092
3.132918733
3.128452949
3.110470991
3.080010779
3.038418062
2.98792944
2.930656061
2.868964017
2.8059785
2.743028072
2.682725294
2.6253734
2.572950362
2.527334254
2.487506661
2.454056802
2.427473865
2.406698399
2.39278498
2.384647054
1.687292115
2.162332692
2.203507873
2.318111528
3.147724097
3.164505334
3.165917693
3.153490369
3.127461879
3.09040393
3.043401897
2.989418226
2.930312138
2.86875654
2.807118419
2.746227916
2.688220831
2.634049621
2.584190002
2.539517832
2.500544418
2.467738543
2.440529811
1.670920719
1.615411443
1.651676586
2.242882141
2.301906184
1.996097065
2.121947715
3.097377866
3.100033529
3.090269388
3.069106423
3.03777279
2.998149379
2.952438204
2.901793137
2.848096831
2.794312997
2.740441321
2.688050466
2.638645224
2.592345318
2.55047114
2.513573467
1.839186224
1.580102116
1.706206164
1.658217123
2.255249428
2.053410744
2.14168949
1.99964685
2.106862619
3.094814579
3.083674102
3.062684541
3.031933361
2.993887091
2.949859693
2.90143617
2.850469438
2.798892219
2.74799384
2.698099247
2.65055347
1.896617573
1.811158734
1.778700796
2.168088387
1.707040027
1.822749821
2.070973006
2.170065384