/*--------------------------------*- C++ -*----------------------------------*\
| =========                 |                                                 |
| \\      /  F ield         | OpenFOAM: The Open Source CFD Toolbox           |
|  \\    /   O peration     | Version:  v1706                                 |
|   \\  /    A nd           | Web:      www.OpenFOAM.com                      |
|    \\/     M anipulation  |                                                 |
\*---------------------------------------------------------------------------*/
FoamFile
{
    version     2.0;
    format      ascii;
    class       volScalarField;
    location    "3.2711";
    object      mfpToDx_N2;
}
// * * * * * * * * * * * * * * * * * * * * * * * * * * * * * * * * * * * * * //

dimensions      [0 0 0 0 0 0 0];


internalField   nonuniform List<scalar> 
60268
(
2.708788311
3.649752896
3.668462784
3.617045101
3.550054122
3.468620756
3.399683114
3.317313324
3.236053463
3.102457843
2.243459991
2.258098422
2.734219483
3.6473593
3.623538726
3.55770292
3.477873556
3.399040685
3.328170881
3.239398038
3.102522823
2.262535744
2.599946695
3.62486549
3.608795202
3.558733702
3.483855978
3.401810011
3.32708103
3.21636825
2.740857464
1.869961701
2.240819037
2.779597613
3.582024346
3.555020168
3.489020909
3.392056665
3.309065156
3.1742399
2.200535593
2.150008086
2.769571433
3.529543918
3.484149703
3.377883058
2.971275694
2.304043863
2.031859249
2.205091685
2.647066148
2.648691189
2.542450514
2.070912105
2.739127998
3.59238939
3.061867846
2.729154092
2.697772632
3.793635833
3.725675995
3.644999183
3.555340826
3.461603393
3.366945739
3.274219159
3.185410199
3.104597294
2.03896659
2.012391183
2.175675991
2.441454348
2.84412687
2.027938382
2.814265942
3.631058169
3.063824481
2.755192002
2.576063597
2.605027331
3.701584457
3.623873787
3.538301409
3.448208862
3.356653074
3.266314844
3.180498191
3.1011681
2.046123162
2.016166649
2.194605315
2.484555583
2.827226
2.062862918
2.805265633
3.718005798
3.132029916
2.717871252
2.502443257
2.526284334
3.707078952
3.631262075
3.546303745
3.455772452
3.364513371
3.274113649
3.188204313
2.081867211
1.97129291
2.0835912
2.256260831
2.565312953
2.401096931
1.70740353
2.833711262
3.889267587
3.29221683
2.894467324
2.64605543
2.581361687
2.585132327
3.652827249
3.567755812
3.478296384
3.385750938
3.294513726
3.208026753
2.046418778
2.129688732
2.123164
2.35030839
2.701233664
1.95340885
2.319119777
2.873491791
3.506127031
3.017831944
2.698357651
2.520034057
2.548219885
2.549268062
3.570380645
3.48398422
3.395797052
2.213469965
2.112674956
2.144492645
2.176777759
2.291765924
2.514562079
2.895135501
2.029036241
2.661554185
3.858271408
3.309299243
2.931884789
2.634822234
2.51053785
2.566692008
2.474975251
2.381796033
2.327552694
2.157895379
2.25909103
2.23998143
2.22358253
2.445183809
2.756761169
2.520575314
1.738416028
2.283289769
2.918526273
3.64769102
3.176660851
2.87014173
2.637718947
2.496922412
2.457387804
2.387925646
2.330071851
2.338357227
2.262907914
2.378474969
2.494602009
2.72724484
2.590541276
1.69103228
2.191970791
2.895897857
3.609063302
3.232922398
2.953290581
2.786381995
2.678878942
2.620224234
2.569469255
2.537133436
2.559200831
2.657124223
2.854455577
2.642915367
1.726665829
2.175530336
2.892884003
3.694657496
3.427755335
3.204985208
3.05710497
2.98371145
2.929389023
2.915584529
2.970424701
3.125673723
2.758239299
1.776780264
2.29063214
2.583173733
2.801303726
3.612363681
3.555112961
3.507107345
3.422545045
3.349289745
2.834081879
2.23702009
1.934165718
2.257433747
2.690625607
2.642881776
2.609405046
2.554892807
2.483874662
2.052690253
2.767231276
3.080862013
2.60450392
2.609985072
3.92417832
3.898736732
3.855622064
3.794144365
3.717573869
3.628413093
3.530462465
3.428649421
3.325756057
3.226377971
3.133197902
3.04951873
2.97627453
2.915181947
2.86672224
2.831318213
2.807734573
2.795460303
2.052256679
2.067264039
2.821087061
3.10466147
2.607457586
2.619053396
3.959024702
3.932592185
3.885048261
3.818693549
3.736882894
3.64309172
3.54079365
3.435678727
3.331385368
3.230617991
3.137651965
3.052994177
2.980059793
2.9190518
2.8710741
2.834571653
2.809882891
2.796359352
2.077599584
2.097114498
2.837426433
3.194024992
2.667932902
2.673203445
3.948034769
3.927983202
3.888016642
3.828294116
3.751327852
3.660882982
3.561280201
3.456554597
3.351637481
3.249762531
3.154756504
3.069013462
2.994033667
2.932057172
2.881288478
2.84305467
2.81641946
1.888773786
1.81829779
2.161633494
2.824019527
3.347141551
2.768782207
2.7783344
3.946271087
3.924633567
3.881873259
3.821025495
3.744421046
3.655287591
3.557470362
3.456449165
3.353838331
3.254692128
3.161984031
3.076946218
3.002697601
2.939883038
2.889553481
2.850900581
2.823265599
1.85416836
1.947663068
2.114680414
2.33606031
2.862784573
2.949526495
2.764205272
2.825737343
3.941238708
3.900726938
3.842229765
3.7683564
3.68164592
3.5857895
3.484681134
3.383243455
3.28426392
3.190114635
3.105021668
3.029446478
2.964420399
2.911000374
2.868967106
2.83877437
1.963491863
1.973832636
2.340216238
2.645513014
2.982267138
2.64122843
2.715222143
3.891929832
3.861522367
3.813580533
3.750909887
3.67502333
3.590113104
3.498565011
3.402997577
3.308181793
3.21755822
3.133450019
3.057961224
2.991437934
2.935512333
2.890978627
2.015304879
1.933813262
2.121306093
2.548854143
2.317188421
2.857474357
2.896579031
2.823249606
2.864263917
3.904202141
3.858231926
3.79511951
3.717930063
3.629758675
3.53623394
3.439386286
3.344756514
3.252783671
3.166886254
3.089110992
3.021087521
2.96381701
1.961210268
1.84218439
2.106450293
2.186519376
2.193352824
2.607273082
3.000417374
2.738976267
2.755670982
2.761714948
3.821576479
3.772112723
3.707753573
3.632488411
3.548106197
3.459349516
3.369954301
3.282845212
3.199762232
3.123513856
3.05522848
1.987857979
1.859961843
2.045307316
2.097049485
2.438525751
1.782134626
2.264406133
2.943789256
2.924325169
2.683557582
2.746422812
2.778465137
3.779251512
3.719297912
3.648680346
3.570633362
3.487786109
3.403149358
3.319785573
3.238864604
3.163476965
2.093499366
1.917184121
2.071211483
2.080009441
2.447516242
1.93398921
2.172879187
2.930922346
2.877272062
2.691085859
2.791669757
2.542058046
2.62433048
3.646940665
3.576975116
3.501372705
3.422827286
3.343208621
2.18667862
2.090489929
2.046323215
2.170714388
2.131746344
2.46640118
2.534435982
1.724153529
2.169925402
2.92009087
2.966971436
2.707481319
2.637141933
2.671067013
2.617919008
2.512681469
2.459003594
2.412935192
2.383993686
2.139936108
2.242862546
2.252345724
2.277277222
2.562647528
2.611758778
1.701734325
2.176286129
2.926086619
3.235211964
2.868379992
2.700423733
2.607733576
2.506911075
2.453073712
2.410539841
2.400925465
2.447875688
2.396900568
2.60130377
2.685340159
2.078048272
1.831063497
2.286694669
2.583079749
2.846112571
3.302049996
3.084764318
2.98823424
2.916456361
2.862251681
2.882336108
2.915612128
2.822860884
2.244997925
1.938595707
2.29349469
2.715853775
2.716725136
2.673796008
2.645989139
2.598497699
2.526271902
2.486843025
2.03648522
2.82031946
3.221144608
2.594671273
2.638482048
4.033571679
4.05382246
4.045004002
4.009695798
3.948066035
3.865079968
3.763693157
3.649050251
3.527143981
3.403448068
3.282927407
3.170079274
3.068084992
2.979856546
2.907051993
2.849855971
2.807923523
2.779871326
2.765616579
2.764433897
2.775109344
2.796717022
2.827472456
2.845992844
3.292732473
2.618104768
2.653546347
4.007457213
4.032926055
4.032403303
4.006553103
3.954397973
3.878650342
3.782959038
3.67257708
3.552706359
3.429491487
3.308882837
3.194954276
3.091831219
3.001917987
2.926108582
2.866239204
2.821650407
2.792392971
2.776898663
2.773541235
2.782298816
2.801364343
2.829680682
2.366356227
2.786916322
2.674927139
2.719918764
4.051151322
4.072440941
4.066383266
4.032224127
3.972780224
3.891152397
3.790614684
3.677432377
3.557208786
3.434705753
3.31528453
3.201585487
3.098954106
3.008928867
2.934891767
2.875391083
2.829927769
2.799162809
2.781707992
2.777764574
2.7842233
2.802616242
2.829998504
2.655966228
2.72891961
2.769714919
3.948454466
3.968121444
3.966286364
3.939798508
3.890703903
3.821871152
3.735757336
3.635362965
3.526317757
3.413400668
3.300700143
3.193000927
3.095933159
3.009984856
2.936887383
2.877587808
2.832470657
2.800691828
2.782340501
2.777139481
2.782631086
2.798510247
2.824122575
2.766567528
2.915294391
2.622234888
2.717827135
3.975543589
3.975606742
3.952461811
3.908575187
3.844417533
3.760709887
3.663269579
3.556018614
3.444489299
3.333196373
3.226600722
3.126685141
3.039262484
2.963906872
2.901208118
2.853124887
2.818859824
2.79744989
2.78800104
2.790338244
2.802605837
2.824079666
2.818107494
2.928111056
2.524599473
2.62477556
4.005954864
4.014560052
3.995780694
3.952377838
3.887602398
3.803703837
3.705530673
3.59827103
3.485167044
3.37296545
3.265572289
3.165606433
3.075904045
2.997673397
2.932620454
2.880781649
2.842402642
2.816855947
2.804030296
2.802396141
2.810165612
2.827976379
2.351670893
2.905716046
2.746929384
2.597138299
2.679364007
3.987397405
3.975204774
3.94130595
3.88668871
3.813813516
3.726089907
3.627652654
3.522886953
3.415470256
3.311052172
3.211637625
3.121217947
3.042168564
2.975126701
2.919826385
2.876922034
2.846869297
2.828226424
2.821238156
2.823982576
1.980307834
2.647939558
2.785411003
2.452284189
2.541665624
3.956870411
3.958415838
3.936333786
3.892443432
3.829338776
3.749784977
3.658699374
3.560142057
3.458125012
3.357411314
3.260163021
3.170025318
3.089295189
3.019624047
2.961392673
2.914650289
2.880012965
2.856447109
2.843253767
1.928280817
1.803442488
2.27831655
2.956626894
2.750188453
2.703013927
2.761638999
3.935477708
3.916468084
3.878418867
3.823157016
3.753086679
3.671128261
3.581146755
3.486689272
3.39140778
3.298572389
3.211047771
3.131127349
3.05999358
2.999472408
2.95009302
2.910575655
2.882315648
2.863818971
1.892490931
1.996810341
2.141798137
2.82373536
2.615317658
2.663916918
2.696104673
3.929250191
3.899069989
3.850503824
3.78632044
3.708680168
3.622025619
3.530117599
3.436990113
3.344416467
3.256594143
3.17480195
3.101174496
3.03669826
2.982820672
2.939462367
2.906467469
2.129454823
2.030256767
2.139882513
2.589770822
2.811863647
2.557750584
2.649339283
2.677742503
3.849888488
3.811710786
3.759379289
3.695058513
3.620874298
3.540242817
3.456152039
3.371747284
3.289326058
3.211191265
3.139174202
3.07486101
3.019803071
2.972940776
2.151328895
2.012438839
2.221078748
2.30553729
2.217826491
2.977282974
2.773499348
2.561570563
2.640346993
2.734758339
3.80706278
3.763345765
3.707646835
3.642692766
3.570386294
3.493969341
3.414767976
3.336425481
3.260145253
3.188578245
3.123567635
2.055198767
1.978367004
2.094419248
2.236426925
2.462337837
1.896095176
2.165657782
2.976977975
2.821360306
2.642270731
2.766766575
2.554317926
2.651014476
3.734445005
3.677461031
3.611194454
3.538282569
3.462104716
3.385754694
3.31131
2.155362089
2.066570993
2.003591692
2.117573232
2.225447364
2.520534747
1.657147974
2.273664681
2.57632289
2.881429574
2.694806689
2.616380619
2.677537122
2.641314084
2.497680447
2.418076476
2.366009723
2.330766175
2.316329101
2.334397707
2.102901926
2.213802264
2.244609745
2.275680698
2.670315327
1.711628949
2.099091757
2.951811528
2.966472803
2.753065586
2.636227079
2.501465324
2.412458041
2.366033695
2.330961207
2.324167
2.352209291
2.446410717
2.411960873
2.725413519
2.142316689
1.884174136
2.335617858
2.721892503
2.596133487
2.775839697
3.086975762
3.008784752
2.934427019
2.882812492
2.910621753
2.838462626
2.352887543
2.376402306
1.987134104
2.240361053
2.772792339
2.746562525
2.73958392
2.696295956
2.63034201
2.100068609
2.965928434
3.070496259
3.073376192
3.927980402
3.989832759
4.025819418
4.03676472
4.020862507
3.97668949
3.908429844
3.816508115
3.706132483
3.582296744
3.451572539
3.320513408
3.194713115
3.078216147
2.976023741
2.890370583
2.822839981
2.773108328
2.740978633
2.725149218
2.725170721
2.739114048
2.764484326
2.801022319
2.847399507
2.9020363
2.297826795
2.658521705
3.138274306
3.95847467
4.025844347
4.067628231
4.08173433
4.068149491
4.026344073
3.957024901
3.864712562
3.752717105
3.626833538
3.492890992
3.357620273
3.227364509
3.10697216
3.001012681
2.913016082
2.842776055
2.790755866
2.756437764
2.739285655
2.736629911
2.74761776
2.771793615
2.806475848
2.850627818
2.903704713
2.598916893
2.594934577
2.724616858
3.972736856
4.007510936
4.022290459
4.014496864
3.981059469
3.922622879
3.8411244
3.738894079
3.621220164
3.494356841
3.364530011
3.238521507
3.1211136
3.016588293
2.928694102
2.858035076
2.804414715
2.768356419
2.748224408
2.744013118
2.753464986
2.775152998
2.807964245
2.850330254
2.901629473
2.676628778
2.503715723
2.637279194
4.0146033
4.064919462
4.08519282
4.076266588
4.038210239
3.972112849
3.881894838
3.773339344
3.650303433
3.51944312
3.387784881
3.259687884
3.140538532
3.03534437
2.945312973
2.872046306
2.817145792
2.779046325
2.756751297
2.750141889
2.756807169
2.775417843
2.805336785
2.845042354
2.893569565
2.801256503
2.644681444
2.690726562
4.006951184
4.061420615
4.088710678
4.087575116
4.056043056
3.996246102
3.911718517
3.806833508
3.686816056
3.558087216
3.426328338
3.298600957
3.178575006
3.070858932
2.97811723
2.901951288
2.842230852
2.799710903
2.773847975
2.762608026
2.76531126
2.780005073
2.805880531
2.841765792
2.88602955
2.81812116
2.772375131
2.813900661
3.925752558
3.97928087
4.009607665
4.015466212
3.995244671
3.950465061
3.88071285
3.790154456
3.683740587
3.565957679
3.443600671
3.321655513
3.206287774
3.100743329
3.00875053
2.931678709
2.870374705
2.824728771
2.795019839
2.780094495
2.778335513
2.788180265
2.808801494
2.840026049
2.879312163
2.299874393
2.85231124
2.76451841
2.871809736
4.009915766
4.040858906
4.046427495
4.025097427
3.978643167
3.909187445
3.819016259
3.714885089
3.599188246
3.479474439
3.360405315
3.247083918
3.142038399
3.048639856
2.970016093
2.906183439
2.856822218
2.822757989
2.802954218
2.795723576
2.800538656
2.815628842
2.841263379
2.875964958
2.602712229
2.628844464
2.75383699
3.989523289
4.034486232
4.054064411
4.044692378
4.009450528
3.949464619
3.868403104
3.771203831
3.662598909
3.546943894
3.428677386
3.314659947
3.208460198
3.112450569
3.029010404
2.959980887
2.905267862
2.864746994
2.837816639
2.823279321
2.821224396
2.830439951
2.848547659
2.876135676
2.275823622
2.830061426
2.731498755
2.823422237
3.973378971
4.001739022
4.005606208
3.987032088
3.943807635
3.879934272
3.797408003
3.701157367
3.595243933
3.484294228
3.374883089
3.270079188
3.17375569
3.088344881
3.015408372
2.956028532
2.909332272
2.87589484
2.854723827
2.844941909
2.846040612
2.857098845
2.876888843
2.590671984
2.662401066
2.621680224
2.68931191
4.017844387
4.026280122
4.01154799
3.973421593
3.913704246
3.835574162
3.743061965
3.64125949
3.535470355
3.428499386
3.32467082
3.227643249
3.140376308
3.064243373
2.999479321
2.948008234
2.909290855
2.881939755
2.865558324
2.859212419
2.863514224
2.876461844
2.224934911
2.852294961
2.442668754
2.528925222
3.933381757
3.95359686
3.951112575
3.927791679
3.883066781
3.821032869
3.743214592
3.654655907
3.5596869
3.462276336
3.365298403
3.272603656
3.18696348
3.109910883
3.043403304
2.988383321
2.943868062
2.909702324
2.886845764
2.873986496
2.870543663
2.875707124
2.106298179
2.85993805
2.868864578
2.958261894
3.955528916
3.96130912
3.94682522
3.910847977
3.856753722
3.787362008
3.705665052
3.615716556
3.52180951
3.427717304
3.336054296
3.250065827
3.17062967
3.100693038
3.0397244
2.989810981
2.949951981
2.919476895
2.898777924
1.997879654
1.960698754
2.539917784
2.779166927
2.897740062
2.923522881
3.903350801
3.898167471
3.87451584
3.833253476
3.777296162
3.709705339
3.632930422
3.550374102
3.465794216
3.381580519
3.299981022
3.223081023
3.153021122
3.090852895
3.037145034
2.992432952
2.956053401
2.026497846
1.891969633
2.045946459
2.194037547
3.025163989
2.789596623
2.940468087
2.491886867
2.637249103
3.856190968
3.829540522
3.786566107
3.730874391
3.665221234
3.592093494
3.514949381
3.43590652
3.358065712
3.283174864
3.213136519
3.148434322
3.090974656
3.041448423
2.16041361
1.938839774
2.10772735
2.204395474
2.229169113
2.537868068
2.748281316
2.556748013
2.597928817
2.77962339
3.794748059
3.764308223
3.722053768
3.669057415
3.608528304
3.542029883
3.471487618
3.400078723
3.329316537
3.261167723
3.197377883
2.162855604
2.075923414
2.099387501
2.240091846
2.595789739
1.762800001
2.056195565
2.9225675
2.673915366
2.800917405
2.657106664
2.484622384
2.574487881
3.657535991
3.60809679
3.552162582
3.491415065
3.428309274
2.229802543
2.142706067
2.219848774
2.105538732
2.214723963
2.610168665
2.045609768
1.82569634
2.307828831
2.617201137
2.749927514
2.672029167
2.566555069
2.626128613
2.80525894
2.721273358
2.675979739
2.641937865
2.631305277
2.176580615
2.284285253
2.268184817
2.414857875
2.721584772
1.741823297
2.271862258
2.662439464
2.864255469
2.890639495
2.818284103
2.730976304
2.69479296
2.656807814
2.671131761
2.705303542
2.762431217
2.344021979
2.401572384
2.01893047
2.273649501
2.800720994
2.831478533
2.856941986
2.815527015
2.780925346
2.745861443
2.674879324
2.104314365
2.632226173
3.147571543
3.897271399
3.998777671
4.072285516
4.11562218
4.126341169
4.10376116
4.048057849
3.962570812
3.850810051
3.717697307
3.57148147
3.4199166
3.269399831
3.127493533
3.000433862
2.892570408
2.805988663
2.741549865
2.69950585
2.678520025
2.676525141
2.691438223
2.72112186
2.763939526
2.818240901
2.882399658
2.9553744
3.035286517
2.685978494
2.499482244
2.654321109
3.975036831
4.04488477
4.088872023
4.103259646
4.087271449
4.040037728
3.962096646
3.857427223
3.730860625
3.588346581
3.438361917
3.289432436
3.147726314
3.019784847
2.911330653
2.823899404
2.758382779
2.714220195
2.691384808
2.687444146
2.700471836
2.728378218
2.769271497
2.821340468
2.884271951
2.955665103
3.033951232
2.665595186
2.413707911
2.557297145
4.010379051
4.090114401
4.141489954
4.160848888
4.145580921
4.096681353
4.016489751
3.908111257
3.777020003
3.631530032
3.478737883
3.326036565
3.181575699
3.050615735
2.938205104
2.84802505
2.77928033
2.732427918
2.706467624
2.699309173
2.709642598
2.735439678
2.774014816
2.823299198
2.883528725
2.951615974
3.027396097
2.742335327
2.502451736
2.57494674
3.958424605
4.035256712
4.086465943
4.108561644
4.100067209
4.060449847
3.989788583
3.891618523
3.770951214
3.633188094
3.486812563
3.339192585
3.198037564
3.069340417
2.957743252
2.866422357
2.796475674
2.748232293
2.719294532
2.709618938
2.716357823
2.737656858
2.773111209
2.820546886
2.876990707
2.942531428
3.015403779
2.83539342
2.590807637
2.641901268
3.911929853
3.982865592
4.031692697
4.054347013
4.047519425
4.014148432
3.952454442
3.864022966
3.753579764
3.62669992
3.490524444
3.351581742
3.21653809
3.092429492
2.983367038
2.892799861
2.821728098
2.769366109
2.738045572
2.724776812
2.727524025
2.745337251
2.775761126
2.818352313
2.870819658
2.931290994
2.999784235
2.231602312
2.631312968
2.800546209
3.928176733
4.012007186
4.069669303
4.099998893
4.100276591
4.070395051
4.011623066
3.925613682
3.816365266
3.68980957
3.552630966
3.411978574
3.274987483
3.147646963
3.034590142
2.939460277
2.863038277
2.806403948
2.768642096
2.749741154
2.746322792
2.757230903
2.782024364
2.818560223
2.865030704
2.920570794
2.98437318
2.54697681
2.62312554
2.753381136
3.972681316
4.029056854
4.060618574
4.065049329
4.043139683
3.99363236
3.91858941
3.821554127
3.705985494
3.578473242
3.446536956
3.315554623
3.191485691
3.079894982
2.983190628
2.904275266
2.843436569
2.800677828
2.775616886
2.7669059
2.771779568
2.789507179
2.818979834
2.859607468
2.90948502
2.965845163
2.714713412
2.487507658
2.620797323
3.917184498
3.981208645
4.02172394
4.037741297
4.027227731
3.990581868
3.928393478
3.842544993
3.73774226
3.619527507
3.494265333
3.367661881
3.246226031
3.134735541
3.03655825
2.954796504
2.890239035
2.841815907
2.810379136
2.794412839
2.792278994
2.803265993
2.825584481
2.85884582
2.900730118
2.95009278
2.268723549
2.773095178
2.57401475
2.698711385
4.008945747
4.061106237
4.086362007
4.083972879
4.053914389
3.997422766
3.916407281
3.816314461
3.701177003
3.576854709
3.450002344
3.327445737
3.212996053
3.11069508
3.022895992
2.951216343
2.895868454
2.85607727
2.830981914
2.819859544
2.822144196
2.835808077
2.859849248
2.892962403
2.935590175
2.546951321
2.429626303
2.5406438
3.915395742
3.961187284
3.988492168
3.993382183
3.976380249
3.936394035
3.874491075
3.792834876
3.696492845
3.590724544
3.478632056
3.366987545
3.258861301
3.160050029
3.073338958
2.999303498
2.939843109
2.89466751
2.863121459
2.845033472
2.839489272
2.844915619
2.860901896
2.885655098
2.918826951
2.248941962
2.809836019
2.650414393
2.752886053
3.947173182
3.98679736
4.001908432
3.992165194
3.959898785
3.905969508
3.83179069
3.742549705
3.641627012
3.535361765
3.427852153
3.323190134
3.2247589
3.135793454
3.058587783
2.994162855
2.942429786
2.903412099
2.877233654
2.862619724
2.859436952
2.866021601
2.882058838
2.906295849
2.543533678
2.55447168
2.565608729
2.633302501
3.926981562
3.951629054
3.955087176
3.937455568
3.899121705
3.842221722
3.7692435
3.682897876
3.588229577
3.488709931
3.389087853
3.293640055
3.205511144
3.125299144
3.056101516
2.998887185
2.952934286
2.918265996
2.895383611
2.882941742
2.880365661
2.886470647
2.900939672
2.209321842
2.847470291
2.410875187
2.504191867
3.913783279
3.948106629
3.95981127
3.949605048
3.91819707
3.868590691
3.803609162
3.725544772
3.638280688
3.545301145
3.451793393
3.359459132
3.27230786
3.192525136
3.120546594
3.058518392
3.007032104
2.966078575
2.934974657
2.91422298
2.90264476
2.899921595
2.905071814
2.08124575
2.91699858
2.860599223
2.994115842
3.891788539
3.91766592
3.925987066
3.913441374
3.882188163
3.834523676
3.771529782
3.697665285
3.615745077
3.528942408
3.441161828
3.356093444
3.274814068
3.200052584
3.133471027
3.075683758
3.025969547
2.986209172
2.955850613
2.934211051
2.921983025
1.971088914
2.124511421
2.828106349
2.916114715
2.440238273
2.60632603
3.933594681
3.934950282
3.914374714
3.876739252
3.823276413
3.757647289
3.682798378
3.60165087
3.517060478
3.432543848
3.350817596
3.274309008
3.203366528
3.140568546
3.085327373
3.038604994
2.999997132
2.969915997
2.084269217
1.884556175
2.088416157
2.737267236
2.471541557
2.545978841
2.692594344
3.865952286
3.859258689
3.835103345
3.796712162
3.746176535
3.685253738
3.617307423
3.544509654
3.469564565
3.394193304
3.322322348
3.254705619
3.191060412
3.13439659
3.084495328
1.978325327
1.913830805
2.023525415
2.183855835
2.087464198
2.871132325
2.565389689
2.711013922
2.475538958
2.606695175
3.806763793
3.781990216
3.745225438
3.69798334
3.641806318
3.579069172
3.512909178
3.44557847
3.377166703
3.310713622
3.248088497
3.189974671
2.249956255
1.889350451
2.027992453
2.517881198
1.986599665
2.275825218
2.595026124
2.730163504
2.548395541
2.627887075
2.580563106
2.684589277
3.73830572
3.701561391
3.654018515
3.600985135
3.542129697
3.480433247
3.418097341
2.28002549
2.187684349
2.321123352
2.195978478
2.326696931
2.600021298
1.704935951
2.23001289
2.57936589
2.694298966
2.633405577
2.70483056
2.875918334
2.734571534
2.631583999
2.610918055
2.587689757
2.593157189
2.630030387
2.206333558
2.321790197
2.358835352
2.782173905
2.219211582
1.98227827
2.239435015
2.789844179
2.459951818
2.634836309
2.703706565
2.620227575
2.600719289
2.568275136
2.594430988
2.63961909
2.872848601
2.35221946
2.506686682
2.031742583
2.22616099
2.928252834
2.875956509
2.85053717
2.83438903
2.823871059
2.777890927
2.119874436
2.914455926
2.504840964
2.591945863
3.906577554
4.006376488
4.079568849
4.123486315
4.135649496
4.113315515
4.056786274
3.965248647
3.844072845
3.698170513
3.537220694
3.368682099
3.203214159
3.048953557
2.913599063
2.801728348
2.716460725
2.658195938
2.626307815
2.618368956
2.631263866
2.662824208
2.711634267
2.774675131
2.84911869
2.933253613
3.025397232
3.124559998
3.229728108
2.977521186
2.529165852
2.612651873
3.93890518
4.048648544
4.129546217
4.180674942
4.197600816
4.177148321
4.119283905
4.025967271
3.90070159
3.750169589
3.584024692
3.410587844
3.239989517
3.081945506
2.942110704
2.826601408
2.738022453
2.676555613
2.64127632
2.631367701
2.643003208
2.673031101
2.719818654
2.779964148
2.852388042
2.935441255
3.026348482
3.123340016
3.226511365
3.045335272
2.590654459
2.674967236
3.93845166
4.043452661
4.124549868
4.173725832
4.190044372
4.171677326
4.115993036
4.026251005
3.905312034
3.759544355
3.596578666
3.425817117
3.257275293
3.0998074
2.959811388
2.844257709
2.755284657
2.692698385
2.655986099
2.642329683
2.650899638
2.678827507
2.722643973
2.780018402
2.850097031
2.930078786
3.018318959
3.114021012
3.215306013
2.193860126
2.546002828
2.732071668
3.893448793
3.992442473
4.067249374
4.115129002
4.130993303
4.114417973
4.065772699
3.984914503
3.87418741
3.738496399
3.585731998
3.424632152
3.262625057
3.111539549
2.97629677
2.862052129
2.772637955
2.708558039
2.669278331
2.653970246
2.659109479
2.682908901
2.723272416
2.778065958
2.844394152
2.920190799
3.004720803
3.096067644
3.193634264
2.403883447
2.857244993
3.874848296
3.983613065
4.068672232
4.124491813
4.150571298
4.142503606
4.098940827
4.022797748
3.915688417
3.783573636
3.632953496
3.472377541
3.311938828
3.159568196
3.021955757
2.905322987
2.812423926
2.743312688
2.698965461
2.678079586
2.677512323
2.695855426
2.730512504
2.778992538
2.839653772
2.910717285
2.990074872
3.077393386
3.170166639
2.680255097
2.522297507
2.691778545
3.996846972
4.09516394
4.163788442
4.2005497
4.201679737
4.167459312
4.097519175
3.994822159
3.864815042
3.714876128
3.554118963
3.390713334
3.234223258
3.091720919
2.969555513
2.86895413
2.793677222
2.741808974
2.713395165
2.706056915
2.716405771
2.743254678
2.784563478
2.838209547
2.902326413
2.975883552
3.056966814
3.143164884
2.757221295
2.409774709
2.548982232
3.941157543
4.03644915
4.107292731
4.148053651
4.156027918
4.130516437
4.07159825
3.980536797
3.862456111
3.724128286
3.574375832
3.420773352
3.270629256
3.131866933
3.010559478
2.909713268
2.831654574
2.775710588
2.74081909
2.727575721
2.731269034
2.751249268
2.785675027
2.832622275
2.889515307
2.955135717
3.028555786
3.108757574
2.21283988
2.623677674
2.664691039
3.883910309
3.980093516
4.0534558
4.096706192
4.108455639
4.088679485
4.039036142
3.959825801
3.854433399
3.729455465
3.590925857
3.446481254
3.304559513
3.171940689
3.053637216
2.952539154
2.872076224
2.812458459
2.772906898
2.752500768
2.74929067
2.761387198
2.788174263
2.827006869
2.876515232
2.934793287
3.001461357
3.074116789
2.531541791
2.600963538
2.737325645
3.936257377
4.013207229
4.064423357
4.089270888
4.08560075
4.051209252
3.987977853
3.897200628
3.784755595
3.656271149
3.519349401
3.381456913
3.24956289
3.129623669
3.025702801
2.939158919
2.871950778
2.823967776
2.7939876
2.781207612
2.784230706
2.800980828
2.829797736
2.86939188
2.918047959
2.975415877
3.038760319
2.20246138
2.531370684
2.616119146
3.934362651
4.024676103
4.089851243
4.12332998
4.126428214
4.096504602
4.036716208
3.950521575
3.843239874
3.720828794
3.588483011
3.453917035
3.324123262
3.202816364
3.095840434
3.005372195
2.932448316
2.877221995
2.838512839
2.816857926
2.810121399
2.816495821
2.835416663
2.865349644
2.904338381
2.952036149
3.006825618
2.497548396
2.625317461
2.75668701
3.956744993
4.030591109
4.077927246
4.097039131
4.087399387
4.047387721
3.980804919
3.890893544
3.782452711
3.661482322
3.535707501
3.409907758
3.291437745
3.182334385
3.086816893
3.006543886
2.941868703
2.893895385
2.861623657
2.844162214
2.839739384
2.847659015
2.866443406
2.89470211
2.932024752
2.976920155
2.193063325
2.537653903
2.595259898
3.894568133
3.978297738
4.035211218
4.06481985
4.066888844
4.040481437
3.988118824
3.913234136
3.819900096
3.713230463
3.598069296
3.481047862
3.367373131
3.26016908
3.163963648
3.079999257
3.010305667
2.955319614
2.913882729
2.885800165
2.870952297
2.867743453
2.875407286
2.893084279
2.919166325
2.954150585
2.47997369
2.809056438
2.908439088
3.881385813
3.940218518
3.978579695
3.994849908
3.986216916
3.955326314
3.902833847
3.831607902
3.744474707
3.646235422
3.542682782
3.438232952
3.336605911
3.241940015
3.156511332
3.082302214
3.020554436
2.972047043
2.935766606
2.910439184
2.897303714
2.89432296
2.900595505
2.915718803
2.938633977
2.190486563
2.8224573
2.731826958
2.802341478
3.94893682
4.002157309
4.030939669
4.033300339
4.011614208
3.966596445
3.902530906
3.821951231
3.729868358
3.630278488
3.528287744
3.427492624
3.332115122
3.243905048
3.165049044
3.096621927
3.039245491
2.992074714
2.95690725
2.932081653
2.918856578
2.91489696
2.918676291
2.930436714
2.12279357
2.680867466
2.677022276
2.730229638
3.891167739
3.922126783
3.93413627
3.926219835
3.900067278
3.857024627
3.798202495
3.727637065
3.647161547
3.561136765
3.472787115
3.385928019
3.303379575
3.226495206
3.156934354
3.096385018
3.045538434
3.003659257
2.971456215
2.947751292
2.933479109
2.927657426
2.92981085
2.066790545
2.605552924
2.649979709
2.715043923
3.823270686
3.848083768
3.857647725
3.849743767
3.825156658
3.785806472
3.733094452
3.670224298
3.598988927
3.522448779
3.444998692
3.367979038
3.294418565
3.224857793
3.161412304
3.106415199
3.058786693
3.019178271
2.988031729
2.964077835
2.948537312
2.940006299
2.088300001
2.67392933
2.722615607
2.861621159
3.881196511
3.898629705
3.897249979
3.879808841
3.845579441
3.797750214
3.738840415
3.67160094
3.598451409
3.522799538
3.447083533
3.372734543
3.301899261
3.236080253
3.175740561
3.121912909
3.075461482
3.036373826
3.004395556
2.058047909
1.990672164
2.044026276
2.773647591
2.844290532
2.464426456
2.618035954
3.817990013
3.818661868
3.8045593
3.776306305
3.736129446
3.686002567
3.628661408
3.565907639
3.499519827
3.433325021
3.367445057
3.303667611
3.243701448
3.187769481
3.137144652
3.092862799
2.264040818
1.94595754
2.102227595
2.052031583
2.788663811
2.537305003
2.644235194
2.467317724
2.597552627
3.812271372
3.796968305
3.768982938
3.729720766
3.681858833
3.627217377
3.567279756
3.504354186
3.440545494
3.378007073
3.317161648
3.259366324
2.332887461
2.228362602
2.189141836
2.669323876
2.102488652
2.254826949
2.56116799
2.682026232
2.501678814
2.597902191