/*--------------------------------*- C++ -*----------------------------------*\
| =========                 |                                                 |
| \\      /  F ield         | OpenFOAM: The Open Source CFD Toolbox           |
|  \\    /   O peration     | Version:  v1706                                 |
|   \\  /    A nd           | Web:      www.OpenFOAM.com                      |
|    \\/     M anipulation  |                                                 |
\*---------------------------------------------------------------------------*/
FoamFile
{
    version     2.0;
    format      ascii;
    class       volScalarField;
    location    "3.2711";
    object      mfpToDx_O2;
}
// * * * * * * * * * * * * * * * * * * * * * * * * * * * * * * * * * * * * * //

dimensions      [0 0 0 0 0 0 0];


internalField   nonuniform List<scalar> 
60268
(
11.75913298
15.89214826
16.01118369
15.82160197
15.55587235
15.21090516
14.92152939
14.56456042
14.19845392
13.6016851
9.817671989
9.791703504
11.8979222
15.9114399
15.84417775
15.58938465
15.25191553
14.9168799
14.61215313
14.22007397
13.60991677
9.914396415
11.31145724
15.81517633
15.7743634
15.5847623
15.28211819
14.93389244
14.61301889
14.1191393
12.02168533
8.18811818
9.741423611
12.11564378
15.64131688
15.5500129
15.27435577
14.86351099
14.50922998
13.91838681
9.642596816
9.35934219
12.09665747
15.44294434
15.26415322
14.81118147
13.03359673
10.09815377
8.89180615
9.616096636
11.56743515
11.59067319
11.1369043
9.071013962
11.75765001
15.50745175
13.26350899
11.85399076
11.76478004
16.61526086
16.363245
16.04251512
15.66883212
15.26701095
14.84787967
14.42846875
14.02164387
13.63890605
8.936934772
8.796196463
9.485717025
10.61498631
12.31877714
8.753308627
12.08046745
15.66105264
13.25645344
11.95826124
11.221271
11.39099825
16.24156996
15.93218352
15.57472521
15.18875533
14.7860511
14.38388592
13.99374133
13.62109632
8.96607536
8.812398637
9.562769482
10.79213888
12.24249701
8.900588197
12.04664918
16.04636784
13.55421003
11.80101159
10.90289482
11.04149313
16.26070917
15.95901836
15.61036554
15.23017762
14.83031809
14.42194521
14.02983304
9.140438769
8.635517328
9.105997526
9.834044628
11.14628997
10.3993218
7.364870601
12.16528468
16.77171506
14.23991935
12.56440207
11.52142554
11.27770668
11.32765082
16.0621391
15.70469072
15.32574362
14.92622107
14.51733689
14.12032126
8.986659814
9.334907277
9.28694712
10.25359058
11.74668607
8.473578652
9.945195767
12.36950107
15.15091132
13.0803589
11.73127
10.98752845
11.14546684
11.18081877
15.68916709
15.32614598
14.94281642
9.730105779
9.280248119
9.410125929
9.534958247
10.01846501
10.96482688
12.5871864
8.786669649
11.44583159
16.66546182
14.33840276
12.74742803
11.49015258
10.9755739
11.24248556
10.86348269
10.46695285
10.23477479
9.485705662
9.926107354
9.832026201
9.745663059
10.70000001
12.03380931
10.96954351
7.540747006
9.809397723
12.60092186
15.790592
13.79055437
12.48850182
11.50737945
10.91637935
10.76177554
10.47033488
10.22242075
10.26450041
9.928172716
10.42547439
10.91889601
11.91488468
11.29364162
7.355402532
9.435497442
12.52101022
15.64832843
14.05386148
12.86784602
12.16590561
11.71115
11.46464277
11.25218578
11.11202689
11.20798909
11.62961311
12.48188691
11.53788026
7.518882283
9.392505848
12.53203095
16.04735842
14.914894
13.97449754
13.35419409
13.05105119
12.82432981
12.76991012
13.00715964
13.67493436
12.0525304
7.749785705
9.904631042
11.20287037
12.17933389
15.74087889
15.52376489
15.32968935
14.97198204
14.65722501
12.39464371
9.781259846
8.45215717
9.791157693
11.69618679
11.5047388
11.37420781
11.14442101
10.84488424
8.955215576
11.79878853
13.18465306
11.19317839
11.27305668
17.04582959
17.00449508
16.87542361
16.66180878
16.36344439
16.00132451
15.59275348
15.15181273
14.69402529
14.24713666
13.81809199
13.42241562
13.0726248
12.76635269
12.51736596
12.31149299
12.16049999
12.05571458
8.816879529
8.846815928
12.01881913
13.29226718
11.20299799
11.30888885
17.20839716
17.16695085
17.01825172
16.78052878
16.46593865
16.08325687
15.65627936
15.20132066
14.73304459
14.2787272
13.84658074
13.443322
13.08649528
12.77639926
12.52397819
12.32229403
12.17295589
12.06714151
8.930733321
8.981171696
12.0869078
13.68131526
11.46510594
11.5437795
17.15884534
17.1355958
17.02256281
16.81772374
16.52563929
16.16417495
15.743272
15.28818991
14.82503653
14.36390641
13.92422316
13.52034876
13.15435619
12.84277542
12.58203273
12.36819042
12.2063552
8.156291953
7.82136024
9.261997599
12.02361639
14.33233067
11.89745308
11.99435298
17.14113017
17.1165754
16.9907412
16.77672164
16.48322782
16.12169158
15.71656299
15.28126287
14.82837509
14.3772508
13.94728446
13.55031806
13.19525107
12.87882352
12.61181253
12.40281321
12.23742494
8.00712429
8.381240442
9.062355607
9.927453312
12.24306303
12.65970802
11.9274044
12.25542172
17.17659002
17.06258461
16.85961047
16.57480514
16.22803026
15.82364071
15.38771949
14.93824236
14.4932431
14.06743585
13.66794125
13.30028742
12.9799014
12.7101041
12.48312595
12.30722819
8.484512204
8.49740659
10.02828943
11.29688409
12.78957712
11.36434974
11.73898962
16.91574295
16.84423255
16.69362276
16.45832756
16.16389285
15.81861016
15.42939987
15.01625648
14.59484566
14.17746064
13.78655208
13.42653881
13.10393204
12.8224184
12.58727314
8.750643764
8.370276712
9.146028399
10.93958079
9.883948709
12.24067871
12.45860563
12.19681824
12.42835141
17.02657335
16.87713334
16.65131863
16.35104867
15.99336555
15.60012694
15.17732906
14.75775943
14.33792346
13.93778402
13.56958537
13.23903574
12.95183213
8.546547827
8.000006437
9.114385121
9.428990168
9.419326184
11.15355631
12.8797457
11.80097334
11.91850407
11.99689897
16.66739262
16.50182007
16.25537235
15.95228349
15.60795782
15.22975092
14.83655035
14.44089197
14.0563802
13.70436936
13.38401714
8.684402073
8.104120011
8.885178939
9.081540194
10.5232314
7.668074844
9.67243247
12.62761646
12.59633454
11.59844868
11.91278682
12.09794605
16.51792274
16.29239248
16.01525267
15.69232034
15.33767871
14.96835205
14.59480654
14.22845522
13.88377549
9.167748268
8.378063765
9.026753589
9.039765647
10.59910767
8.352564661
9.300276985
12.59740261
12.39826129
11.63961758
12.11657039
11.06793499
11.4585381
15.9622534
15.68046024
15.36604728
15.02782846
14.67829013
9.591969045
9.158125597
8.951603577
9.479282515
9.290930307
10.72388111
10.98415644
7.449146504
9.300811614
12.57518349
12.81090482
11.72462549
11.44826995
11.62627768
11.42251586
10.98140746
10.75983519
10.56852406
10.44533704
9.371891076
9.815967454
9.845733138
9.939235239
11.17192802
11.35356322
7.379917249
9.346617801
12.60848102
13.98800406
12.43384129
11.73236544
11.35174856
10.93035987
10.7109174
10.53231596
10.49072286
10.69609388
10.46986246
11.35773802
11.71097631
9.046469389
7.957854527
9.829369754
11.13040918
12.3034878
14.32020794
13.40251983
13.0065048
12.70765195
12.48506039
12.58149792
12.73288287
12.32531469
9.796351881
8.447446903
9.88763936
11.7428709
11.76806987
11.60604928
11.49532319
11.30583172
11.00149679
10.83309052
8.867838302
11.93236173
13.67560111
11.06511409
11.31443256
17.43257289
17.61449524
17.66821325
17.58521349
17.3822009
17.07340938
16.67215144
16.19591128
15.67047188
15.1237507
14.5771201
14.05450515
13.57071987
13.14612963
12.78086548
12.48066608
12.24315368
12.06510427
11.95622294
11.89921451
11.89622611
11.93974585
12.02124077
12.03226991
13.98789131
11.16903163
11.3764645
17.30734816
17.50706764
17.59115456
17.56151268
17.40485547
17.12813739
16.75858757
16.30259437
15.78877986
15.24736168
14.70390526
14.17804361
13.68509527
13.24535513
12.87248247
12.56048705
12.32069653
12.13875066
12.01677836
11.94809291
11.93791214
11.96727097
12.04059961
9.998083725
11.83059626
11.41062262
11.66757649
17.51883786
17.70379444
17.75974941
17.68893578
17.49868094
17.1900846
16.79263346
16.3277985
15.81272199
15.26957792
14.72082084
14.19709825
13.72023425
13.2840485
12.909101
12.60238401
12.35935827
12.17096473
12.041694
11.96970078
11.9508622
11.97771323
12.04440381
11.25620436
11.61835255
11.85675169
17.02516072
17.18488744
17.25214479
17.21036416
17.06095163
16.81598478
16.48349673
16.07335715
15.61594595
15.12482447
14.62587421
14.13695158
13.6749395
13.26212505
12.9022326
12.59953105
12.35582485
12.17487018
12.04938893
11.97090946
11.94240739
11.95921897
12.02150086
11.71605059
12.4100489
11.21582552
11.69871873
17.20989361
17.28652576
17.25688449
17.13419489
16.90848963
16.58982032
16.19207628
15.74034589
15.25342039
14.76065405
14.27229763
13.81088481
13.39282091
13.02502316
12.71146176
12.45667709
12.25487502
12.11440492
12.02567481
11.97952809
11.98219382
12.03317039
11.92826226
12.46700894
10.78979236
11.27847284
17.34327869
17.45967875
17.4580391
17.33260614
17.11359225
16.79068004
16.39008893
15.93451631
15.44691036
14.9477182
14.45530561
13.98652566
13.56805718
13.18903742
12.86155127
12.59101444
12.38022117
12.22024804
12.11414991
12.05592302
12.04087193
12.07011743
9.943720224
12.35243381
11.72321386
11.14326696
11.5582242
17.29927099
17.32619157
17.24466139
17.06689578
16.79378771
16.44274459
16.03220874
15.58442497
15.11555592
14.64339705
14.18931788
13.76384094
13.37908225
13.04246054
12.76307024
12.53330421
12.34999168
12.22344246
12.14622568
12.11685442
8.469489349
11.22949231
11.86349624
10.49208049
10.9299452
17.11737249
17.20449497
17.18421905
17.05372283
16.82801163
16.52274592
16.1507198
15.73708133
15.28648606
14.83074732
14.38917737
13.97488442
13.59012934
13.25109312
12.95663776
12.71061808
12.51062723
12.36526382
12.26655541
8.289335257
7.724708118
9.641726578
12.57904454
11.75122254
11.60477443
11.91819947
17.0741276
17.05462754
16.94777205
16.75837015
16.48747979
16.15362261
15.77641597
15.37515665
14.95888726
14.53816258
14.13408818
13.76309506
13.41859602
13.11679775
12.85933581
12.64380302
12.4810443
12.36374737
8.143104834
8.560005601
9.085837995
12.04329221
11.20311939
11.46392142
11.6624988
17.08856412
17.02449902
16.86694265
16.62767314
16.31783618
15.95857609
15.56352049
15.15092827
14.7385612
14.3397686
13.95468102
13.60338173
13.29740903
13.02811541
12.79994167
12.6119472
9.207517156
8.747809822
9.188848421
11.02622815
12.01977385
10.97390173
11.41664212
11.58893885
16.7299185
16.6134639
16.43267253
16.18732663
15.88704992
15.54818124
15.18465389
14.80934017
14.4363458
14.08156263
13.74687306
13.44226206
13.17134004
12.93092005
9.333529033
8.703369779
9.572165872
9.901520583
9.414324756
12.69481746
11.87392956
11.00388139
11.38716207
11.84552456
16.55810272
16.40983255
16.20064447
15.9506617
15.64806666
15.32359798
14.98152241
14.63276207
14.28789408
13.95754293
13.64964818
8.962782929
8.609156717
9.09174272
9.679275566
10.62221737
8.152064358
9.215906777
12.71307194
12.08947782
11.35856466
11.9381447
11.05970379
11.51677747
16.276563
16.06208837
15.79731813
15.49618782
15.1672665
14.83018628
14.49547224
9.420946571
9.01999294
8.730072635
9.20688954
9.657249433
10.91473764
7.156262636
9.703773983
11.0284843
12.36605745
11.5983524
11.29245892
11.59074899
11.46454506
10.85896581
10.52948149
10.31863124
10.17396161
10.11816489
10.19943899
9.184924175
9.659830936
9.783720485
9.90016467
11.59280946
7.41485599
8.983128628
12.67657448
12.78484215
11.8923746
11.41215286
10.84944001
10.47846916
10.29241988
10.14778386
10.12153672
10.24518079
10.65390759
10.50196034
11.85486939
9.307118066
8.174920145
10.00303161
11.68526446
11.17081894
11.97766811
13.35484608
13.03812184
12.7347035
12.52333558
12.65820338
12.34077715
10.22948919
10.32414586
8.62169253
9.63125212
11.94673209
11.86069893
11.84338619
11.67428865
11.39983001
9.109963458
12.4687122
12.97425691
13.06038869
16.8125724
17.1736998
17.41413172
17.5588364
17.57134828
17.45968171
17.22468061
16.88342541
16.44251812
15.92575396
15.36094815
14.77944777
14.20415503
13.65847866
13.16927939
12.74323716
12.39532392
12.12131555
11.92271609
11.8009646
11.74707159
11.74881874
11.80723873
11.91129127
12.05516093
12.23911194
9.653398896
11.22708733
13.33077079
16.93998174
17.32778015
17.60539739
17.76531943
17.78756962
17.69281909
17.46087941
17.10824933
16.66500389
16.13667979
15.55582308
14.94481161
14.34616592
13.79317385
13.28802987
12.85253243
12.49396558
12.2098618
12.004037
11.86999218
11.8018409
11.79950529
11.84784755
11.94408303
12.08419264
12.26185036
10.97828568
11.028726
11.63950838
17.09880301
17.33325701
17.483519
17.52774617
17.45572133
17.27195458
16.97383414
16.57043757
16.08164589
15.54040389
14.97295371
14.40217721
13.85783252
13.36196766
12.92494441
12.56327574
12.27944833
12.07006913
11.92683676
11.84777927
11.82930656
11.87030178
11.95558458
12.08650053
12.25679927
11.2814058
10.61045667
11.25154303
17.25576331
17.58276808
17.7685012
17.8178954
17.73805965
17.51908356
17.18736695
16.75007587
16.23462804
15.67326023
15.09085559
14.50380231
13.94847795
13.44129231
13.0069815
12.63774701
12.33907109
12.11556326
11.96224276
11.87512632
11.84669315
11.87698317
11.95715102
12.07663099
12.23538319
11.78721813
11.19493176
11.46453263
17.20450209
17.5308422
17.75752624
17.84778853
17.79355675
17.61083564
17.29950447
16.88968606
16.39368809
15.83818103
15.25955977
14.68064809
14.12075507
13.60873316
13.16442418
12.78005619
12.46390752
12.22348497
12.05676745
11.95394454
11.91027669
11.91476755
11.97081921
12.07104448
12.20646149
11.86834602
11.72048139
11.97860827
16.82953202
17.15188666
17.36720761
17.48142588
17.47186064
17.3462515
17.10576106
16.7617442
16.31999669
15.82254984
15.29042472
14.74920576
14.22230474
13.72968167
13.28734197
12.90253949
12.58978674
12.33848148
12.15376952
12.03440861
11.97295489
11.96979413
12.00881043
12.09010823
12.2081221
9.690895053
12.07004129
11.75448274
12.27954161
17.26761713
17.50004128
17.61079472
17.59874945
17.46848683
17.22371832
16.87809734
16.45015094
15.97090171
15.45046084
14.91733768
14.39444
13.90095517
13.45546632
13.06675281
12.73818804
12.47897302
12.28010445
12.13624536
12.05819834
12.03144824
12.04602577
12.1058803
12.20697575
10.98705574
11.15188765
11.74755402
17.14888493
17.44226245
17.61114556
17.6578526
17.5821448
17.38600794
17.08255544
16.6931877
16.23159849
15.73184349
15.2054451
14.69429546
14.20082125
13.74362892
13.34278814
12.99923534
12.70912859
12.48221331
12.31970864
12.21140537
12.14955774
12.13598312
12.1652944
12.23297999
9.588983772
11.98592314
11.63595255
12.08793356
17.11175193
17.32889846
17.42903361
17.42665483
17.3021454
17.07216192
16.75339666
16.36273274
15.9082369
15.43070795
14.94564174
14.46710463
14.01632003
13.60634101
13.24670322
12.93938613
12.68896518
12.49658629
12.35696372
12.26371044
12.21919233
12.2169521
12.2586688
10.9448549
11.30621133
11.19234316
11.55486071
17.38228889
17.50152163
17.50880347
17.404288
17.20164029
16.90315919
16.53271365
16.10919537
15.64540939
15.16504002
14.69682716
14.24817446
13.83816872
13.46573498
13.14637819
12.87334629
12.6565125
12.4891878
12.37448033
12.30680791
12.27693435
12.28252677
9.385753857
12.09518154
10.3849945
10.82037164
16.93493671
17.09621104
17.16615619
17.13163992
16.99197702
16.77061
16.47286215
16.11068381
15.70355752
15.27480839
14.8405654
14.42133993
14.02378484
13.65993214
13.33158061
13.04901669
12.80997603
12.62260914
12.47752292
12.37828545
12.32405485
12.3009341
8.897211434
12.13780558
12.24367917
12.69735092
17.08384551
17.18724376
17.19041763
17.09361559
16.90392691
16.63736396
16.30944261
15.93320701
15.53003621
15.11199875
14.6934043
14.29759194
13.92696387
13.58875768
13.28754759
13.03708576
12.82185343
12.64779881
12.51132219
8.596112384
8.405357936
10.76124506
11.83389159
12.38669627
12.5637843
16.86109733
16.90256451
16.86264613
16.733119
16.53148397
16.26714186
15.95322391
15.60134223
15.23563676
14.85873134
14.48990598
14.1367319
13.80254933
13.50566222
13.24221439
13.01445059
12.81764947
8.761386351
8.155915807
8.791208262
9.278175489
12.85754242
11.88719137
12.58204103
10.70274153
11.37998825
16.72292883
16.65977981
16.51672663
16.30892119
16.04736885
15.74418462
15.41639432
15.07519825
14.72776308
14.38959298
14.0627268
13.7541192
13.47608227
13.23137323
9.374463618
8.39068901
9.097201836
9.487587668
9.449662464
10.78071141
11.72337075
10.95589203
11.167471
11.99881907
16.44246961
16.35451551
16.20866176
16.01113103
15.76732569
15.48559536
15.18522916
14.87997124
14.56692486
14.25987008
13.96858448
9.425625411
9.030645897
9.114230951
9.703077761
11.21887047
7.601007523
8.736868374
12.47495987
11.44043417
12.02600492
11.44211897
10.72524454
11.14789471
15.88347985
15.69810261
15.47296069
15.21650789
14.94026556
9.714149598
9.329306019
9.661026259
9.154676761
9.61575397
11.31690018
8.852122392
7.876359926
9.821506815
11.17191968
11.77359248
11.47931066
11.05482502
11.34151698
12.13874365
11.79676644
11.61488657
11.47760442
11.44177907
9.464382703
9.934041157
9.860433175
10.49068855
11.80843951
7.544962224
9.707943335
11.40994543
12.31141069
12.44848712
12.16650312
11.80890605
11.66976311
11.52047712
11.59490476
11.74828298
11.99710991
10.17450479
10.41416351
8.74348069
9.73392163
12.02109261
12.17702128
12.30308673
12.15234806
12.02328046
11.8807212
11.58402753
9.112004297
11.04438134
13.3032784
16.58612665
17.13787002
17.56816578
17.86113978
18.0016037
18.00761868
17.85837687
17.56059998
17.12545901
16.57811207
15.95375902
15.28414862
14.60347616
13.9509693
13.34511103
12.81363929
12.37614481
12.03863038
11.79052303
11.63479062
11.55957582
11.56226079
11.63162129
11.75970784
11.93503144
12.15210343
12.40509552
12.69534051
11.28622381
10.54964997
11.29122583
17.03275937
17.43857239
17.73147178
17.89745792
17.92148949
17.79660773
17.52984664
17.13438376
16.62184801
16.01537139
15.3660486
14.69563792
14.04800242
13.44485701
12.90939401
12.46613276
12.12020707
11.86417959
11.70298959
11.621094
11.61450673
11.67585928
11.79558376
11.95977582
12.17399794
12.42559688
12.70429218
11.19745164
10.18983523
10.866982
17.17998069
17.62092079
17.96114689
18.15105215
18.18471235
18.07298637
17.8002204
17.38288046
16.85270534
16.23350812
15.55558251
14.86611622
14.1945224
13.57727074
13.03142235
12.57694672
12.22306198
11.95097654
11.77539108
11.67924413
11.65409339
11.70507348
11.81553441
11.97629474
12.17850475
12.4196086
12.68944811
11.51749656
10.54940217
10.92083331
16.91835137
17.37095179
17.69236912
17.89820881
17.95090309
17.8648594
17.64219174
17.27719493
16.78952736
16.21192065
15.57210623
14.9119799
14.26587357
13.66529343
13.12914878
12.66953761
12.29692952
12.02026871
11.83543161
11.72976554
11.69836162
11.73188442
11.82530937
11.96762551
12.15562915
12.38609256
12.64582938
11.8791018
10.91390053
11.19536623
16.70002656
17.1241586
17.43766145
17.61749733
17.69195136
17.62601414
17.42614553
17.1000626
16.6695751
16.13548737
15.54278321
14.93045565
14.31774656
13.73625048
13.21479413
12.77131844
12.40246335
12.11633528
11.91922588
11.80551223
11.7543255
11.77170161
11.84142432
11.96803563
12.13802119
12.35101945
12.58856391
9.332329051
11.06721059
11.86041555
16.76732193
17.23116803
17.58200405
17.81253415
17.90254051
17.8635277
17.68106274
17.37085643
16.94242239
16.41805506
15.83322257
15.21665379
14.59750326
14.00459478
13.46473644
12.99599136
12.60446111
12.30226132
12.07859622
11.93379945
11.85434081
11.84579919
11.89724565
11.99466964
12.14671519
12.3349319
12.55597048
10.70286878
11.10503454
11.72018236
17.03313414
17.37129202
17.60528948
17.72510953
17.71266377
17.56881507
17.30663376
16.92976898
16.46135277
15.91971622
15.33314211
14.74424744
14.17487284
13.64203037
13.17670606
12.78092749
12.46333911
12.22036501
12.05645947
11.95692868
11.9243209
11.94044254
12.01692416
12.13965805
12.29993267
12.48844683
11.40027858
10.50416286
11.13191623
16.75714201
17.13249987
17.40393912
17.55868152
17.60321253
17.51926563
17.313791
16.99047645
16.57472576
16.08149498
15.53859302
14.96656473
14.41614632
13.89402209
13.42346147
13.02339272
12.68494814
12.42585078
12.23290492
12.10757176
12.04129599
12.03388029
12.0752885
12.16250203
12.29061073
12.45165788
9.514973413
11.65926165
10.90168348
11.50004936
17.20927371
17.53688849
17.74309084
17.81936303
17.76975383
17.59286008
17.29734774
16.89702248
16.41522945
15.87756099
15.32431386
14.77558102
14.2452533
13.76153283
13.3325826
12.96805807
12.67577706
12.45003109
12.29391015
12.1880848
12.14508432
12.14907976
12.20277252
12.2946441
12.42389766
10.71603706
10.27506709
10.81035471
16.77801915
17.06367684
17.26950541
17.37081298
17.36940719
17.25585347
17.04491545
16.73703199
16.3441049
15.89042442
15.40288991
14.90155997
14.41431864
13.95517966
13.53762505
13.17405303
12.87024164
12.62681664
12.44099671
12.31494976
12.2364885
12.21141938
12.22942233
12.29034995
12.38654731
9.442843942
11.85576815
11.2397833
11.73907688
16.93658847
17.21098824
17.34970149
17.38675377
17.31300661
17.13352043
16.8584686
16.50416652
16.0873171
15.62797712
15.15690025
14.68581225
14.23331215
13.82014715
13.44413442
13.11641737
12.84887123
12.63151752
12.46951623
12.35842715
12.30088276
12.28476997
12.30225443
12.36333996
10.71752963
10.80170431
10.89757542
11.2523209
16.88720983
17.06659749
17.15944737
17.14607456
17.04194876
16.8469956
16.56828312
16.21915515
15.81875756
15.38685675
14.9442885
14.51310134
14.10365626
13.72555006
13.39437883
13.10739427
12.86280748
12.66703763
12.52419427
12.42541691
12.36780367
12.35113413
12.37165802
9.273978863
12.03169503
10.21107368
10.66846671
16.78878911
17.02266679
17.14898234
17.18099295
17.10938196
16.94437539
16.70061526
16.38928545
16.02755178
15.627526
15.21364504
14.80368871
14.40403481
14.02550614
13.6766459
13.37518434
13.11105068
12.8880365
12.71414684
12.58467544
12.49385808
12.44513348
12.42333642
8.765817217
12.32828231
12.15392903
12.78555662
16.70242876
16.89425715
17.0004073
17.01042795
16.93234751
16.77043917
16.53036288
16.23444002
15.89416289
15.53346047
15.14824961
14.7610745
14.38941953
14.03652299
13.71379347
13.42793332
13.17841141
12.96992291
12.79671771
12.6636404
12.56881382
8.453562553
8.94698471
11.97825774
12.41088215
10.42251546
11.19013138
16.97869593
17.03921896
17.01588916
16.90635066
16.71420716
16.46285566
16.15810761
15.81084913
15.45113927
15.08147892
14.70857777
14.35101913
14.02025913
13.71741533
13.44612628
13.20930335
13.00963416
12.8463245
8.992297658
8.105762874
8.819024109
11.60264125
10.51912262
10.86768945
11.55824911
16.67758502
16.70203884
16.65164679
16.52232707
16.33169952
16.08912405
15.80823258
15.50030321
15.17976842
14.85328906
14.53043623
14.21544084
13.91980239
13.64397836
13.39848048
8.57516122
8.277936294
8.733196253
9.401376625
8.822199174
12.18342656
10.92505007
11.58791781
10.62341902
11.22005985
16.45859852
16.3893532
16.26949344
16.09843287
15.87244028
15.61731266
15.3396885
15.04173501
14.74035087
14.44350013
14.15674764
13.88389806
9.777071774
8.193766084
8.776698193
10.87320196
8.556418477
9.628121019
11.01951239
11.6311422
10.88523799
11.26527012
11.09458743
11.57934604
16.18213649
16.04632159
15.87770615
15.66797271
15.42178683
15.16171092
14.8912261
9.921765162
9.51382233
10.08899708
9.535457877
10.08778884
11.25336129
7.366530823
9.461758545
10.96687238
11.49603845
11.27002226
11.6052264
12.37041183
11.78254122
11.35911436
11.28613754
11.19562858
11.22955022
11.39663813
9.564612908
10.0651669
10.22196653
12.04623672
9.602023845
8.575366557
9.520184107
11.88916783
10.51186664
11.28477389
11.60951216
11.2698682
11.20627194
11.07746346
11.19629089
11.3988068
12.40534416
10.15630718
10.82560088
8.770389835
9.512321784
12.54041454
12.3404497
12.24685265
12.19431196
12.17176408
11.99034665
9.1469053
12.16965987
10.51551662
10.94917827
16.66063706
17.18968735
17.62205141
17.9251954
18.08560803
18.0880854
17.93362937
17.61065541
17.13832757
16.53640939
15.84381973
15.09977743
14.35028261
13.63027927
12.9804434
12.42559581
11.98142931
11.65815935
11.44660134
11.34489585
11.33499994
11.41197373
11.55713474
11.75911269
12.01442752
12.31615258
12.65625985
13.02881331
13.42712411
12.43263369
10.60622323
11.04287097
16.78384989
17.36690158
17.83949432
18.16908788
18.36495077
18.37997883
18.22339936
17.88764543
17.40382041
16.7865155
16.07125292
15.30674331
14.5336948
13.79536144
13.11953571
12.54984392
12.09433966
11.75882706
11.53472141
11.4132367
11.39168357
11.45393045
11.59097094
11.79227562
12.04103889
12.33762799
12.66625723
13.02466553
13.41340159
12.7077904
10.86561543
11.3045853
16.76143497
17.32264737
17.78606177
18.12042809
18.31116199
18.33175052
18.18932014
17.87835541
17.41186468
16.81195828
16.11166529
15.3606738
14.59257305
13.8615213
13.19946861
12.63499594
12.17472291
11.82822803
11.59768218
11.47298543
11.43140984
11.48147398
11.61298677
11.79655953
12.0376121
12.32536011
12.64667034
12.99717471
13.37828817
9.144322379
10.67942982
11.52914134
16.57253144
17.11421696
17.55054549
17.85424444
18.03547491
18.06768713
17.93796546
17.65789838
17.23054067
16.67810942
16.02795518
15.32182987
14.60051876
13.90304757
13.25408989
12.69478005
12.23785145
11.88818505
11.64805725
11.51231832
11.47073193
11.5099218
11.61812842
11.79708154
12.02456453
12.29078905
12.59278488
12.92965605
13.29553235
10.07233903
12.03717758
16.45797043
17.04008798
17.51051562
17.85995671
18.0862055
18.14774669
18.05904943
17.8078756
17.3945557
16.86372194
16.23026622
15.5385146
14.81957423
14.11613371
13.46178033
12.89135691
12.42297815
12.05995438
11.79269575
11.63548564
11.56602336
11.57591085
11.66506178
11.81540839
12.02067749
12.26571952
12.54883707
12.86689326
13.21418031
11.20632579
10.61919258
11.40328337
17.06745277
17.61913009
18.03609019
18.30956451
18.43360868
18.37723722
18.1564459
17.7753261
17.25343968
16.6185617
15.92018132
15.19375461
14.47656352
13.80512226
13.21081121
12.71051604
12.31086546
12.02038515
11.82393157
11.72079912
11.69775523
11.75324685
11.87113957
12.0443502
12.26138397
12.51381188
12.8009972
13.12107811
11.52712935
10.12508301
10.78304687
16.81863841
17.33337739
17.74275514
18.0295817
18.16570686
18.14627598
17.97925017
17.65031182
17.1907562
16.61929858
15.97260212
15.28337811
14.60442837
13.96433358
13.37451649
12.87806857
12.47513245
12.16038869
11.94639763
11.82717539
11.77886716
11.80450495
11.88693789
12.02914304
12.2177626
12.4457914
12.71046887
13.00416833
9.246004307
11.00856514
11.25686225
16.53011788
17.05176241
17.47545122
17.78011554
17.92401101
17.94099697
17.80464028
17.51863
17.11154827
16.59514969
16.00200696
15.37162738
14.72941518
14.10978876
13.55487239
13.06339629
12.65245411
12.33399237
12.10225517
11.94555597
11.87254261
11.863896
11.91552547
12.02805655
12.19179143
12.39122418
12.62328324
12.88468162
10.60316843
10.96397497
11.6060267
16.83396986
17.25266586
17.5738624
17.78828457
17.86732913
17.79867399
17.59624993
17.25582584
16.80667935
16.26896292
15.67764841
15.06318459
14.46415717
13.89543111
13.39091212
12.95616128
12.60760666
12.34244758
12.15631591
12.04240355
11.99185765
12.00575691
12.07442655
12.18741887
12.34190875
12.53806176
12.77164323
9.207214737
10.63817842
11.07337001
16.79439989
17.28354514
17.65323056
17.90811859
18.00998892
17.97262541
17.79712399
17.48252127
17.06027648
16.54834875
15.98208989
15.38678007
14.78668787
14.22369359
13.71492866
13.2663324
12.89196058
12.59249144
12.36620479
12.21810333
12.13146251
12.1091887
12.13419418
12.21059942
12.32739126
12.47753851
12.66107688
10.46651488
11.06376342
11.70270921
16.90856352
17.32642608
17.63009242
17.81607901
17.86143184
17.76343332
17.54247258
17.20628217
16.7714636
16.26073226
15.70817076
15.15090921
14.60144887
14.08751825
13.62879031
13.23100103
12.90060444
12.63778384
12.44220312
12.31628793
12.24772337
12.22895007
12.25676076
12.32864209
12.44292244
12.59012166
9.160794668
10.67174199
10.98849865
16.62597706
17.06088442
17.40267094
17.6270374
17.7211242
17.68603242
17.52947425
17.26308951
16.8933701
16.44659291
15.9527194
15.43693787
14.92264297
14.43078136
13.97320254
13.56718476
13.21288428
12.92013005
12.68865822
12.52337426
12.41146198
12.35014373
12.33139421
12.35146164
12.41907233
12.52122257
10.40360115
11.85379989
12.35445532
16.57340567
16.92039462
17.17375588
17.31825509
17.36734087
17.30345219
17.12547384
16.85408995
16.51006815
16.10336936
15.65823967
15.19199149
14.73276014
14.29662428
13.89246413
13.53298077
13.21978336
12.96427026
12.76130457
12.60885135
12.50095537
12.4360745
12.41987445
12.43814235
12.49331268
9.185022562
11.87275598
11.55739363
11.92929797
16.92270428
17.23050922
17.43820665
17.53928907
17.50983776
17.37741233
17.14561312
16.83463641
16.46126488
16.04032126
15.59270304
15.13528421
14.69198862
14.27641459
13.89674065
13.56277399
13.27190953
13.02953494
12.84064184
12.69106258
12.58649164
12.52336547
12.49533724
12.50329587
8.910556761
11.29629814
11.34432372
11.63864953
16.68902548
16.89058614
17.02061226
17.05270979
16.99136369
16.85314475
16.63491029
16.35154769
16.02462801
15.66052213
15.27787487
14.895397
14.51410792
14.155691
13.82741188
13.53268872
13.27206611
13.05207906
12.87552827
12.73781983
12.63583964
12.56832396
12.53350119
8.673304373
10.9853858
11.23152465
11.56730416
16.37104015
16.54840216
16.65852702
16.67652565
16.62373645
16.49426683
16.29970748
16.0434817
15.7519535
15.43471563
15.09811959
14.7546566
14.42165488
14.09761638
13.79917271
13.53566184
13.29840201
13.09208184
12.92218046
12.78254946
12.68030908
12.61070561
8.791809015
11.30533438
11.55768597
12.20228346
16.6468993
16.79182494
16.85372938
16.82481312
16.72476364
16.56698772
16.33550672
16.0620736
15.75486398
15.42475679
15.0939003
14.7587214
14.43978681
14.13589011
13.85190969
13.59323065
13.35804554
13.16017551
12.98806707
8.87311384
8.560593834
8.609423376
11.72442647
12.07215264
10.50198328
11.19381408
16.39944995
16.45849517
16.4426275
16.36855991
16.23010105
16.04350691
15.81959407
15.5573898
15.27693079
14.99058473
14.6958872
14.40409834
14.12582521
13.86016975
13.62085449
13.40395837
9.789960615
8.395668715
9.048344188
8.645064921
11.79406136
10.76841411
11.26775996
10.54650791
11.14723159
16.43198359
16.40007735
16.32607558
16.18726877
16.00283488
15.7760488
15.52409676
15.2562296
14.98777226
14.71504055
14.43897817
14.17265483
10.13008011
9.663114899
9.477130425
11.53477491
9.067492505
9.517090093
10.82449701
11.37045642
10.63820751
11.08090646