/*--------------------------------*- C++ -*----------------------------------*\
| =========                 |                                                 |
| \\      /  F ield         | OpenFOAM: The Open Source CFD Toolbox           |
|  \\    /   O peration     | Version:  v1706                                 |
|   \\  /    A nd           | Web:      www.OpenFOAM.com                      |
|    \\/     M anipulation  |                                                 |
\*---------------------------------------------------------------------------*/
FoamFile
{
    version     2.0;
    format      ascii;
    class       volScalarField;
    location    "3.2711";
    object      p_mixture;
}
// * * * * * * * * * * * * * * * * * * * * * * * * * * * * * * * * * * * * * //

dimensions      [1 -1 -2 0 0 0 0];


internalField   nonuniform List<scalar> 
60268
(
0.1626307051
0.1791279708
0.1915717585
0.2046169208
0.2164778978
0.2273562261
0.2367714785
0.2454445418
0.25146902
0.2564413848
0.2553462605
0.1975801239
0.1793495756
0.191662279
0.2038195843
0.215375544
0.2261214567
0.2360822855
0.2440823174
0.250461178
0.2560623313
0.2557076964
0.1797360424
0.1900017836
0.2017250503
0.2135567267
0.2243405026
0.2338682796
0.2419127148
0.2490216962
0.2160082531
0.3118825368
0.2098731302
0.1878029043
0.1990857684
0.2105696809
0.2208892712
0.2306382886
0.238975343
0.2470848211
0.2557074869
0.226716212
0.1967008318
0.206541716
0.2174219681
0.2271876026
0.1994539347
0.246819435
0.2886497624
0.2289655118
0.1981308859
0.205875945
0.2185021133
0.2755351187
0.1254366513
0.1428397555
0.1560154169
0.1708212794
0.190653982
0.2146062058
0.2307930875
0.2452977531
0.2578724609
0.2680713062
0.2759527517
0.2814275913
0.2844302377
0.2850012169
0.2796538019
0.2734044587
0.2708696626
0.2674949466
0.2612888657
0.2541886007
0.125404982
0.1425227642
0.1560451483
0.1677339937
0.1857093481
0.2015662575
0.2298398586
0.244319675
0.2566786493
0.2667854213
0.2747326097
0.2802494427
0.2831220966
0.2838031135
0.2782997416
0.272692169
0.2702870371
0.2662721604
0.2622953549
0.2538540562
0.1226576891
0.1406458893
0.1542205426
0.1689358355
0.1864138464
0.2014891115
0.2263898053
0.2407089052
0.2532520392
0.2634660713
0.2715672266
0.2771524348
0.2802030411
0.2763709658
0.2828902372
0.2680827523
0.2686595424
0.2654138152
0.227009353
0.3121048182
0.1211995818
0.1387323062
0.1520535611
0.1654066115
0.1779799141
0.1940160706
0.2097183625
0.2356127622
0.2479780638
0.25819047
0.266247784
0.2721645508
0.2753311824
0.277525046
0.258801045
0.270825783
0.2663533484
0.2634459285
0.2666927329
0.1463433447
0.1337885138
0.1487758271
0.1626187496
0.1763027226
0.1907476468
0.2019483291
0.2173821323
0.24123585
0.2516867776
0.2598380519
0.2603428728
0.2692363941
0.268738542
0.2593666079
0.2632599968
0.2631218293
0.2606271785
0.254899714
0.1322554249
0.1451777872
0.1581251168
0.1714496551
0.1846487518
0.1982121359
0.2053123998
0.2264321619
0.2374425474
0.245796951
0.2584037248
0.2444910126
0.2516195499
0.2615258594
0.2599059031
0.2594320992
0.2225716516
0.3077112975
0.1536516763
0.1389176614
0.1538444374
0.1667784276
0.1795313898
0.1916068946
0.2071162993
0.2160651307
0.2249341901
0.2339733416
0.2382269481
0.2492270265
0.2505625338
0.2542028133
0.255702766
0.2191929129
0.3170953483
0.1683012624
0.1463602955
0.1610066373
0.173242353
0.1852424488
0.1975517989
0.2082662717
0.2178343832
0.2263136314
0.2337138603
0.2399535655
0.2447329552
0.2477559671
0.2142353521
0.3113815237
0.1764216778
0.1516694023
0.1654515716
0.1774171533
0.1889821864
0.1994156848
0.2096463008
0.2180555055
0.2254621435
0.2318146002
0.2374640667
0.2067563055
0.3007445807
0.1769057191
0.1623005647
0.1683808584
0.1813663981
0.191464701
0.2009418219
0.2099146338
0.2176281613
0.1933366634
0.2337721897
0.2797945278
0.1949799586
0.1691299085
0.1785309842
0.1880403452
0.1975150383
0.2054252078
0.2574223031
0.1029086734
0.1184838628
0.1310190695
0.1525658039
0.1812470603
0.2021553458
0.2229948969
0.2428482148
0.2612284685
0.2777581188
0.2917834748
0.3027871399
0.3110246498
0.3162285167
0.3180988569
0.3172347109
0.3139165771
0.3082490403
0.3007277145
0.2917958672
0.2817407682
0.2709640411
0.2585515838
0.2465228474
0.1008155118
0.1167247745
0.1306874414
0.1510370887
0.1788800825
0.1998739679
0.2204026322
0.2403522225
0.2588416478
0.2754194773
0.2897075375
0.3009215392
0.3092559688
0.3146166429
0.3165663753
0.3159769728
0.3127009463
0.3073011061
0.2998209713
0.2910346644
0.2810736279
0.2704977648
0.2585434157
0.2459700617
0.09983743986
0.1163776599
0.1291037004
0.1498796162
0.1765711514
0.1971478941
0.217499794
0.2369979707
0.2552457772
0.2714720411
0.2855467899
0.29691714
0.3052837012
0.3108348177
0.3131676864
0.3126985457
0.3097527837
0.3045200819
0.2974785012
0.2891077141
0.2796087574
0.2655681705
0.264176638
0.2426825174
0.0982749546
0.1141144853
0.1277000315
0.1472944198
0.172693844
0.1928633607
0.2128824782
0.23220874
0.2502361613
0.2666250192
0.2804386651
0.2915717019
0.3002016673
0.3057328623
0.3080944518
0.3081535142
0.3056121804
0.3009701995
0.2943279244
0.2862368948
0.2769923633
0.2684508459
0.2449535055
0.2482486172
0.1186628549
0.1096414013
0.1227456556
0.1392736525
0.15738822
0.1866342965
0.2063421426
0.2252339124
0.2427530678
0.2587002448
0.2724001971
0.2839150363
0.2924499403
0.2981808046
0.3014170716
0.301560767
0.2995000049
0.2954738575
0.2895144282
0.2821378138
0.2735659994
0.2625635013
0.2504616029
0.2426504951
0.1094436631
0.1223855521
0.1380781635
0.1537506779
0.1799219992
0.1991773219
0.2174511348
0.2346474768
0.2502346554
0.2638203314
0.2750003347
0.283600563
0.2896854392
0.2930693546
0.2939509485
0.2924618102
0.2890118017
0.2837266091
0.2770607305
0.2653756884
0.2651566419
0.2456384754
0.240360788
0.124355286
0.115127774
0.1281895625
0.1445118054
0.1623571066
0.1893302708
0.2070162738
0.22383657
0.2390290035
0.2525955229
0.2639910588
0.2728339832
0.2792010751
0.2832768635
0.2848477854
0.2840859312
0.2813367656
0.2768561767
0.2671503825
0.2729851997
0.2405914208
0.2500795955
0.2188424324
0.112899664
0.1260069358
0.1389843356
0.1515886115
0.1700000552
0.1963755868
0.2125969084
0.2275640937
0.2405025409
0.2518627327
0.2609729256
0.2677031991
0.2719948149
0.2742450376
0.2741416298
0.2722209542
0.2644095258
0.2719572754
0.2418304995
0.2511718684
0.2131987945
0.2911818257
0.1289346321
0.1177085797
0.1328411166
0.1456279691
0.1579549415
0.1758450341
0.200390173
0.2147287583
0.2278263101
0.2388088724
0.247999743
0.2547381346
0.2595295498
0.2623425441
0.2629086929
0.2573752959
0.2666085028
0.2389989717
0.2497112522
0.2444154022
0.2503545968
0.1417175965
0.1244423721
0.1388061648
0.1514964869
0.159953156
0.1845679616
0.1915593223
0.2139909154
0.2249941951
0.2342756545
0.2414377898
0.2467405931
0.2443434941
0.2509073146
0.2535028703
0.2328954271
0.2455359523
0.2420629027
0.2085447729
0.2861019295
0.1484375538
0.1289213346
0.142912897
0.1575272914
0.1643196247
0.1735145221
0.1941196825
0.2039088693
0.212836293
0.220121793
0.2273260404
0.2375390314
0.2236215758
0.230253784
0.2385316259
0.236824813
0.2049108694
0.2926783626
0.1528930504
0.1324449909
0.1460856818
0.1561858724
0.1703358365
0.1783838467
0.1876974506
0.1969015612
0.2044915436
0.2108910874
0.2141322774
0.2243419391
0.2255258772
0.1972617791
0.2384256198
0.2762307751
0.1524184613
0.1407064749
0.1451794483
0.1589179921
0.1679071504
0.1776773295
0.1858056678
0.1939887837
0.2005516142
0.2069438682
0.1837289912
0.2212389112
0.2617702685
0.1659461551
0.1450677827
0.1533234871
0.1627493849
0.1713563162
0.1799897572
0.1874666761
0.1938579857
0.2418210202
0.08052945778
0.09256766939
0.1048505168
0.124380681
0.1526885504
0.1753623818
0.1989477275
0.2229413367
0.2467395295
0.2700001901
0.2915334201
0.3109200489
0.3271623965
0.3398789426
0.3485432638
0.3535921125
0.3545420061
0.3518778022
0.345993413
0.3374104047
0.3267925115
0.3148720169
0.3017782815
0.2880571383
0.2742100394
0.2603663291
0.2468234634
0.07896456336
0.09211306281
0.1039393016
0.1236599363
0.1512396805
0.1739069291
0.1972459997
0.2211727213
0.2448145012
0.2677228049
0.2892512092
0.3082672956
0.3244309393
0.3371969766
0.3459260529
0.3508143587
0.3519084156
0.3493882978
0.3439122118
0.3356846783
0.3253611788
0.3134961409
0.3005966843
0.2872794633
0.2735673364
0.2599612915
0.2466371328
0.09592006
0.08974702074
0.1034871177
0.1224421732
0.1489973226
0.1711544279
0.1943638167
0.2178609182
0.24149986
0.2642766964
0.2854176518
0.3044554935
0.3206338037
0.3332940843
0.3421260043
0.3474653005
0.3486768165
0.3465542872
0.3410203357
0.3331442364
0.3232139344
0.3117832041
0.2993086587
0.286154007
0.2728138976
0.2593943887
0.246220163
0.08934084374
0.1022635405
0.120512594
0.1457707015
0.1675688462
0.1905155499
0.2136390467
0.2367564925
0.2592282975
0.2802053108
0.2991078609
0.3152394867
0.327826576
0.3368860318
0.3423275729
0.3438917126
0.3419417771
0.3372110582
0.3298922127
0.3203451173
0.309508582
0.2974142464
0.2846809468
0.2716281842
0.2585991636
0.2456767086
0.08405963711
0.09811845358
0.1136581658
0.1313168035
0.1621209691
0.1844028272
0.2068585791
0.2294387425
0.2514264036
0.2721269681
0.2904395407
0.3064696318
0.3192063303
0.3285085705
0.334029068
0.3362834916
0.3349841103
0.3307507672
0.3242873719
0.3157099649
0.305419603
0.2939945136
0.2818998608
0.269423171
0.2568624454
0.244387758
0.08205390945
0.09755892112
0.1117180834
0.1278957937
0.1554518002
0.1769673696
0.1986773006
0.2202638465
0.2416329684
0.2618613392
0.279944699
0.2956432803
0.3084557492
0.317894833
0.3239966795
0.3267935631
0.3263521675
0.3230121238
0.3172918857
0.3095243567
0.3001900539
0.2897172868
0.2783210698
0.2665421511
0.2546367446
0.2426402213
0.09987264763
0.0922151974
0.1044289177
0.1203671643
0.1387026327
0.1696296165
0.1907155249
0.2117276113
0.2319299863
0.251080718
0.2687973619
0.2840339878
0.2963369975
0.3058675399
0.312239255
0.3155878714
0.3158591101
0.3133216155
0.3085057635
0.3017971765
0.2934538284
0.2838712109
0.2735511972
0.2626757226
0.2514626441
0.2398596018
0.09018607725
0.102514346
0.1168446473
0.132770353
0.1593535352
0.1792198262
0.1994149596
0.218823952
0.2373077526
0.2543985966
0.2693905148
0.2818580604
0.2917303246
0.2984813796
0.3023022427
0.3035343135
0.3021162912
0.2984271095
0.2927514637
0.2855485784
0.2770749092
0.2677997418
0.2579659204
0.2440617095
0.2507795434
0.1036102707
0.0951892305
0.1072916179
0.1226948114
0.1405063745
0.168576959
0.1875660801
0.2063408637
0.2241370797
0.2403155078
0.2550170882
0.267472092
0.2773699368
0.284454359
0.2889200813
0.290965535
0.2903280758
0.2878534132
0.2833468466
0.2772684485
0.2700341952
0.2617364962
0.2527833167
0.2454065749
0.2235364192
0.1141308541
0.1014419275
0.116449192
0.128357614
0.1469256498
0.1744254976
0.1920125957
0.209103327
0.2250110158
0.2390885728
0.2514022865
0.2614026029
0.2690245226
0.274313533
0.2770969062
0.2776761039
0.2762843145
0.2730605808
0.2681794852
0.2620648509
0.2549347318
0.2428592663
0.2446187083
0.2244489146
0.09859546734
0.1105974763
0.1221349464
0.1340388025
0.1523303955
0.1785565837
0.1946657761
0.209674431
0.2235479138
0.2353934218
0.2454571772
0.2533590572
0.2590042436
0.26255574
0.2640766366
0.2636204522
0.2614705911
0.2576340822
0.2526955598
0.2424251962
0.2492309785
0.2195299979
0.2271171267
0.1110214176
0.1001702856
0.1144145105
0.1260725327
0.137402339
0.1548079915
0.1787952385
0.193051606
0.2062279579
0.2179280107
0.227842554
0.2358870027
0.2421440504
0.2463040435
0.2487216843
0.2492769168
0.2481341524
0.240457753
0.242037183
0.2418759905
0.2192082093
0.2006716173
0.2357067666
0.1203868324
0.1045229681
0.117763839
0.1290961186
0.136947024
0.1598012361
0.1670490103
0.1887152036
0.2001464368
0.2099690432
0.2181884614
0.2246637064
0.2295124513
0.2325848125
0.2285423384
0.2333039942
0.2362646919
0.2177527193
0.2217736038
0.1980068616
0.278054413
0.1196820173
0.1119548153
0.1167464279
0.1330786896
0.1390857963
0.1475221924
0.1668951383
0.177021817
0.1855455464
0.1938104767
0.2002616702
0.2063193151
0.2112802486
0.2204069044
0.2061792427
0.2125253245
0.2204738741
0.1889002091
0.2709069195
0.1379585523
0.1187604407
0.130556394
0.1425579906
0.1502432414
0.1593049527
0.1679812786
0.1759843294
0.1829662591
0.1893535281
0.194473548
0.1971098605
0.2064798259
0.1794834346
0.2160432045
0.2522599145
0.1353423436
0.1183805529
0.1326982452
0.1364536542
0.1481347405
0.1560433511
0.1635842301
0.1712507553
0.1776070626
0.1591226056
0.1922632762
0.1905706396
0.235806534
0.1550075198
0.1342974657
0.1420595096
0.1496168786
0.1569633472
0.163716478
0.2064261939
0.0692642404
0.08027214524
0.09635504224
0.1194323251
0.1413849298
0.1650056372
0.1908117071
0.2180650752
0.2458323393
0.2735862196
0.3006030715
0.3262456128
0.3488515562
0.3679519752
0.382156053
0.3914929084
0.3959240245
0.3952528533
0.3899296766
0.3806966155
0.3684528953
0.3539276907
0.3379131861
0.321032355
0.3038061629
0.2868277765
0.2702633836
0.2544849773
0.2394495774
0.08336647537
0.07904910867
0.09579103057
0.1182801299
0.1400131377
0.1636760515
0.1891298564
0.2160336843
0.2435306076
0.2712821106
0.2979760157
0.3232405401
0.3456019779
0.3642939658
0.3788242017
0.3882878033
0.3927306556
0.3922441562
0.3871018366
0.3782692362
0.3663428946
0.3522289136
0.3363735565
0.3198366532
0.3029788614
0.2862027564
0.2699366817
0.2541611029
0.2392710528
0.07769762757
0.09263924828
0.1085064873
0.1381477121
0.1615889049
0.1865484538
0.2131813981
0.2404482064
0.2678059042
0.2945224836
0.3193512352
0.3415772358
0.3600901824
0.3746169494
0.3839371367
0.3886351266
0.3883942769
0.3835994906
0.375107346
0.3637269009
0.3499223511
0.3346949534
0.3184658511
0.3019854134
0.2855351922
0.2694251295
0.2539592959
0.2391916495
0.07567181419
0.09107410779
0.1063916787
0.1340680783
0.1568966816
0.1811957444
0.2069433363
0.2338586607
0.260476331
0.2866207465
0.3114388822
0.3335270806
0.3522246096
0.3666960779
0.3766383094
0.3817173791
0.3821680369
0.3781109812
0.3704697951
0.3597123183
0.3467424947
0.332147777
0.3165523628
0.3005056776
0.2844812901
0.268842718
0.2537318151
0.2392326962
0.07338105312
0.087037386
0.1048661052
0.1301711548
0.1522034107
0.1758774611
0.2009346121
0.2265450342
0.2525716255
0.2778804147
0.3021463768
0.3237915463
0.3420832779
0.3565624477
0.3666295631
0.3722336276
0.3733375301
0.3701060367
0.3634123958
0.3538495388
0.341889818
0.3280771978
0.3132900674
0.2980227938
0.2827113527
0.267619872
0.2528989697
0.238801094
0.07072648523
0.08475110527
0.1017330679
0.1246019306
0.1459425194
0.1688327539
0.1931866817
0.2182725385
0.2434755368
0.2681860158
0.291634948
0.3129292887
0.3310355353
0.3453019446
0.3558036424
0.3617437627
0.3635863271
0.3612410963
0.3555036306
0.3467865598
0.3358118257
0.3231616081
0.3093438164
0.2949713979
0.2804101885
0.2659572734
0.2517149106
0.2380731748
0.08613094239
0.07853936802
0.09471915299
0.1117915266
0.1393814343
0.1612390484
0.1843978413
0.2083706911
0.2327668622
0.2566313464
0.2793180555
0.2999438111
0.3178603558
0.3321047557
0.3426237155
0.3491002872
0.3515236284
0.350366764
0.3456933311
0.3380347288
0.3282860398
0.3167652504
0.3040889301
0.2907797705
0.2771566463
0.2635113619
0.2500535637
0.2369314677
0.07960788805
0.09197603395
0.1061624019
0.1306586574
0.15112486
0.1730474964
0.1957836914
0.2189156999
0.2416932503
0.2633924283
0.2830371876
0.3004587824
0.3147084547
0.3256591119
0.3327379126
0.3360886739
0.3360212487
0.3327216492
0.3267055237
0.318407553
0.3083221888
0.2970577632
0.2851045863
0.2726410611
0.2599874515
0.2475215619
0.2352180361
0.08983163118
0.08167107513
0.09820487275
0.1150362258
0.141727687
0.1626959756
0.1839183465
0.2058279766
0.227267655
0.2479010117
0.2669117624
0.2837232595
0.297808112
0.3087404059
0.3162488422
0.3205264297
0.3214626719
0.3193458177
0.3147495159
0.3079622269
0.2994089715
0.2896855283
0.278952578
0.2677270726
0.2561459742
0.2445631426
0.2331535527
0.08184476233
0.09314089681
0.1044722235
0.1226924701
0.1512412518
0.1713252059
0.1918416178
0.2120615684
0.2312800287
0.2496980878
0.2660883739
0.2797743025
0.2908404373
0.2989538911
0.3039821312
0.3060577387
0.3053262485
0.3022100659
0.2970016097
0.2900488154
0.2816066796
0.2722944503
0.2622066925
0.2518562762
0.2412081852
0.2305791125
0.09237220915
0.08542101664
0.1007608981
0.1155294051
0.1393258234
0.1580174069
0.1770951632
0.1962122186
0.2145973901
0.2317102642
0.2473752903
0.2609714576
0.2721461358
0.2806465105
0.2865454008
0.2895136928
0.2901862239
0.2883640801
0.2845328012
0.2790386799
0.2722734794
0.2643714793
0.2556810878
0.2464524021
0.236920425
0.2273458543
0.1011218461
0.08762090606
0.1044296618
0.1208600596
0.1444633475
0.1619238613
0.1798703145
0.196993809
0.2132728321
0.2281703619
0.2413005806
0.2523241981
0.2611304872
0.2675268839
0.2715620103
0.2732035836
0.2728454572
0.270552066
0.2666322851
0.261212151
0.2548932575
0.2476519039
0.2398716678
0.2271240534
0.223020046
0.08694978243
0.09780075731
0.1079434309
0.1245145531
0.1474860108
0.1637218396
0.1797889752
0.194915807
0.2089933107
0.22186919
0.2328211529
0.2416981873
0.2485447764
0.253189104
0.2558998468
0.2566834128
0.2558389451
0.2532544436
0.2494264294
0.2443944519
0.2384987645
0.2279312632
0.2341990901
0.2091919523
0.09662290788
0.08753399228
0.1001759906
0.1085393028
0.1301948014
0.1385855405
0.1621618072
0.1767450947
0.1900641434
0.2020792856
0.2127026795
0.2215359094
0.2288859067
0.23426032
0.2377520262
0.2396975501
0.2399571835
0.2388519721
0.2363475175
0.2326675579
0.2239269218
0.2312316839
0.2057549357
0.194994379
0.09979892112
0.09367937059
0.1017420198
0.1109632347
0.1223844794
0.1383566821
0.158885318
0.1714116621
0.1829934116
0.193198284
0.2021796977
0.2095672639
0.2153965551
0.2197732923
0.222448434
0.2237812585
0.2238220168
0.217157501
0.2201722686
0.2215075356
0.2017642043
0.1859907002
0.2667176587
0.1168310712
0.1006834025
0.1132403735
0.1194530272
0.1380089752
0.1500351112
0.1555483217
0.1740609489
0.1829266238
0.1902250557
0.1964112222
0.201222641
0.199201202
0.2047774422
0.2043345026
0.2104488079
0.1960835333
0.1741314997
0.2141989137
0.2455896823
0.1135863742
0.1050464158
0.111839178
0.1217382315
0.1280004388
0.1348160915
0.1517950271
0.1595362528
0.1667005593
0.1729445146
0.179219933
0.1879077313
0.1783344715
0.1871056646
0.1888133753
0.1725833703
0.2442753774
0.1241414978
0.1145635896
0.1156839017
0.1300352837
0.1352640091
0.1428488945
0.1496575285
0.156443358
0.1616246881
0.1657275799
0.1541067558
0.1816555252
0.178961328
0.2209443999
0.1315106064
0.1155379552
0.1213406928
0.1279832813
0.1356460092
0.142401967
0.1477241012
0.1533115112
0.1928299563
0.06544399221
0.08212492665
0.1033439935
0.1245644239
0.1484052757
0.1748368128
0.2033834628
0.2343213427
0.2663461554
0.298632535
0.3303815343
0.3606710785
0.3876838844
0.4100894421
0.427045246
0.437735532
0.4417514067
0.4394214127
0.4310869955
0.4180088373
0.4010940692
0.3816801859
0.3608407061
0.3395152355
0.3183576735
0.2978709567
0.27836946
0.2600273873
0.2429866496
0.2272214899
0.06481748964
0.07988665444
0.09511385417
0.1239968663
0.1477145626
0.174067073
0.2026270956
0.2332553869
0.2650453315
0.2973300087
0.3288139512
0.3584438875
0.3852388438
0.4076165575
0.4245090973
0.4350564462
0.4391741898
0.4367168742
0.4286208889
0.4157675953
0.3993039554
0.3802324639
0.3597553888
0.3386947369
0.3176701581
0.2974789499
0.2781827754
0.2599257573
0.2429200059
0.2272876717
0.06585884504
0.07920808898
0.09421233178
0.1217792199
0.1450403465
0.1708996329
0.1990871183
0.2286955389
0.26014003
0.2917703973
0.3229454883
0.35253426
0.3788617476
0.4010889824
0.4179831041
0.4287817015
0.4333193163
0.4316842827
0.4241023347
0.4118222332
0.3960812956
0.3776762822
0.3578401449
0.3373046472
0.3167393414
0.2968241381
0.2778295577
0.2598897619
0.2430382876
0.2274595065
0.06353699478
0.07635480383
0.09326749745
0.1188390662
0.1417244343
0.1670049873
0.1946119005
0.2239181197
0.2545033077
0.2855339975
0.3160529997
0.3449540502
0.3711757098
0.3930495232
0.4100659251
0.4210645692
0.4258641501
0.4247079719
0.4180269358
0.4066985839
0.3916440603
0.3742734671
0.355143864
0.3353386313
0.3156156325
0.2961748458
0.2774742467
0.2598309053
0.2432877
0.2278826469
0.06250852302
0.07476354078
0.09134366414
0.115253983
0.1375596726
0.162204917
0.1889412662
0.2174048974
0.2473449278
0.2774669198
0.307188254
0.3357695695
0.3615659303
0.383219739
0.3998552546
0.4110292839
0.4162409389
0.4158704299
0.4099048479
0.3995724229
0.3860390413
0.369553301
0.3514241717
0.3325337129
0.3135138646
0.2948121152
0.2767346601
0.2595470925
0.2434328557
0.2283558169
0.07538880553
0.07039211502
0.08832965684
0.1103716955
0.1317551802
0.1551957957
0.1809899186
0.2082343292
0.2371070652
0.2662227612
0.2948735975
0.3223805268
0.3473510749
0.3687980807
0.3854823053
0.3970986479
0.4030156302
0.4037445274
0.399051621
0.3902622419
0.3778134572
0.3629728837
0.3461639226
0.328600178
0.3107569632
0.2928961938
0.2755591732
0.2589631669
0.2432762324
0.2285332995
0.06835765551
0.08220111087
0.09796210313
0.1255102881
0.1481422745
0.1727161754
0.1988867682
0.2263717245
0.2543407786
0.2822861189
0.3086955465
0.3328004607
0.353659121
0.3702542004
0.3819363299
0.3886369095
0.39010292
0.3868498773
0.3794840708
0.3685635389
0.355132927
0.3398959483
0.3235840994
0.3068829065
0.2902229119
0.2738265545
0.2578922595
0.2427154359
0.2285870885
0.06541185332
0.07973243264
0.09373907636
0.1181086438
0.1396417802
0.1628370027
0.1874957419
0.2134878114
0.2400661224
0.266543568
0.2917091384
0.3149483773
0.3351045435
0.351517835
0.3636259765
0.3708232264
0.3735373528
0.3718197697
0.3659290304
0.3568614405
0.3452121356
0.3316442095
0.3170233374
0.3018119703
0.2862798507
0.2709694863
0.2560688151
0.2417743053
0.2282088425
0.07727660462
0.07014499807
0.0860091359
0.1022639978
0.13013678
0.1519562108
0.1751777472
0.1995290709
0.2244477929
0.249436433
0.2732057675
0.2952984641
0.314972936
0.3312853421
0.3434191798
0.3515501541
0.3552773443
0.3548935126
0.3508490174
0.34364479
0.3339522906
0.3223329141
0.309478111
0.2958931347
0.2818305432
0.2677610516
0.2538713353
0.2404271456
0.2275001546
0.07193180221
0.08334168746
0.09736505945
0.1214607463
0.141817506
0.1638357117
0.1866056988
0.20996786
0.2335136346
0.2560227388
0.2771105407
0.296152508
0.3118662265
0.3242040275
0.3327928068
0.3375456807
0.338410695
0.3358587683
0.3304079134
0.3224859489
0.3128129551
0.3016582448
0.2894786106
0.2768414841
0.2639891126
0.2512553335
0.238752942
0.2266519309
0.07959358572
0.07199851678
0.08761401318
0.1036336383
0.1295372054
0.1499440415
0.1710360783
0.1926500283
0.2146160376
0.2359942256
0.2560053348
0.2740631754
0.2896938153
0.3021200987
0.3112078393
0.3170121396
0.3192736926
0.3185926229
0.3150671137
0.3091266515
0.3013043885
0.2919934681
0.2815231316
0.2705084458
0.259170075
0.247565887
0.2361397297
0.2249736238
0.07224502919
0.08227956195
0.09295788759
0.1100449145
0.1370786288
0.1566116347
0.1766942162
0.196876126
0.2166788332
0.2353836159
0.2524148487
0.267449297
0.2799408062
0.2894163401
0.295889348
0.2995322601
0.3001415922
0.2982917761
0.2942604277
0.2881148767
0.2807067204
0.2722002654
0.2627867021
0.252961059
0.2427855686
0.2325311027
0.2223278401
0.07950389868
0.07383025445
0.08804003403
0.1015648355
0.1233633406
0.1411745508
0.1594764172
0.178089859
0.1964329954
0.2139828195
0.2301677021
0.2445295858
0.2568062815
0.266636342
0.2739063633
0.2785905771
0.2805787947
0.2803820131
0.2781029594
0.2739654376
0.2683076162
0.2614599984
0.2538362978
0.245413631
0.236645093
0.2276726334
0.2186545506
0.08829576129
0.07517708529
0.09056238327
0.1056274198
0.1270094713
0.1435220088
0.1604409106
0.1771182828
0.1933223616
0.2086182218
0.2222019711
0.234192721
0.2439522724
0.2516505393
0.2571184138
0.2603412221
0.261443222
0.2606710317
0.2582754199
0.2543454345
0.2493306396
0.243292454
0.2365668291
0.2293499897
0.2216945672
0.213398632
0.09084006041
0.08021894654
0.09090179776
0.1102510431
0.1193315077
0.1429945956
0.1584282249
0.1732678397
0.1872834118
0.2002690703
0.2117861369
0.2216615445
0.2294823754
0.2356370227
0.2398274739
0.2422244886
0.2428255419
0.2420096859
0.2396672666
0.2361997214
0.2318074419
0.2266359552
0.2207833683
0.2111619392
0.2179225354
0.09361924516
0.08434140072
0.09316178983
0.1035988653
0.1192667883
0.1404139141
0.1541185954
0.1671249132
0.1792204148
0.1903291664
0.2000768493
0.2080103549
0.2146387503
0.2196333228
0.223042967
0.2248399215
0.2251306921
0.2243351488
0.2223287501
0.21932192
0.2108403161
0.2109808171
0.210613989
0.189136894
0.09716683384
0.08365053152
0.09517527258
0.101927367
0.1214927147
0.1282660157
0.1482624697
0.1595385301
0.1700639236
0.1793502674
0.1873977786
0.1942168519
0.1995418676
0.2036161519
0.2064358677
0.2080207673
0.2082778075
0.2074868028
0.2013090413
0.2107354417
0.1910079743
0.1688522305
0.205183494
0.09514003078
0.08825483234
0.09438876943
0.1021070795
0.1093508619
0.1283364172
0.1337389097
0.1506311449
0.159603607
0.167621734
0.1746175838
0.1802111241
0.1847757146
0.1881879206
0.1851792277
0.1903230072
0.1891930894
0.1946153935
0.1801272538
0.1684661676
0.2365021858
0.1033286505
0.09537717111
0.1010053171
0.1079492723
0.1139491889
0.1294445886
0.1369655303
0.1442876803
0.1505824911
0.1560237187
0.1618383701
0.1665605985
0.1746266335
0.1653205336
0.1733331112
0.1532635504
0.1872305752
0.2162133098
0.1107911931
0.09636501863
0.1101241916
0.1111951549
0.120943871
0.1271504939
0.1333657025
0.1397891794
0.1449331169
0.1498831837
0.1344858011
0.1656222318
0.1614816202
0.2006281662
0.1241316781
0.1084140169
0.113983654
0.1200275266
0.1257592493
0.1316537884
0.1366019534
0.1726608698
0.05560424317
0.06599504354
0.08150531959
0.1064638755
0.1294596439
0.1555603169
0.1846945871
0.2169276873
0.2514350487
0.2884148296
0.3257520726
0.3625490966
0.3983106581
0.4299987454
0.4568060176
0.4767627205
0.4890529582
0.4926381827
0.4882786222
0.4761224649
0.4579096711
0.4352843262
0.4100081376
0.3837008646
0.3571923458
0.3314947081
0.3071400364
0.2844233359
0.2635235407
0.244464497
0.2271451077
0.2114099443
0.055230299
0.06556344542
0.08118691974
0.1054059821
0.128288851
0.1540810714
0.1828998716
0.2150638825
0.2493951998
0.2858622438
0.3229000089
0.3597763115
0.3947655581
0.4262627083
0.4528217599
0.4730190688
0.4852666179
0.4894958276
0.4852005362
0.4734297294
0.4556698137
0.43362477
0.4087246126
0.3825973333
0.35647684
0.3309910805
0.3068472266
0.2842975038
0.263443943
0.2444244913
0.2273208369
0.2116917696
0.05479191509
0.06523042366
0.08053597889
0.1040935412
0.1264467771
0.1521668141
0.180779966
0.2122719832
0.2465580732
0.2819538345
0.3188219252
0.3552456605
0.3898138499
0.4212764512
0.4475984286
0.4677100904
0.4799407703
0.4844132704
0.4804997844
0.469298407
0.4522358609
0.430727388
0.4066565662
0.381249852
0.3555602388
0.3304448407
0.3067299935
0.2844068425
0.263877323
0.2450596007
0.2278448992
0.2121838152
0.06684910395
0.0625140676
0.07914604973
0.101725922
0.1236937742
0.14881371
0.1767328351
0.2076760388
0.2409063637
0.2758772299
0.3119221376
0.3475558223
0.3818735053
0.4128824715
0.4390853355
0.4591304502
0.471653173
0.4763526081
0.4732200016
0.4629567044
0.4468834882
0.4266311533
0.4034057939
0.3789022835
0.3540438491
0.3297102148
0.3063229008
0.2844719003
0.2642217693
0.2456762655
0.2287029498
0.2132803731
0.06191951636
0.07665817803
0.09765503054
0.1188057323
0.1428562866
0.1697266551
0.199648397
0.2316540704
0.2658459309
0.3006496172
0.3357347553
0.3688663971
0.3993241742
0.425452207
0.4453903736
0.4582307318
0.4638726091
0.46185633
0.4530048581
0.4385399042
0.4198402292
0.398258123
0.3750016823
0.3513291752
0.3279739488
0.3055096682
0.2842737834
0.2645301031
0.2462680216
0.2294995823
0.2142141506
0.05709063428
0.07187495503
0.08656029062
0.113655332
0.1370822703
0.1628223698
0.19135814
0.2220789302
0.2547043233
0.2883664754
0.3219992924
0.3540271454
0.3837367921
0.4088302909
0.4287578605
0.4420017014
0.4484388323
0.4475874854
0.4405308347
0.4277476465
0.4109586411
0.3911237707
0.369558063
0.3474760161
0.3253526712
0.3038777647
0.2835818834
0.2644167467
0.2466507859
0.2302745717
0.2152551613
0.05733641624
0.07006429452
0.08385650149
0.1085250465
0.1303997267
0.1552678976
0.18274901
0.2121855314
0.2431770117
0.27556723
0.3078831894
0.3389639421
0.3676091248
0.3921672047
0.4119153338
0.4253406141
0.4323681768
0.4330521157
0.4273780269
0.416472793
0.4014995218
0.3835352402
0.3636268097
0.3431433455
0.3223708025
0.3021319007
0.2825028062
0.2641039506
0.2469561115
0.2309959509
0.2163475419
0.06742492173
0.0634310893
0.08059064375
0.1018604852
0.1224518355
0.1460148238
0.171847843
0.1993857914
0.2288293585
0.2595690265
0.2904591258
0.3202832738
0.3476806335
0.3716926796
0.3913097851
0.4054594481
0.4133191429
0.4150186007
0.4113293285
0.4025200291
0.3896149777
0.3737647516
0.356095981
0.3372669705
0.3181419391
0.2991420774
0.2808002444
0.26334369
0.2468497086
0.2314473002
0.2172129799
0.06102885291
0.07393001997
0.08870624486
0.1146463251
0.1366733966
0.1606423582
0.1867063877
0.2143912759
0.2429866542
0.2721107149
0.30020197
0.3263909147
0.3493940098
0.3686484226
0.3828876557
0.3915986571
0.3948181477
0.3927658574
0.3860790041
0.3756588894
0.362251183
0.3467516376
0.3300329577
0.3127057456
0.2953693733
0.2783848229
0.2619015786
0.2464069852
0.2317727188
0.2180863691
0.06901853304
0.06838971849
0.08343211762
0.1058480566
0.1259428032
0.1484097711
0.1726239149
0.1985835424
0.2250861322
0.2523997181
0.2789204622
0.3038270119
0.3262058115
0.3449986393
0.3593491931
0.368934102
0.3737675133
0.3735591682
0.3691282563
0.3609268383
0.3498423497
0.3367956454
0.3221450126
0.3066191193
0.2909554045
0.2753750569
0.2601977998
0.2455605274
0.2316268328
0.2186249904
0.06265434147
0.07592437246
0.09068967904
0.1156967858
0.1362538061
0.15848329
0.1824023762
0.2071588253
0.232083862
0.2570839206
0.2802121121
0.3013358481
0.3194516872
0.3339611748
0.3442264332
0.3500527703
0.3517160343
0.3494920447
0.3436875332
0.3352810104
0.3245932874
0.3123010087
0.2989918959
0.2850671509
0.2710838393
0.2572199407
0.2437657963
0.2308214237
0.2184026293
0.07113226751
0.06930793356
0.0843670384
0.1051537886
0.1239788247
0.144250208
0.1659131995
0.1886972904
0.2117164838
0.2346709982
0.2565884329
0.2765928499
0.2939331814
0.3082604094