/*--------------------------------*- C++ -*----------------------------------*\
| =========                 |                                                 |
| \\      /  F ield         | OpenFOAM: The Open Source CFD Toolbox           |
|  \\    /   O peration     | Version:  v1706                                 |
|   \\  /    A nd           | Web:      www.OpenFOAM.com                      |
|    \\/     M anipulation  |                                                 |
\*---------------------------------------------------------------------------*/
FoamFile
{
    version     2.0;
    format      ascii;
    class       volScalarField;
    location    "3.2711";
    object      p_N2;
}
// * * * * * * * * * * * * * * * * * * * * * * * * * * * * * * * * * * * * * //

dimensions      [1 -1 -2 0 0 0 0];


internalField   nonuniform List<scalar> 
60268
(
0.1276772259
0.1406811717
0.1504372349
0.1606150766
0.1699017514
0.1784067304
0.1857095372
0.1925271267
0.1971919838
0.2011334371
0.2001864212
0.1551141977
0.1408550258
0.1504483871
0.1599759912
0.1690348682
0.177447427
0.1852174447
0.191457504
0.1964140139
0.2007780311
0.2004548673
0.1410858601
0.1491255931
0.1583620368
0.1676235382
0.1759735479
0.1834324732
0.1897539707
0.1953403516
0.1693959347
0.2444734418
0.1648527052
0.1475198727
0.1562441938
0.1652067826
0.1733353574
0.1809217133
0.187450253
0.1937765055
0.2005674644
0.1779333985
0.1543487845
0.1621018175
0.1706015634
0.1782276645
0.1564479872
0.193553076
0.2262188059
0.1796262567
0.1554088274
0.1614273798
0.1714327192
0.216056253
0.09857183921
0.1122069953
0.1225510745
0.1342542778
0.1497680657
0.1686772558
0.1812941547
0.1926132089
0.2024972711
0.2104239667
0.2165778571
0.2208489736
0.2231888945
0.2235886408
0.2193086041
0.2143528116
0.2123248579
0.2096553504
0.2047193098
0.1991367498
0.09859409158
0.1119836834
0.1225964695
0.1317727946
0.1459065966
0.1582932999
0.1804796532
0.1918437372
0.2015465664
0.2094140662
0.2155723969
0.2199049675
0.2221072927
0.2226104129
0.2182703051
0.2137933487
0.2118855834
0.2086713558
0.2055276284
0.1988115843
0.09634007693
0.11041704
0.1211771657
0.1327210251
0.1464413333
0.158282993
0.1778144072
0.1890221171
0.1987839445
0.2068125963
0.2131187434
0.2174940158
0.2198784383
0.2167834537
0.2218143797
0.2101420423
0.2105976392
0.2080079468
0.1778711114
0.2444275488
0.09518207349
0.108937165
0.1194288031
0.1298943033
0.1397874583
0.1523987726
0.164734358
0.1849314342
0.1946981796
0.2026293856
0.2089780448
0.2135686645
0.2160395274
0.2176745356
0.2029167305
0.2123265529
0.2087950135
0.206447049
0.2089524416
0.1149964994
0.1050833975
0.1168447574
0.1277410944
0.13847003
0.1498063066
0.1585471079
0.1706468838
0.189403298
0.1975694167
0.2039540706
0.2043156878
0.2112122736
0.2107607765
0.2033667286
0.2064065038
0.2062481137
0.2042530797
0.1996621478
0.1038878551
0.11404106
0.124238636
0.134632975
0.1450164899
0.1555609938
0.1612093595
0.1777781431
0.1863758692
0.1929085344
0.2027270099
0.1917861392
0.1973318818
0.2050663336
0.20375996
0.2033968428
0.1744237592
0.2410563827
0.1207414025
0.1090486507
0.1207881624
0.1309264759
0.1409501229
0.1504361293
0.1625840922
0.1696178952
0.1765341037
0.1835732458
0.1868736388
0.1955050433
0.1965016401
0.19934444
0.2004580458
0.1718159745
0.2484829964
0.1322007318
0.1149160868
0.126417786
0.1359855631
0.1454147798
0.1550545019
0.1634417121
0.1709214133
0.1775632721
0.1833226329
0.1882258847
0.1919382265
0.1942611293
0.1679228298
0.2440343753
0.1384286844
0.1190779429
0.1298668677
0.1392845473
0.1483816782
0.1564711171
0.1644475688
0.1710943304
0.1768699051
0.1818360324
0.1861701374
0.1620775442
0.235734998
0.1388616027
0.1273320051
0.1321441103
0.1423785494
0.1501954533
0.1576199761
0.1646615043
0.1707261511
0.1516369953
0.1833084453
0.2194131582
0.1530285082
0.1327509209
0.1400501261
0.1475229223
0.1549340325
0.1610997134
0.2018642002
0.08088504043
0.09316554648
0.1029464063
0.1199219509
0.1424842222
0.1588244622
0.1752098947
0.1908229334
0.2051676301
0.2180692036
0.2290959337
0.2376578009
0.2441163291
0.248162971
0.249559782
0.248840657
0.2462504123
0.2417152719
0.2358177098
0.2287438361
0.2207897693
0.2122931105
0.2025326122
0.1930431058
0.07927660717
0.09177315846
0.1027964353
0.1187707341
0.1406189184
0.157106644
0.1732700784
0.1888168662
0.2032710417
0.2163497446
0.2275054593
0.2362475867
0.2426864337
0.2468819028
0.2483531143
0.2478826479
0.245270414
0.2409774721
0.2350993617
0.2281470382
0.2203048374
0.2119434633
0.2024893381
0.1926054542
0.07847430802
0.09141869201
0.101446005
0.1178523763
0.1387308706
0.1549484591
0.1710402894
0.1862224497
0.2005385876
0.213195888
0.2241632951
0.2330760417
0.2396230114
0.2439739301
0.2457596422
0.2453267162
0.2429557144
0.2387946324
0.2332605274
0.2266310068
0.2191755904
0.2080935609
0.2069438984
0.190047296
0.07726563573
0.08960977114
0.1003187965
0.1157673517
0.1357037151
0.1515499168
0.1672615073
0.1824538103
0.1965735479
0.2093463243
0.2201834533
0.2288753611
0.2356287582
0.2399218673
0.2417406925
0.2417389438
0.2397233882
0.236018763
0.2307766017
0.2243836444
0.2170967232
0.2103424539
0.1918748292
0.1944210655
0.09334091044
0.08613717694
0.09649966703
0.1094146436
0.1236818547
0.1466912229
0.1621264214
0.1769026552
0.1906651089
0.2031326301
0.2139330769
0.2228899935
0.2295051776
0.2340124587
0.2365090932
0.2365388061
0.2348904294
0.2317135417
0.2270183041
0.2212006704
0.2144237138
0.2057809401
0.1962321171
0.1900258899
0.08598508328
0.09617156803
0.1085096904
0.1208219835
0.1413988737
0.1565150427
0.1708261676
0.1842623827
0.1964846038
0.2071403857
0.2158909778
0.2226610308
0.2273035296
0.2299001107
0.230584878
0.2293879484
0.2266547122
0.2224788625
0.2171979821
0.2080334631
0.2078519364
0.1924793743
0.1882765105
0.09763838053
0.09047723686
0.1007436032
0.1135262964
0.1275541712
0.1487159454
0.1626071505
0.1758494231
0.1877397732
0.1983720129
0.2072644901
0.2141918703
0.2191512237
0.2223260999
0.2235127386
0.2228625908
0.2206356771
0.2171384676
0.209476834
0.2139963089
0.1885328046
0.1959545878
0.171409556
0.0886809217
0.09902700307
0.1091817794
0.119109656
0.1335482568
0.1542538149
0.1669124584
0.1787078743
0.1888078515
0.1977114168
0.2048601974
0.2100948582
0.2133995971
0.2151519155
0.2150664306
0.2135672843
0.2073610548
0.2132312441
0.1895620696
0.1968500756
0.1670498191
0.2281329528
0.101285574
0.09247974846
0.1043585817
0.1143885674
0.1240689651
0.1381126857
0.1574261568
0.1686680859
0.1788381104
0.1874029219
0.1946831395
0.1998879012
0.2036321307
0.205838171
0.2062712409
0.20188115
0.2091092232
0.1874153068
0.1957383144
0.1915241948
0.1961413316
0.1112649886
0.09769629583
0.1090396702
0.1189484056
0.1255752981
0.144904424
0.1504119251
0.1679785514
0.1765721314
0.1838940422
0.1895082245
0.193645913
0.1916808324
0.1968335023
0.1987970551
0.1826159122
0.1925239521
0.1898040665
0.1634495219
0.2241216624
0.1165847174
0.1011741837
0.1122352563
0.1236715504
0.1290032041
0.1362448711
0.1523627345
0.1600630906
0.1670746757
0.1727600425
0.1783983036
0.1863752317
0.175370524
0.1805803497
0.1870081601
0.1856850043
0.160626544
0.229441245
0.1200996087
0.1040544399
0.1147142931
0.1226573722
0.133712846
0.1400114482
0.14733214
0.154544469
0.1604348928
0.1654510458
0.1679264591
0.1759456378
0.1768851259
0.1546914595
0.1869203222
0.2165176796
0.1196150032
0.1104490835
0.1139683675
0.1246697735
0.1317867774
0.1394401021
0.1457828506
0.1521701264
0.1573126299
0.162333306
0.1441011049
0.1735172518
0.2052532211
0.1303179287
0.1138337313
0.1202873756
0.1276704541
0.1344396093
0.1411757088
0.1470454824
0.1520316757
0.1896141177
0.06328953783
0.07280830262
0.08242588698
0.09780005418
0.1200677364
0.1379065237
0.1563650447
0.1751829447
0.1938635748
0.212158397
0.2289940088
0.2441382596
0.2568545058
0.2668316634
0.2735556028
0.2774147359
0.2781184789
0.2759816841
0.2713158886
0.2645237221
0.2561392825
0.2466930382
0.2364289269
0.2256215516
0.2147405288
0.2038523113
0.1931807792
0.0620552341
0.0723893368
0.08166852117
0.09725583006
0.1189580744
0.1368073922
0.1550601687
0.1738187835
0.1924472528
0.2103718787
0.2272084892
0.2420979301
0.2547709666
0.2647220872
0.271526101
0.2752763073
0.2760712649
0.274018084
0.2697168937
0.2631785682
0.2550976595
0.2456914855
0.2355197619
0.2250342368
0.2142501933
0.2035507028
0.1930955197
0.07538109002
0.07054111913
0.08134215682
0.09625551189
0.1171127641
0.1345532333
0.1527741042
0.1712173042
0.1898405783
0.2076739453
0.2242148555
0.2391390154
0.2517741103
0.2615848993
0.2684665545
0.2726254041
0.2736166003
0.2718679321
0.2674488643
0.2612177912
0.2534456723
0.2443987726
0.2345257133
0.2241222544
0.2136537373
0.2031023088
0.1927325874
0.07023489091
0.08042200462
0.09477358624
0.1145387544
0.131684176
0.14974917
0.1678887615
0.1860185303
0.2036766533
0.2200631676
0.2349218055
0.2474826661
0.2573213587
0.2643602924
0.2686505396
0.2697598049
0.2681898113
0.2644155032
0.2586172711
0.2511084837
0.2425657039
0.2330630321
0.2230252171
0.2127322561
0.2024715046
0.1922744598
0.06611009685
0.07714053358
0.08937726616
0.1032003353
0.1274629622
0.1449008067
0.1625856008
0.1803190735
0.1975355712
0.2137409307
0.2280425133
0.2406415864
0.2506050395
0.2577979728
0.262036753
0.2638153991
0.2627394728
0.2593019018
0.2542411869
0.2475202892
0.2393911806
0.2303930747
0.2208818299
0.2110437416
0.2011271499
0.1913551658
0.06451827035
0.07665640076
0.08782452507
0.1005639284
0.122189403
0.1391240644
0.156173793
0.1730992552
0.1898187092
0.2057029332
0.2198494397
0.2321550669
0.242148206
0.2495473504
0.2542824737
0.2563592209
0.2559873663
0.2533400007
0.2487942577
0.2426679912
0.2353329521
0.2270778261
0.2181012238
0.2088213713
0.1994481613
0.1900201408
0.07854516116
0.07246039672
0.08208699929
0.09457655406
0.1090116171
0.1332962863
0.149841688
0.1663590006
0.1821955181
0.1971744024
0.211089766
0.2229994388
0.2326238204
0.2400472706
0.2450153847
0.2476188814
0.2477989445
0.2457626424
0.2419234274
0.2366284114
0.2300357647
0.2224646317
0.2143474359
0.2057922127
0.1969807067
0.1878476147
0.07090533423
0.08061004639
0.09183660424
0.1043415883
0.1252777159
0.1408409626
0.156697305
0.1719458645
0.1863663425
0.1997907541
0.2115335101
0.2212653304
0.2289542526
0.2341865254
0.2371466585
0.2380884528
0.2369809383
0.234093354
0.2295688672
0.2238997117
0.2171711895
0.2098804434
0.2021778561
0.1912181742
0.1964335774
0.08143426232
0.07482049913
0.08432404747
0.09641700261
0.1104325991
0.1324512292
0.1473795358
0.1621163979
0.1760407653
0.1887518835
0.2002472398
0.209856192
0.2176969498
0.2232309584
0.2266529048
0.228241207
0.2277326564
0.225764918
0.2222133159
0.2174088096
0.2116956379
0.205140337
0.1981210443
0.1922948113
0.1751148789
0.08972745398
0.07970489436
0.09151259072
0.10085514
0.1153886841
0.1370730332
0.1508273035
0.1642708936
0.1766583882
0.187725342
0.1973334277
0.205181078
0.2111008912
0.2152556794
0.2174188722
0.2178252017
0.2167170788
0.2141793136
0.2103411594
0.2055319213
0.1999070525
0.1903454062
0.1916984673
0.175852461
0.07744338183
0.08689709409
0.09593761256
0.105307336
0.1196835355
0.1402365876
0.1528940179
0.1646472323
0.1755625511
0.1848637329
0.1927055966
0.1988295335
0.2032249683
0.2059927535
0.2071625109
0.2068117855
0.2050830674
0.2020285158
0.1981261192
0.1900578702
0.195357725
0.1720361753
0.1779295501
0.08721748859
0.07872203776
0.08990324486
0.09904233631
0.10795062
0.1216070677
0.1404565355
0.1516233013
0.1619521483
0.1711472792
0.1788633385
0.1850887847
0.1900487064
0.1932768106
0.1951537695
0.1955848348
0.1946551361
0.188570101
0.1898019502
0.189672815
0.1718650624
0.157245041
0.1846527848
0.09463087146
0.08215670801
0.09252161615
0.1014348959
0.1076025229
0.1255484804
0.1311969533
0.1481793663
0.157120587
0.1648661729
0.1712513774
0.1763062936
0.1801305611
0.1825393563
0.1793095966
0.1830067057
0.1853227703
0.1707721121
0.1738972468
0.1552208031
0.2179245448
0.09395213349
0.08787159375
0.09168666539
0.1045151298
0.1092536679
0.1158261245
0.1310201269
0.1389776812
0.1456832651
0.1521426656
0.1571817971
0.1618986888
0.1657575634
0.1729183453
0.1617428515
0.1666977797
0.1729206959
0.1480982429
0.2123532602
0.1083266364
0.09327679644
0.1024757855
0.1118938017
0.1179294244
0.1250301596
0.1318390207
0.1381093681
0.1435687284
0.1485745454
0.1525677833
0.1546003753
0.1619159446
0.1407469601
0.1694000811
0.1977805049
0.1062180147
0.09288468728
0.1041406103
0.1071043505
0.1162554535
0.1224677897
0.1283513049
0.1344118822
0.1393581389
0.1248246302
0.1507943869
0.149394625
0.1848760656
0.1216387891
0.1053732337
0.1114162291
0.1173817134
0.1231034021
0.1284383485
0.1618929017
0.05446566013
0.06311089685
0.07577255965
0.09390672563
0.1111612159
0.1297913323
0.1500071137
0.1714002267
0.1931286776
0.2149145081
0.2361801197
0.2562309975
0.2738825969
0.2887792755
0.299911978
0.307124986
0.3105373702
0.3099379297
0.3056568017
0.2983714616
0.2886983581
0.2772018539
0.2646041865
0.2513557877
0.2378016705
0.2244633727
0.2114642503
0.1990277678
0.1872403176
0.06558890479
0.06215879872
0.07531858972
0.09298422137
0.110093687
0.128718897
0.1486921376
0.1698496889
0.1914308897
0.2131462375
0.2340819721
0.2538391888
0.2713872455
0.2859847854
0.2972093702
0.3045695931
0.3080142473
0.3075815456
0.3034641039
0.2964822157
0.2870023281
0.275956385
0.2634492541
0.2504128179
0.2371708142
0.2239967398
0.2112000241
0.1988157686
0.1871387709
0.06107355989
0.07281316414
0.08537713891
0.1085913979
0.1270506164
0.1466269725
0.167549026
0.1889305829
0.2104515497
0.2313432379
0.2507760357
0.2682017397
0.2826382976
0.2939543472
0.3012059066
0.3048282037
0.3046063405
0.3007462166
0.2940213035
0.2850504356
0.2741857936
0.2621696069
0.2493880104
0.2364183958
0.2235157804
0.2108328385
0.1986530344
0.1870510519
0.05953003582
0.07165468797
0.08366925993
0.1054720503
0.1233633204
0.1424045385
0.1626536146
0.1837929819
0.2046615753
0.2251816839
0.2446134036
0.2619401045
0.2765377351
0.2878562606
0.2955622716
0.2994953785
0.2997051632
0.2965047893
0.290440969
0.2818927779
0.2716734074
0.2601734812
0.2478944316
0.2352731199
0.22269655
0.2104038273
0.1985263716
0.1871473048
0.05775445527
0.0685017799
0.08247087449
0.1023093267
0.1197252378
0.1382357541
0.157922315
0.1780808692
0.1985321401
0.2182971693
0.2372818904
0.2542497423
0.2685522275
0.2799310637
0.287712642
0.2920513703
0.2927820128
0.2902434428
0.2848883007
0.2773384681
0.2679624437
0.2570619192
0.2454251456
0.2334168752
0.2213400444
0.2094554811
0.1978843085
0.18677496
0.05557737723
0.06670517878
0.07998990635
0.09796276071
0.1147059381
0.1327554447
0.1518686519
0.1716364179
0.1913256013
0.2106974137
0.2290382623
0.2456942177
0.2598563067
0.2710323111
0.2791798854
0.2838326493
0.2851954509
0.2832887735
0.2787158329
0.2718438874
0.2632082788
0.2532166482
0.2423407499
0.231009177
0.2195890479
0.2082192355
0.197023933
0.1863029505
0.06767118466
0.06173394083
0.07448512822
0.08795000563
0.1096216817
0.1267466036
0.1449471284
0.1637774736
0.1828723668
0.2016565049
0.2193763891
0.2354717149
0.2495580874
0.2606582398
0.2688112131
0.2738413771
0.2757400471
0.2747463271
0.2710185588
0.2649718059
0.2573082063
0.2482289237
0.2382076615
0.2277477445
0.2170464445
0.2063352882
0.1957494999
0.1854623823
0.0625924957
0.07233335187
0.0834972483
0.1027371982
0.1188066149
0.1360603639
0.1539529918
0.1720787078
0.1898923983
0.2068972236
0.2223311291
0.2359146869
0.2469858516
0.2554788552
0.2610782641
0.2636092216
0.2635270662
0.2609539119
0.2561693716
0.2495846854
0.2416734889
0.2328055747
0.2233882456
0.2135949272
0.2036024459
0.1938293836
0.1841521975
0.07064009877
0.06420537485
0.07717386192
0.09048538759
0.1114755037
0.127915712
0.1445380023
0.1617542202
0.1785370042
0.1946998052
0.2095484922
0.2227667182
0.2337470974
0.2423013562
0.2481753446
0.2514310943
0.2521623709
0.250488916
0.2468345777
0.2414222425
0.2346899134
0.2270393107
0.218586194
0.2097608425
0.2006491409
0.191502148
0.1825539013
0.06436250741
0.07326887057
0.08215934768
0.09644571249
0.1188302567
0.1346466032
0.1507253332
0.1666261036
0.1816444129
0.1960993641
0.2088975134
0.2196419029
0.2282581474
0.2345766377
0.2385187366
0.2401401083
0.2395349076
0.237017095
0.2329338276
0.2274048378
0.2207710978
0.2134246544
0.2054597286
0.1973529798
0.1889760059
0.1806028246
0.07261263902
0.0671120062
0.07928076508
0.09079249081
0.1094776148
0.1241441948
0.1391218608
0.1541242329
0.1685596058
0.1819809683
0.1942520234
0.2049245886
0.2136314269
0.2202394432
0.2248415485
0.2271327244
0.227624647
0.2261984653
0.2231771604
0.2187966564
0.2134455772
0.2072437112
0.2003795668
0.1931167667
0.1856169705
0.1780857102
0.079487722
0.06891548313
0.08211654418
0.09504175719
0.1135511656
0.1272402521
0.1413195684
0.1547237286
0.1674971919
0.1792158872
0.1894507127
0.1981011351
0.2049737028
0.2099289012
0.2130627625
0.2143144674
0.2140639889
0.2122290559
0.2091432849
0.2048910418
0.1998671981
0.1941797449
0.1880378643
0.1780119873
0.1747483443
0.06836827072
0.07685675315
0.08487092223
0.09785531897
0.1159112543
0.1286649826
0.1412250597
0.1530432358
0.1641432253
0.1741818134
0.1828351743
0.1897215307
0.1950804647
0.1987106569
0.2007915454
0.2013671787
0.2006684736
0.1986350577
0.1956583368
0.1916546329
0.1869865112
0.1787187199
0.1836097358
0.1639642968
0.07591735813
0.06872803828
0.07871469912
0.08526836444
0.1023187635
0.1088750554
0.1273616597
0.1388003855
0.1492396111
0.1587216956
0.167000298
0.1739246991
0.1796276101
0.1838080436
0.1865762176
0.1880866172
0.1882245197
0.187376364
0.1853960546
0.1824933783
0.1756142619
0.1813307076
0.16134072
0.1528565676
0.07833266778
0.07363336277
0.07993119668
0.08709327314
0.09613373175
0.1086578277
0.1248230734
0.1346654789
0.1437198524
0.1517004704
0.1587188119
0.1645131232
0.1690537988
0.1724745705
0.1745281087
0.1755678662
0.1756517427
0.1703919609
0.1727261029
0.1737487867
0.1582415053
0.1458481662
0.2091206354
0.09175815172
0.07902993211
0.08894085231
0.09379660813
0.1083665221
0.1178395301
0.1221701792
0.1366919419
0.1436073617
0.149331394
0.1541385734
0.1579132618
0.1563486772
0.1606582834
0.1603080946
0.1651161735
0.1537859442
0.1365282393
0.1679545024
0.1925298385
0.08918942336
0.0824739494
0.08783769483
0.09559139018
0.1004740948
0.1058125493
0.1191701822
0.1252698834
0.130830187
0.1357697343
0.1406439708
0.1474340868
0.139896434
0.1467742249
0.1481091478
0.135349196
0.1915686808
0.09750650941
0.08992188891
0.09076478004
0.1020720146
0.1061513692
0.1121182645
0.1174574549
0.1227788167
0.126790348
0.1300010718
0.1208724283
0.1424739356
0.1403522605
0.1732253979
0.103208045
0.09060640294
0.09517424962
0.1004260896
0.1063994235
0.1117290395
0.1159098877
0.1202354778
0.1512428531
0.0514952565
0.06458574544
0.08135546481
0.09798444841
0.116705596
0.1374579126
0.1600058218
0.1841978856
0.2093256157
0.2346755822
0.2594984856
0.283326668
0.304359491
0.3218211272
0.3350393139
0.3434045381
0.3464205892
0.3444521973
0.3377785785
0.3274869018
0.3141257357
0.2988105408
0.2824097785
0.2656288667
0.2490100683
0.2329051577
0.217595543
0.2031898761
0.1898307315
0.1774790062
0.05093201413
0.06288676675
0.0748145207
0.09751637332
0.1161844404
0.136904999
0.1593307075
0.1833308607
0.2083841166
0.2335842864
0.2582720133
0.281491801
0.302437929
0.3199649512
0.3331032987
0.341220839
0.3444599638
0.3423608359
0.3358858739
0.3257401799
0.3127066461
0.2977224683
0.2815664744
0.2649940795
0.2484771539
0.2326365028
0.2174535895
0.2031319915
0.1898086956
0.177569271
0.05172256153
0.06227288957
0.07407017495
0.09580344521
0.1141221078
0.1344054647
0.1565243924
0.1798307909
0.2044515109
0.2292974591
0.2536973163
0.2768597161
0.2975312344
0.3148623885
0.328019537
0.3363764417
0.3398002793
0.3384398561
0.3323728849
0.3227169736
0.3102675188
0.2957486615
0.2801263523
0.2639110473
0.2477534291
0.2321419319
0.217251768
0.2031615655
0.1899670299
0.1777299045
0.04992333375
0.06006290961
0.07339083907
0.09355461579
0.1114714587
0.1313881401
0.1530040452
0.1760338889
0.2000290625
0.2243664715
0.2482946386
0.2708937346
0.2913996238
0.3085595504
0.3218397992
0.3302692241
0.3339948687
0.3330043968
0.3276801288
0.3186427684
0.3067787305
0.2931320182
0.278035041
0.2624433336
0.2469355579
0.2316607287
0.2169470006
0.203108055
0.1901513928
0.1780822287
0.04914266392
0.05880039375
0.07187227451
0.09070657828
0.1081405281
0.1274822918
0.1486283635
0.1708634209
0.1943703765
0.2180324443
0.2412760723
0.2636773273
0.2838162841
0.3007667716
0.3137305427
0.3223778307
0.3263681572
0.3259764068
0.3212734584
0.3130730898
0.3024015421
0.2894126095
0.275136945
0.2602806404
0.2453450678
0.2305945425
0.2163979831
0.2028941055
0.1902718628
0.1784573361
0.05930665923
0.0553969843
0.06946709795
0.0868293246
0.103637204
0.1220286444
0.1422738186
0.1637631738
0.1863576983
0.2091707737
0.2316829276
0.2532488185
0.272640097
0.2894281673
0.3025252494
0.3115176774
0.3160873345
0.316594404
0.31282569
0.3058471298
0.2960149703
0.2843020336
0.2710593909
0.2572186982
0.2432085103
0.2291888973
0.2155485399
0.2025267688
0.1902320013
0.1786725265
0.05377092399
0.06460776601
0.077045637
0.09872300489
0.1165515174
0.1358484878
0.1563192708
0.1778222634
0.1998393607
0.2216959925
0.2424827916
0.2612849001
0.2775955534
0.2904697001
0.299588932
0.3047922248
0.3058169677
0.3032632342
0.2974054395
0.2888086451
0.2782247227
0.2662030558
0.2533138325
0.2402239784
0.2271326943
0.2142433885
0.2017414164
0.1898075324
0.1787214579
0.05146162395
0.06269848654
0.07373686171
0.09291896788
0.1098626059
0.1280117042
0.1474026488
0.1678687981
0.1887082249
0.2094344262
0.2291208344
0.2472697537
0.2630685725
0.2757971962
0.2852114151
0.2908606687
0.292867065
0.2915081483
0.2868957707
0.279679578
0.270502586
0.2598188681
0.2482836518
0.2363468861
0.2241426382
0.2121025549
0.2003670114
0.1891285
0.1784571811
0.06071476954
0.05523197056
0.06762747745
0.08046763099
0.1023675441
0.1194681031
0.137742724
0.1568279165
0.1763939253
0.1959287933
0.2145235928
0.2318430318
0.2471857401
0.2599170591
0.2694244939
0.2757794026
0.2786480287
0.2783017925
0.2750907274
0.2694201197
0.2617317301
0.2525755666
0.2424902063
0.2317485881
0.2206865085
0.2096249895
0.1987327795
0.1881843273
0.1780206435
0.05656747098
0.06550815446
0.07652450355
0.09550686145
0.1114982152
0.1287744759
0.1466147609
0.1648924849
0.1834393614
0.2010659821
0.2176069128
0.2325128388
0.2447075715
0.2543989665
0.2609588658
0.2647275188
0.2653921077
0.2633073448
0.2589926252
0.252780951
0.2451337351
0.2363655897
0.2267884311
0.2168093361
0.2067318008
0.1966844333
0.1868616385
0.177371803
0.06257785512
0.05659919559
0.06887210836
0.08151555429
0.1019241723
0.1178173266
0.1344617976
0.1513475817
0.1686140358
0.1852809
0.2010712786
0.2152291843
0.2274818609
0.2370757823
0.2441991325
0.2486677757
0.2503948877
0.24986648
0.2470559166
0.2423292953
0.2361613802
0.2288329918
0.2205872572
0.2119272377
0.20304134
0.1939040389
0.1849222264
0.1761347381
0.05673541892
0.06467927766
0.07313144564
0.0865696304
0.1077861738
0.123151014
0.1388761467
0.1546533063
0.1701970431
0.1848517181
0.1981589145
0.2098805191
0.2196439138
0.2270748152
0.2321041722
0.2348958809
0.2353691646
0.2338985671
0.2307598955
0.2258900744
0.2200586373
0.2133324828
0.2059778466
0.1982179705
0.1902098656
0.182150671
0.1741442277
0.06249568105
0.05796024476
0.06924363579
0.07984984927
0.09700448742
0.1109949567
0.1253712541
0.139939211
0.1543107384
0.1680394012
0.1807724996
0.1920095587
0.2016141158
0.2092521564
0.214902537
0.218582346
0.2201280927
0.2199224703
0.2180752693
0.2148544033
0.2103967102
0.2049741212
0.1989944284
0.1923937994
0.1854603982
0.1784077278
0.1713264065
0.06933980192
0.05909017562
0.07114800768
0.0829786188
0.09983801161
0.1128019784
0.1260413736
0.1391427206
0.1518630721
0.1638292523
0.1744731849
0.1838606961
0.1915018996
0.1975443779
0.2017476804
0.2042603737
0.2050649918
0.2044582805
0.202607972
0.1995010897
0.195578922
0.1908088335
0.1855004731
0.1798462989
0.1737704555
0.1672514722
0.07141131801
0.06301818659
0.071378581
0.08666567029
0.09374946215
0.1122764108
0.1244724575
0.1361542509
0.1471288974
0.1572746176
0.1663028259
0.1740082334
0.1801022748
0.1849401896
0.1882228772
0.1901099102
0.1905301039
0.1899041549
0.1880144947
0.1852367229
0.1818216408
0.1777696429
0.1731660284
0.1656038887
0.1708442677
0.07350320011
0.06625139198
0.07314936752
0.08143235644
0.09369075829
0.1102823494
0.1210511526
0.1312515743
0.1407662798
0.14942915
0.1571038777
0.163310446
0.1683965633
0.172358628
0.1750720988
0.1764281822
0.1766322991
0.1760311808
0.1744225155
0.172036923
0.165372009
0.1654575724
0.1651654592
0.1483189135
0.07628007938
0.06571224745
0.07476260864
0.08009443974
0.0954058666
0.1007536531
0.1163739595
0.1252564021
0.1335385041
0.1407925879
0.1470959578
0.1524874737
0.1565693927
0.1597566377
0.161996154
0.1632476531
0.1634184354
0.1627787092
0.1579498787
0.1653179674
0.1497765765
0.1323825119
0.1608396579
0.07474551504
0.06931189048
0.07411375618
0.08022992797
0.08588627838
0.1007996603
0.1049982322
0.1182105773
0.1253576539
0.1315300722
0.1370800357
0.1414568066
0.1450360217
0.1476977682
0.1453344576
0.1493167551
0.1484551728
0.1527194631
0.1413062304
0.1321249488
0.1854744096
0.08110196964
0.0749083517
0.07931903371
0.08475186044
0.08947429247
0.1016208394
0.1075038359
0.1132338603
0.1181557689
0.1224494739
0.1270059561
0.1307211138
0.1370374458
0.129728354
0.1359920616
0.1202195596
0.1468569316
0.1696028273
0.08702769009
0.07569059794
0.08646678625
0.08733792579
0.09493221012
0.09981394622
0.104648379
0.1097015092
0.1137154881
0.1176003511
0.1054887118
0.129929439
0.1266943397
0.1574147203
0.09743253939
0.08508178672
0.08939923413
0.09415860896
0.09866823669
0.1033003082
0.1071616327
0.135454582
0.04372563759
0.05188759308
0.064119972
0.08373989984
0.1018917413
0.1223864608
0.1452418914
0.1705865142
0.197712084
0.226694366
0.2559713508
0.2848202125
0.3127540897
0.3375467691
0.3585230955
0.37398142
0.3835589367
0.3862323548
0.382631925
0.3729088025
0.3585446936
0.3406544888
0.3207816983
0.3000946247
0.2793081154
0.2591215974
0.2399696566
0.222149808
0.2057797583
0.1908504666
0.1773209527
0.1650098467
0.04342931501
0.05159101366
0.0638208272
0.08294218715
0.1009708147
0.1212180564
0.1439464652
0.1691063388
0.1960653003
0.2246160008
0.2537792583
0.2825685628
0.3099987272
0.3346365982
0.3554150166
0.371109037
0.3805473058
0.3837275005
0.3803069585
0.3709334778
0.3568683126
0.3394670883
0.3197786953
0.299249245
0.2787318833
0.2587264623
0.2397798515
0.2220823744
0.2057440166
0.1908467467
0.1774422918
0.1652245077
0.04308127279
0.0513154085
0.06330187853
0.08191109473
0.09948429659
0.1197606571
0.1422095638
0.1668684807
0.1938246954
0.2215675808
0.2504670434
0.2789287881
0.3060551036
0.3307174242
0.3512718383
0.3669290615
0.3763886906
0.3797836817
0.3766137705
0.3676286865
0.3541139366
0.337200625
0.3183060238
0.2982000816
0.2779975001
0.2582869948
0.2396724169
0.2221780013
0.2061247351
0.1913820379
0.1778826823
0.1656068278
0.05258980154
0.04913327431
0.06223837937
0.08002485333
0.09728268486
0.1169788096
0.1390355088
0.1633172497
0.1892944026
0.2168118028
0.2450466623
0.2729197356
0.2998206924
0.3240012755
0.3445006365
0.3602107746
0.3698917233
0.3733911034
0.3708730997
0.3626481645
0.3498832321
0.3339083802
0.3156363594
0.2963542799
0.2768219574
0.2577129952
0.2393632095
0.2222564865
0.2063686575
0.1918185169
0.1785575883
0.1665162355
0.04864506958
0.0603184909
0.07684497162
0.09344383375
0.1123687588
0.1334773726
0.1569326377
0.1821482461
0.2089603564
0.2361323944
0.2637032516
0.2896689732
0.3135150249
0.333889675
0.3494492315
0.3593728499
0.3636266852
0.3619362168
0.3548838732
0.3434710456
0.3286556827
0.3116623964
0.2933839939
0.2747064256
0.2564116921
0.23881217
0.2221347412
0.2066466957
0.1923348043
0.1792064902
0.1672545697
0.04492373044
0.05653383015
0.06814892474
0.08948646996
0.1078439445
0.1280782946
0.1505152044
0.1746148574
0.2001735752
0.2265945859
0.2529157742
0.278073743
0.3012685515
0.3208362522
0.3364163603
0.3467419034
0.3516503857
0.350867544
0.345234204
0.3350670903
0.3218654965
0.3061833906
0.2892199982
0.2718830063
0.2544776417
0.2376050351
0.2216884291
0.2066533445
0.1927107813
0.1798415904
0.1680759771
0.04511681948
0.05514799891
0.06598635623
0.08536253728
0.1025458524
0.122164267
0.143717583
0.1667541608
0.1911120775
0.2164753037
0.24184837
0.2661500181
0.2885979129
0.307789661
0.3231423725
0.3336012036
0.3390476325
0.3394233932
0.3348828961
0.3262510784
0.3143740173
0.300260025
0.2846369354
0.2684880582
0.2521885603
0.2362917159
0.2208523301
0.2063919248
0.1929250853
0.1804597841
0.1689907735
0.05299177243
0.04988605073
0.06337210172
0.08014929564
0.09634465417
0.1148509166
0.1350482555
0.156809954
0.1798275539
0.2039864011
0.2281765489
0.2515669891
0.2729148258
0.2916725409
0.3070401486
0.317963945
0.3240782017
0.3253875301
0.3223872783
0.315357308
0.3051740717
0.2926817836
0.27873586
0.2639466207
0.2489148124
0.2339512552
0.2195754495
0.2058806282
0.1929940439
0.1808915465
0.1697126065
0.04799807297
0.05812246954
0.06980387983
0.09011630665
0.1075114836
0.1263918816
0.1467716118
0.1684835842
0.1909606534
0.2137003099
0.2356800571
0.2562734743
0.2741271664
0.2892182206
0.3003166145
0.3071289331
0.3095183946
0.307825053
0.3025008113
0.2942721207
0.2837287777
0.2715563648
0.2583996393
0.2447214674
0.2311228299
0.2177862488
0.2048217484
0.19265058
0.1811817976
0.1704854547
0.05430711309
0.05380265538
0.06559993669
0.08321442973
0.09902191644
0.116743659
0.1356660358
0.1561053407
0.1768441238
0.1983121476
0.2190937863
0.2386091032
0.2560684545
0.270769457
0.2819601781
0.2893636017
0.2930861767
0.2928716845
0.2893216354
0.2828037182
0.2740774482
0.263767023
0.2522658528
0.2400403576
0.2277378885
0.2154891686
0.2035509528
0.1920945814
0.1811362346
0.170930993
0.04927597674
0.0597503861
0.07130284203
0.09104059379
0.1072087872
0.1246298246
0.1433861176
0.1627995568
0.1823328764
0.2019303333
0.2200635209
0.2366333239
0.2508236387
0.2620051011
0.2701098463
0.2745488809
0.2757400213
0.2740032483
0.2693721245
0.2627403945
0.2542987861
0.2446105289
0.2341731707
0.2232417624
0.2122381924
0.2013486055
0.1907607141
0.1806231972
0.170880487