/*--------------------------------*- C++ -*----------------------------------*\
| =========                 |                                                 |
| \\      /  F ield         | OpenFOAM: The Open Source CFD Toolbox           |
|  \\    /   O peration     | Version:  v1706                                 |
|   \\  /    A nd           | Web:      www.OpenFOAM.com                      |
|    \\/     M anipulation  |                                                 |
\*---------------------------------------------------------------------------*/
FoamFile
{
    version     2.0;
    format      ascii;
    class       volScalarField;
    location    "3.2711";
    object      p_O2;
}
// * * * * * * * * * * * * * * * * * * * * * * * * * * * * * * * * * * * * * //

dimensions      [1 -1 -2 0 0 0 0];


internalField   nonuniform List<scalar> 
60268
(
0.03494245548
0.03843341591
0.04111960419
0.04398645085
0.04655971184
0.04893221963
0.05104475611
0.05289949292
0.05425942826
0.05528953627
0.05514173988
0.04245270184
0.03848128237
0.04120020569
0.04382854622
0.04632412868
0.04865659458
0.05084692463
0.05260688189
0.05402973088
0.05526675614
0.05523549856
0.03863768047
0.04086248869
0.04334790515
0.04591689745
0.04835062917
0.05041852566
0.05214072126
0.05366274557
0.04659642158
0.06738750876
0.04500506888
0.04026806473
0.04282662281
0.04534693425
0.04753640445
0.04969903267
0.05150703336
0.05328999886
0.05512078762
0.04876671453
0.04233832408
0.04442433569
0.04680385401
0.04894333937
0.04299074579
0.05324753427
0.06241000253
0.04932351272
0.04270783966
0.04443383068
0.04705209938
0.05945908453
0.02685838931
0.03062487083
0.03345476953
0.03655501401
0.04087238923
0.04591160567
0.04948121337
0.05266597221
0.05535584171
0.05762897088
0.05935706359
0.06056157424
0.06122491196
0.06139767336
0.06033146167
0.0590387549
0.05853366437
0.05782982023
0.056561992
0.05504489591
0.02680372629
0.03053100631
0.03343913189
0.03594999617
0.03978920156
0.04325828476
0.04934295981
0.0524574844
0.05511235078
0.05735186045
0.05914196564
0.06032693111
0.06099881499
0.06117784434
0.06001536672
0.05888602359
0.05839008564
0.05759147976
0.05675997023
0.05503541683
0.02631164252
0.03022157144
0.03303391141
0.03620382662
0.03995955157
0.04319123031
0.04855850502
0.05166847652
0.05445003011
0.05663479791
0.05843080435
0.05964085241
0.0603080069
0.05957244772
0.06106136935
0.05792810541
0.05805038041
0.05739616765
0.04913088395
0.06766854554
0.02601143081
0.02978777791
0.03261573239
0.03550190862
0.0381802527
0.0416030786
0.0449676786
0.05066473681
0.05326132953
0.05554340491
0.0572518863
0.05857925495
0.05927563342
0.05983551672
0.05587131144
0.05848664318
0.05754723918
0.05698942448
0.05773184411
0.03133945127
0.02869785845
0.0319223563
0.03486716762
0.03782081715
0.0409278523
0.04338705089
0.04671938984
0.05181442583
0.05409893003
0.05586564679
0.05600939207
0.05800732501
0.05796234604
0.05598565244
0.05684030716
0.05686202965
0.05636409526
0.05522834927
0.02836031964
0.03112813521
0.03387609884
0.03680534961
0.0396194778
0.04263777507
0.04408795402
0.04863744949
0.05104967593
0.05287103398
0.05565997382
0.05268971646
0.05427293202
0.05644558178
0.0561334072
0.05602411928
0.04813894596
0.06664385318
0.03290164854
0.02986151434
0.03304717871
0.03584160053
0.03856944065
0.04115722854
0.04451743224
0.0464313619
0.04838378717
0.05038339644
0.05133678488
0.05370545551
0.05404546131
0.0548434021
0.05523143893
0.04736556803
0.06859705029
0.03609112235
0.03143533904
0.03457876185
0.03724570181
0.0398148635
0.04248323464
0.04480967685
0.04689751094
0.04873418136
0.05037489587
0.05171135703
0.05277929613
0.05348023758
0.04630011374
0.06732953627
0.0379836569
0.03258223907
0.03557407799
0.03812056136
0.04058680853
0.04293132854
0.04518511658
0.04694612994
0.04857712385
0.04996335917
0.05127954077
0.04466568822
0.06499076541
0.03803348124
0.03495874531
0.03622594468
0.0389749786
0.04125634029
0.04330812435
0.04523840371
0.04688663883
0.04168602909
0.05044781218
0.06036167014
0.04193849961
0.03636694731
0.03846852977
0.04050365676
0.0425668592
0.04431083809
0.05553916534
0.02201949376
0.02531275227
0.02806635961
0.03263502972
0.03875033062
0.04331663778
0.04776747851
0.05200499283
0.0560394432
0.05966641046
0.06266431194
0.06510759279
0.06688790224
0.06804671586
0.06852270933
0.06838040044
0.06765457694
0.06652456086
0.06490205326
0.06304586073
0.06094614301
0.05866704796
0.05601564303
0.0534768446
0.0215348793
0.02494629271
0.02788399342
0.03225738703
0.03824955998
0.04275335102
0.04711517154
0.05151743957
0.05555147369
0.05904813897
0.0621805185
0.06465316174
0.06655075046
0.06771686199
0.06819757456
0.06808053872
0.06741881507
0.0663140818
0.06471367544
0.06288112908
0.06076350003
0.05855015283
0.05605061622
0.05336164386
0.02135928428
0.02495412177
0.02765153255
0.03201851588
0.0378294734
0.04218536493
0.04644161435
0.05075681969
0.05468665576
0.05825532712
0.06136330206
0.06382078828
0.06564133029
0.06684262311
0.06739191678
0.06735804781
0.06678543051
0.06571598233
0.06421021023
0.06247048991
0.06042810896
0.05747016357
0.0572286934
0.05263199132
0.02100528232
0.02450004381
0.02737509866
0.03151887581
0.03697951921
0.04130024151
0.0456054364
0.04973671535
0.05364302171
0.05725905537
0.06023443476
0.06267622454
0.0645533984
0.06579326096
0.06633782603
0.06640098278
0.06587689177
0.06494179276
0.06354281672
0.06184643835
0.05989004657
0.0581035362
0.05307469941
0.05382413045
0.0253169938
0.02349974464
0.02623984511
0.02985177895
0.03369682984
0.03993018901
0.04420127296
0.04831511473
0.05206968677
0.05554831033
0.05844568921
0.06100430563
0.06292589738
0.06415066355
0.06489193583
0.06500804242
0.06459732646
0.06374996689
0.06248741766
0.06092977255
0.05913631776
0.05677708715
0.05422490153
0.0526210526
0.02345401079
0.02620823949
0.02956105509
0.03291959525
0.03851082643
0.04264781481
0.04660826884
0.0503671284
0.05373089288
0.056659885
0.05908963481
0.06091960315
0.06236462053
0.06315384625
0.06335181309
0.06306135043
0.06234629116
0.06123885845
0.05985552096
0.05733590465
0.05729887637
0.05315414257
0.05208034497
0.02671232662
0.0246453658
0.02743931387
0.03097770734
0.03479312749
0.04060236771
0.04439494808
0.04797028883
0.05127136524
0.05420496677
0.05670824695
0.05862405157
0.06003284575
0.06093453047
0.0613205628
0.06121062963
0.06069039184
0.05970812028
0.05766487181
0.0589809674
0.05205256589
0.05411975176
0.04742876066
0.02421396886
0.02697356603
0.0297952433
0.03246970655
0.03644100748
0.04210826237
0.04567008042
0.04883967
0.05167804581
0.05413410378
0.05609513646
0.05759166535
0.05857999222
0.05907907933
0.05906206878
0.058641671
0.05703833652
0.05871642243
0.05226058335
0.05431470721
0.04614382871
0.06304278762
0.02764366917
0.02522334889
0.0284757367
0.03123130418
0.03387627131
0.03772106463
0.04294962571
0.04604485136
0.04897273633
0.0513905211
0.05329964978
0.05483446786
0.05588236188
0.05649040635
0.0566240701
0.05548186179
0.05748738085
0.05157371873
0.05396427345
0.05288405404
0.05420622005
0.03044652836
0.02674033063
0.02975875358
0.03253951153
0.03436820427
0.03965173716
0.04113408078
0.0459976651
0.04840709315
0.05036559933
0.05191371939
0.05307928739
0.05264874143
0.05405995853
0.05469334745
0.05026868695
0.05300126617
0.05224937115
0.04508822535
0.06197151198
0.03184575155
0.02774119028
0.0306695887
0.03384646008
0.03530581125
0.03725764765
0.04174366995
0.04383115535
0.04574670588
0.04734700484
0.04891270318
0.05114873681
0.04823790284
0.04966026943
0.05151136855
0.05112867382
0.04427539784
0.06322540566
0.0327856718
0.02838281804
0.03136291018
0.03351861491
0.03661205015
0.03836070064
0.04035280093
0.04234406524
0.04404331108
0.0454260645
0.04619204119
0.04838222291
0.04862706428
0.04255879842
0.05149239949
0.05969981338
0.03279596489
0.03024967615
0.03120267884
0.03423918135
0.03610971461
0.03822576893
0.0400106021
0.04180614396
0.04322590712
0.04459727318
0.03961602369
0.04770746322
0.05650071935
0.03561780036
0.03122536236
0.0330267923
0.03506861937
0.03690546469
0.03880213065
0.04040805371
0.04181271255
0.05219009557
0.01723773007
0.01975617546
0.02242069905
0.02657504141
0.03261236449
0.03744456054
0.04256951876
0.04774249693
0.05285744614
0.05782002131
0.06251666812
0.06675866966
0.07028474981
0.07302428808
0.07496732396
0.0761599378
0.07640847329
0.07588375132
0.07466734071
0.07287822534
0.07064673031
0.06817438795
0.06534580823
0.06243300513
0.05946735648
0.05651221875
0.05364118934
0.01690724692
0.01972098709
0.02226711381
0.026398519
0.03227330107
0.03708828496
0.04217265763
0.04733801076
0.05234754781
0.05732971074
0.06202061286
0.06614598115
0.06963686468
0.07245321072
0.07438004589
0.07552079383
0.07582243952
0.07535822198
0.07418541232
0.07249854499
0.07025745781
0.06780005276
0.06507330913
0.06224261919
0.05931513932
0.05640894364
0.05354019908
0.02053647829
0.01920312869
0.02214127939
0.02618143562
0.03187687541
0.03659104536
0.0415771655
0.04662860029
0.05164073324
0.05658222871
0.0611809586
0.06529401168
0.06883721173
0.07168857888
0.07363995925
0.07482203812
0.07504419093
0.07467383439
0.07356113775
0.07191825972
0.06976185302
0.06737974863
0.06477931548
0.06202885945
0.05915782593
0.05629027766
0.05348608281
0.01910311938
0.02183757832
0.02573352346
0.0312246812
0.03587485063
0.04075357668
0.04573496248
0.05071974015
0.05553021531
0.06011940806
0.06416147334
0.06773276305
0.07048194616
0.0725041109
0.07365779741
0.074116188
0.07373799601
0.0727839475
0.07126584819
0.0692294331
0.06693756151
0.06434719478
0.06165294863
0.05889373226
0.05612570257
0.05340044173
0.01794683852
0.02097446853
0.02427606308
0.02811041803
0.03464869073
0.03949081382
0.04425852753
0.04910222579
0.05387126239
0.05836491949
0.0623745018
0.06580397176
0.06857802306
0.07068969989
0.07197388429
0.0724515091
0.07223023035
0.07143744862
0.07003677519
0.06818210797
0.06602260352
0.06359679845
0.06101435136
0.05837676431
0.05573325458
0.05303096313
0.01753301107
0.02089917815
0.02388893537
0.02732570642
0.03325379639
0.0378322279
0.04248963948
0.04714884509
0.05179720198
0.05613900564
0.0600751414
0.06346710857
0.06628680854
0.06832695118
0.06969543577
0.07041880667
0.07035140424
0.06966070355
0.06848832474
0.06684869541
0.06485104819
0.06263465793
0.06021613426
0.05771793066
0.05518635375
0.05261817244
0.02132436709
0.01975178902
0.02233777187
0.02578517986
0.02968345151
0.03632287364
0.04086084066
0.04535306984
0.04971654683
0.05388667576
0.05768626706
0.06101302809
0.06369230025
0.06580060347
0.06720573106
0.06795268132
0.06804555261
0.06754667288
0.06657210956
0.06516043898
0.06341119855
0.06140123886
0.05919929304
0.05688028456
0.0544793768
0.05200962248
0.01927763962
0.02190010324
0.02500299595
0.02842238509
0.03406644267
0.03836720883
0.04270388672
0.04686181236
0.05092430669
0.05458887515
0.05783740864
0.060573223
0.06275732922
0.06427748619
0.06513984941
0.06543243886
0.06512327526
0.06432323235
0.06317419616
0.06164192354
0.05989821511
0.05791499215
0.05578451982
0.05284044482
0.05434321673
0.02217271921
0.02036519748
0.02296314006
0.02627215649
0.03006619311
0.03611559431
0.04017423273
0.04420977751
0.04808004708
0.05154496213
0.05475067285
0.05759834672
0.05965427235
0.06120604307
0.06225136583
0.06270938807
0.06258200437
0.06207729907
0.06112420116
0.05985190787
0.0583322838
0.05659085539
0.05465763259
0.05310772768
0.04841847296
0.02439934059
0.02173312764
0.02493151434
0.02749622163
0.0315293051
0.03734136514
0.04117294816
0.04481803991
0.0483378827
0.05134720711
0.05405255903
0.05620489108
0.05790763682
0.05904239018
0.05966373002
0.05983843602
0.05955640162
0.05887129982
0.05782961003
0.05652559088
0.05502173955
0.05250875794
0.05291531265
0.04859240558
0.02114848913
0.02369562152
0.02619167047
0.02872445453
0.03263777638
0.03830869077
0.04175855976
0.0450126526
0.04796870398
0.05051206115
0.05273437636
0.05451310207
0.05576303856
0.05654763902
0.05690045688
0.05679585742
0.05637607252
0.05559572161
0.05456102814
0.05236026738
0.05386669968
0.0474886821
0.04918299201
0.02380018953
0.02144425418
0.02450620187
0.02702420429
0.02944432163
0.0331919629
0.03832725087
0.04141545268
0.04426191882
0.04676559852
0.04896403066
0.05078363588
0.05208014025
0.05301295128
0.0535543583
0.05367882345
0.05346725198
0.05187756162
0.05222590526
0.05219445401
0.04733621344
0.04342118622
0.05104806092
0.02575105025
0.0223614674
0.02523654535
0.02765440101
0.02933663238
0.03424270765
0.03584153254
0.04052358964
0.04301296887
0.04508878458
0.04692303313
0.04834358049
0.04936817243
0.05003170359
0.04922007344
0.05028551974
0.05093067938
0.04697083193
0.04786704981
0.04277854681
0.06012020886
0.02572540167
0.0240788261
0.02505428658
0.02855653694
0.02982415579
0.03168737707
0.03586487017
0.03803253971
0.03984979864
0.04165505636
0.043066922
0.04440766762
0.04550995798
0.04747565015
0.04442452738
0.04581615878
0.04754235711
0.04079360965
0.05854239889
0.02962573524
0.02547779285
0.02807408236
0.03065658821
0.03230537329
0.03426546726
0.03613181877
0.03786369012
0.0393857715
0.04076704834
0.04189391735
0.0424973505
0.04455173581
0.03872589909
0.04663085565
0.05446590871
0.02911831209
0.02549016946
0.02855083779
0.02934175375
0.03187055314
0.03356616934
0.03522304779
0.03682793843
0.03823752087
0.03428758928
0.04145637395
0.0411643379
0.05091565565
0.03336053867
0.02891683832
0.03063513432
0.03222600797
0.03385053114
0.03526778236
0.04452037111
0.0147970124
0.01715914798
0.02057926323
0.02552064689
0.03021674128
0.03520420368
0.04079183111
0.04664897386
0.05268497075
0.05864970239
0.06439639075
0.06998645818
0.07494091985
0.07914569131
0.08221750307
0.08434503545
0.08536704937
0.0852986219
0.08426030296
0.08231514414
0.07974691816
0.07672048833
0.07330492835
0.06967321842
0.06600217268
0.06236261454
0.05879764612
0.05545563857
0.05220766671
0.01777567818
0.0168881895
0.02046933851
0.02529118588
0.0299125618
0.03494752418
0.04042511656
0.04616787723
0.0520796634
0.05811325374
0.06386845213
0.06937499837
0.07418672897
0.07828141951
0.08159046575
0.08369619009
0.08469761569
0.08464741748
0.08362602256
0.08177759336
0.07933350283
0.07626731038
0.07292043437
0.06942103049
0.06580595817
0.06220407708
0.05873483292
0.05534363287
0.05213068734
0.0166221716
0.0198232692
0.02312475498
0.02954996977
0.03452920357
0.03990963065
0.04561686671
0.05149902303
0.05733130141
0.06315379688
0.06854797772
0.0733469065
0.07742389464
0.08063663747
0.08270911375
0.08378793977
0.08377201439
0.08284059395
0.08107621321
0.07866915864
0.07573109795
0.07252129963
0.06907510734
0.06556491709
0.06201784995
0.05859073298
0.05530461916
0.05213883043
0.01613977537
0.01941651885
0.02271841729
0.02858949877
0.03352494075
0.03878079445
0.04427596175
0.05004881932
0.05579479604
0.06141645084
0.06680074851
0.07156080932
0.07566148548
0.07881497286
0.08105404802
0.08220297074
0.08244758962
0.08159337606
0.0800186793
0.07781193935
0.07506314066
0.07196968777
0.06865475216
0.06523032845
0.06178301705
0.05843744228
0.0552039229
0.05208386142
0.01562454428
0.01853268952
0.02239134789
0.02785614171
0.03246939096
0.0376309675
0.04299863152
0.04844689598
0.05401900578
0.05956144953
0.06484122909
0.06951796926
0.07350739114
0.07660801025
0.07889625223
0.08016430024
0.08054062113
0.07984982867
0.07851461242
0.07650334611
0.0739212706
0.07101091018
0.06786167126
0.06460342861
0.06136943422
0.05816260529
0.05501310606
0.05202451359
0.01514745665
0.01804313689
0.02173963811
0.02663380724
0.03122961087
0.03606750749
0.04130546215
0.04661957278
0.05213154742
0.05746798907
0.06257351948
0.06721051879
0.0711548904
0.07424538504
0.0766015697
0.07789081869
0.07837449765
0.07793855386
0.07677695134
0.07493405115
0.07259679738
0.06993970979
0.06699914869
0.06395939791
0.06081908264
0.05773618809
0.05468942174
0.05176888745
0.01845796822
0.01680334659
0.02023077504
0.02383659221
0.02975250883
0.03448340905
0.03943892305
0.04457874618
0.04987761517
0.05495425324
0.05991968302
0.0644497159
0.0682779463
0.07142333154
0.07379106543
0.07523968327
0.07576626856
0.07560552769
0.07466262427
0.0730530796
0.07096992066
0.06853059107
0.06587703827
0.06302888691
0.06010789917
0.05717433164
0.05430255785
0.05146780617
0.01701334519
0.019639707
0.02266097645
0.02791550493
0.03231065413
0.03697691961
0.04181730172
0.04682103396
0.05178330658
0.05647538402
0.06068420098
0.06452189949
0.06770162281
0.07016103271
0.07164086218
0.07246347971
0.07248044066
0.07175573661
0.07052678454
0.06881565039
0.06664298176
0.06424767596
0.06171302572
0.05904347284
0.05638303898
0.05369055472
0.05106439526
0.01918927632
0.01746331506
0.0210277331
0.02454570719
0.03024473963
0.03477080404
0.03936882257
0.04405966243
0.04871427093
0.05318306826
0.05734437809
0.06093586188
0.06404090248
0.06641934002
0.06805514492
0.06907932944
0.06928624863
0.06884491465
0.06790507045
0.06653211107
0.06471270673
0.06264117726
0.06036226242
0.05796300858
0.05549437518
0.05305900264
0.05059795544
0.01747988424
0.01986873319
0.02230864201
0.02624108447
0.03240329147
0.03666860784
0.04110416975
0.04542058056
0.04961937518
0.05358043076
0.0571719094
0.06011353368
0.06256423981
0.06436037397
0.06544710683
0.06590253708
0.06577878752
0.06518210079
0.06405822193
0.0626365686
0.0608297535
0.05886547721
0.05674333717
0.05450024704
0.05222982048
0.04997446485
0.0197571153
0.01830646367
0.0214759944
0.02473213042
0.02984125996
0.03386457002
0.03796239618
0.04207507697
0.04602255489
0.04971262631
0.05310509128
0.05602807082
0.05849620019
0.06038970802
0.06168823651
0.0623665705
0.06254850284
0.0621539945
0.0613456405
0.06023379459
0.05882086878
0.05712183858
0.05529692545
0.05333199183
0.05130060765
0.04925785649
0.02163127145
0.01870224983
0.02230882484
0.02581250005
0.03090453637
0.0346744875
0.03853968798
0.04225739729
0.04576140782
0.04893854272
0.05183329121
0.05420668297
0.05614126167
0.05758340988
0.05848538446
0.05887652223
0.05876963227
0.0583131295
0.05748059947
0.05631367187
0.05502005947
0.0534670548
0.05182945975
0.04910829953
0.04826854358
0.0185785631
0.02094044967
0.02306776245
0.02665326115
0.03156662018
0.03504697954
0.03855277074
0.04186084074
0.04483624657
0.04767298198
0.0499697273
0.05196106518
0.05344879323
0.05446373807
0.05509429482
0.05530379201
0.05515950847
0.05460979854
0.05375973524
0.05273287022
0.05150656588
0.04920732532
0.05058456993
0.04522391371
0.02070278218
0.01880323818
0.02145742221
0.02326631317
0.02786955723
0.02970300943
0.0347906604
0.03793389169
0.04081282021
0.04334416158
0.04568869793
0.04759694242
0.04924455179
0.05043905875
0.0511627939
0.05159864902
0.0517221487
0.05146594162
0.05094266402
0.05016640336
0.04830559967
0.04989439369
0.04440861103
0.04213335019
0.02146356861
0.02004260381
0.02180680279
0.02386561381
0.02624498234
0.02969180285
0.03405281754
0.03673548753
0.03926206376
0.04148580851
0.0434482667
0.04504123569
0.04633004506
0.04728641362
0.04790897581
0.04820260073
0.04815979133
0.04675580737
0.04743722597
0.04775056781
0.04351579018
0.04013678032
0.05758977996
0.02506871803
0.0216496258
0.02429454716
0.02565081926
0.02963523886
0.03218692523
0.03336851105
0.03735773667
0.03930774443
0.04088154506
0.04226088855
0.04329743719
0.04284052169
0.04410781847
0.04401564402
0.04532174494
0.04228819975
0.03759552006
0.0462356802
0.05305090282
0.02439266186
0.02256818135
0.02399646773
0.0261412019
0.02752018009
0.02899658168
0.03261637628
0.03425690022
0.03586097526
0.03716418967
0.03856537062
0.04046292555
0.03842801932
0.04032102549
0.04069392212
0.03722510445
0.05269418925
0.02662951595
0.02463687051
0.02491399675
0.02795661705
0.02910569134
0.03072276918
0.03219148808
0.03365535819
0.03482506101
0.03571659078
0.03322487177
0.03917031329
0.03859822252
0.04770597827
0.02829685623
0.02492640631
0.02616050283
0.02755046714
0.02923948941
0.03066482469
0.03180536493
0.03306697675
0.04157497236
0.01394728624
0.01753705452
0.02198465532
0.02657471476
0.0316924151
0.0373691502
0.04336349303
0.05010680332
0.05700019066
0.06393297455
0.07085678013
0.07731434868
0.08329523325
0.08823999069
0.09197948346
0.09430700443
0.09531139566
0.0949535215
0.09329722643
0.09051337073
0.08696249479
0.08286523776
0.07842753295
0.07388364714
0.06934544062
0.06496389572
0.0607719734
0.05683523093
0.05315350582
0.04973987091
0.01388426164
0.01699756128
0.02029621765
0.02647538315
0.03152259447
0.03715163121
0.04328276826
0.0499077699
0.05663858944
0.06372110347
0.07051368033
0.07692199128
0.0827699972
0.08762117956
0.09137900514
0.09381363912
0.09469570045
0.09434179086
0.09272414075
0.0900189753
0.08659142963
0.08250581173
0.07818578227
0.07369808262
0.06919072262
0.06484038687
0.06072716726
0.05679164959
0.05310898199
0.04971576041
0.0141351709
0.01693331439
0.02013935945
0.02597065258
0.03091081532
0.03648436225
0.0425499605
0.04884791443
0.05566885706
0.06244937366
0.06922217984
0.07564689783
0.08130146968
0.08619809587
0.08993747279
0.09238266533
0.09350005125
0.09322876886
0.09171789935
0.08909671929
0.08580725358
0.08192280419
0.07771035621
0.07339119092
0.06898378525
0.06468033867
0.0605758645
0.05672621066
0.05306922025
0.04972730872
0.01361253508
0.01629002007
0.01987369608
0.02527926164
0.03024620992
0.03560699955
0.04159572079
0.04786825429
0.0544545765
0.06114370528
0.06773184951
0.07403183631
0.07974706653
0.08446097322
0.0881990453
0.0907728077
0.09185007593
0.09168796765
0.09033489198
0.08804710137
0.08485865626
0.08113641692
0.07710506665
0.07289266022
0.068677976
0.06451221555
0.06052525358
0.05672087651
0.05313447715
0.04979832583
0.01336465106
0.01596131516
0.01946850781
0.0245425762
0.02941305605
0.03471433777
0.04030018933
0.04652623589
0.05295576792
0.05941129105
0.06588617341
0.07206371099
0.07772026363
0.08242347778
0.0860969066
0.08862627873
0.08985229751
0.08987704653
0.08861853662
0.08648959007
0.08363044323
0.08013547652
0.07628371509
0.07225031996
0.06816676951
0.06421570204
0.06033488197
0.05665112649
0.05315909911
0.04989642254
0.01608069312
0.01499339099
0.018859984
0.02353807841
0.02811181988
0.03315903356
0.03870535594
0.04445577517
0.0507313441
0.05703126539
0.06316583551
0.06910456437
0.07468518213
0.07934339937
0.08293098023
0.08555844725
0.08690859393
0.08713398318
0.08621281537
0.08440497117
0.08179078336
0.07866516086
0.07510047015
0.07137842732
0.06754614552
0.06370539607
0.06000889584
0.05643492699
0.05304280301
0.04985920737
0.01458516096
0.01759119949
0.02091306736
0.02678171901
0.03158262378
0.03685697399
0.04255457831
0.04853389606
0.05448150674
0.06056797198
0.06618568603
0.07148777722
0.07603564166
0.07975924178
0.08232418945
0.0838242145
0.08426869835
0.08357189737
0.08206718913
0.07974621002
0.07690155837
0.07368815633
0.07026659869
0.06665632945
0.06308818386
0.05958138553
0.05614920698
0.05290630107
0.04986394466
0.01394882924
0.0170319642
0.01999920993
0.02518471482
0.029772226
0.03481665662
0.04008115721
0.04560319933
0.05133891304
0.05708758956
0.06256451775
0.06765422463
0.07201076882
0.07569692278
0.07839236254
0.07994178483
0.08065300085
0.08029729599
0.07902167794
0.07717342455
0.07470336723
0.07182023384
0.06873604898
0.06546233071
0.0621351634
0.0588651694
0.0557002351
0.05264446055
0.04975016121
0.01656049969
0.01491106845
0.01837911064
0.02179224812
0.02776278263
0.03247999995
0.03742408994
0.04268739527
0.04803708776
0.05348913786
0.05866170706
0.06343310891
0.06776475799
0.07134596659
0.07397381947
0.07575151154
0.07661293558
0.07657756267
0.07574661558
0.07421504139
0.07221326417
0.0697520823
0.0669838117
0.06414134802
0.06114152164
0.05813410001
0.05513691854
0.05224132248
0.04947814519
0.015362628
0.01783138029
0.02083749615
0.02594861488
0.03031221463
0.03505202309
0.03997930691
0.0450615202
0.0500566069
0.05493716915
0.05948160514
0.06361649628
0.06713630457
0.06978251735
0.07181409412
0.07279916447
0.07300239087
0.07253844607
0.07140460392
0.0696961615
0.06767271395
0.06528761182
0.06268649309
0.06002929312
0.05725506604
0.05456915553
0.05188975851
0.04927864148
0.01701408099
0.01539752798
0.01873931031
0.02211398131
0.0276064744
0.03211937485
0.03656386848
0.04129040218
0.04598692038
0.05069702023
0.05491419877
0.05881224107
0.06218918493
0.06502334045
0.06698905727
0.06832738684
0.06886325668
0.06871258597
0.06799987422
0.06678838476
0.06513565386
0.06315467707
0.06093108969
0.05857749792
0.05612598082
0.05365975185
0.0512157689
0.04883735176
0.01550812664
0.01759799139
0.01982303324
0.023470485
0.02928536815
0.03345130279
0.03780669761
0.04220940125
0.04646600374
0.05051428367
0.05423719587
0.05754972869
0.06027785201
0.0623226564
0.06376760521
0.06462085232
0.06475835209
0.06438125206
0.06349016245
0.06221622389
0.06064134234
0.05886261825
0.05680454181
0.05473969371
0.05257301538
0.05037834904
0.04818193461
0.01700651621
0.01586834804
0.0187935707
0.02171132259
0.02635329341
0.03017246091
0.03409618864
0.03814011097
0.0421098652
0.04592966863
0.04937893794
0.05250306745
0.05517466571
0.05736759581
0.05898792189
0.05999297752
0.06043682378
0.06044752813
0.06001761017
0.05910224008
0.05790335249
0.05647961012
0.05483679036
0.05301556684
0.051181347
0.04926238075
0.04732621073
0.01895408915
0.01608485238
0.01941162907
0.02264494681
0.02716570834
0.03071258796
0.03439063925
0.03796470185
0.041446547
0.0447750272
0.04771355351
0.05031632217
0.05243421274
0.05409023548
0.05535637948
0.05606725198
0.05636617335
0.05620188195
0.05565774311
0.05483589997
0.05374463107
0.05247795776
0.0510616763
0.04949971244
0.04792104209
0.04614439026
0.01942634893
0.01719855945
0.01952042338
0.02358091284
0.02557682162
0.03071141447
0.03394681465
0.03710273216
0.04014226535
0.04298132004
0.04546947066
0.04763989455
0.04936678475
0.05068295291
0.05159162784
0.05210226944
0.05228443679
0.05209552572
0.05164438109
0.05095587507
0.04997929643
0.04886079206
0.04761261427
0.04555387613
0.04707421841
0.02011383061
0.01808752235
0.02000944308
0.02216213772
0.02557077519
0.03012494239
0.03305928691
0.03586387218
0.03844308206
0.04088843023
0.04296010987
0.04468712796
0.0462302666
0.04726246848
0.04795882075
0.04840091452
0.04848855378
0.04829460892
0.04789781936
0.04727765836
0.04546170234
0.04551722076
0.04544317846
0.04081373291
0.02088420239
0.01793559802
0.02040926464
0.0218286391
0.02608156075
0.02750604942
0.03188125582
0.0342734884
0.03651542556
0.03854722217
0.04029081891
0.0417176241
0.04296167353
0.04384891118
0.04442904658
0.0447629963
0.04485007656
0.04469966457
0.0433512026
0.04540975567
0.04122507788
0.03646459586
0.04433803438
0.0203916212
0.01894007564
0.02027161714
0.02187277931
0.02345979439
0.02753056493
0.02873416572
0.0324131677
0.03423632645
0.03608255029
0.03752727436
0.03874396513
0.0397291324
0.04047977792
0.0398345499
0.0409965098
0.04072851044
0.04188672393
0.03881325086
0.03633442338
0.05101841965
0.02222335656
0.02046511465
0.02168207947
0.02319268375
0.02446953224
0.02781733318
0.02945476986
0.03104625395
0.03241868003
0.0335654538
0.03482330088
0.03582981309
0.03757909804
0.03558256022
0.03733142679
0.03303569968
0.04036432668
0.04660069402
0.0237591809
0.02067023795
0.02365238814
0.02385169641
0.0260058726
0.02733014359
0.02871063275
0.03008019784
0.03120954591
0.03227427415
0.02898922629
0.03568240172
0.03477714455
0.04320092799
0.02669362918
0.02332721199
0.02457926262
0.02586308597
0.02708450748
0.02834628347
0.02943279468
0.03719665186
0.0118777696
0.01410624113
0.01738330053
0.02272050334
0.02756228778
0.0331659199
0.03944181463
0.04632615334
0.05370325587
0.06169643894
0.06975233519
0.0776964761
0.08552208864
0.09241759721
0.09824938365
0.1027528001
0.1054695847
0.1063870577
0.1056322207
0.1032037803
0.09935741259
0.0946246439
0.0892224021
0.0836029064
0.0778812371
0.07237041979
0.06716742046
0.06227024869
0.05774035254
0.05361029281
0.04982046636
0.04639609635
0.01180014877
0.01397111423
0.0173642359
0.02246015489
0.02731235438
0.03285528332
0.03894166938
0.04594306337
0.05331130277
0.06122357494
0.06909213737
0.07717757324
0.08473374383
0.09159308706
0.09737570717
0.1018825044
0.104696685
0.1057499072
0.1048793989
0.1024864856
0.09879419899
0.09415238002
0.08894206223
0.08334517353
0.07774223059
0.07226191215
0.06706458462
0.06221218766
0.05769660664
0.05357426336
0.04987467566
0.04646327652
0.01170978301
0.01391369708
0.01723228271
0.022178697
0.02695700036
0.03239758396
0.03855911659
0.04538910713
0.05271427717
0.06036273597
0.06832741206
0.07628699091
0.08372547553
0.09052470883
0.09629430155
0.1007519026
0.1035284866
0.1046103956
0.1038712479
0.1016587946
0.09811394405
0.09352125871
0.08834658857
0.08304645269
0.07755989668
0.07215514
0.06705493801
0.06222586546
0.05774949665
0.05367412391
0.04995852054
0.04657287107
0.01425834236
0.01337978461
0.01690588998
0.02169767567
0.02640607698
0.03182786072
0.0376862802
0.04434440796
0.05159459477
0.05904286199
0.06684897452
0.07460585849
0.08201967412
0.08884812664
0.09455178474
0.09888809246
0.1017348086
0.1029411647
0.1023303393
0.1002966678
0.09699214665
0.09271693425
0.08776522766
0.08254478787
0.07721942438
0.071994952
0.06695737451
0.06221303374
0.05785029266
0.0538542711
0.050141781
0.04676051074
0.01327351724
0.01633787242
0.02080686231
0.02535730757
0.03048081942
0.03623987732
0.04270327592
0.04948826069
0.05686441554
0.06449316331
0.07200276318
0.07916557131
0.0857760623
0.09153130294
0.09591200407
0.09883255003
0.1002259722
0.09990447148
0.09810954409
0.09506038533
0.09117819928
0.08659139597
0.08161471934
0.07661998516
0.07155992966
0.06669531801
0.06213674765
0.0578808776
0.05393045512
0.05029007672
0.04695646163
0.01216584072
0.01533951659
0.01840865841
0.02416426354
0.02923200575
0.03473532481
0.04083094305
0.04744843262
0.05451216401
0.06174951238
0.06905829466
0.07592439795
0.08243938922
0.08796635908
0.09231604677
0.09523672945
0.0967697877
0.09670527131
0.09528518469
0.0926716772
0.08908652133
0.08493574981
0.08033460195
0.07559030545
0.0708725995
0.06627030202
0.06189125677
0.057761216
0.05393746411
0.05043015589
0.04717615868
0.01221858909
0.01491475238
0.01786782391
0.02315868712
0.02784833643
0.03309504225
0.03901999531
0.04541732119
0.05204677545
0.05907018672
0.06600906368
0.07278611355