/*--------------------------------*- C++ -*----------------------------------*\
| =========                 |                                                 |
| \\      /  F ield         | OpenFOAM: The Open Source CFD Toolbox           |
|  \\    /   O peration     | Version:  v1706                                 |
|   \\  /    A nd           | Web:      www.OpenFOAM.com                      |
|    \\/     M anipulation  |                                                 |
\*---------------------------------------------------------------------------*/
FoamFile
{
    version     2.0;
    format      ascii;
    class       volScalarField;
    location    "3.2711";
    object      rhoM_O2;
}
// * * * * * * * * * * * * * * * * * * * * * * * * * * * * * * * * * * * * * //

dimensions      [1 -3 0 0 0 0 0];


internalField   nonuniform List<scalar> 
60268
(
3.855376561e-08
3.948782199e-08
4.045059335e-08
4.159039755e-08
4.26934393e-08
4.385386827e-08
4.495919229e-08
4.620246786e-08
4.72793785e-08
4.839883024e-08
4.907858803e-08
4.762493335e-08
3.996568551e-08
4.054999549e-08
4.149533201e-08
4.257521751e-08
4.37230772e-08
4.491754512e-08
4.601813978e-08
4.713739973e-08
4.837960333e-08
4.917990933e-08
4.055147757e-08
4.042183546e-08
4.140347932e-08
4.250215459e-08
4.362227297e-08
4.474362542e-08
4.584227564e-08
4.707580323e-08
4.123754063e-08
6.055431326e-08
4.861792987e-08
4.070535276e-08
4.140356388e-08
4.246401105e-08
4.346943003e-08
4.463784694e-08
4.582353569e-08
4.717374853e-08
4.943602789e-08
5.102636487e-08
4.159148065e-08
4.219652765e-08
4.331154755e-08
4.4467543e-08
3.897222022e-08
4.829514692e-08
5.672833352e-08
5.095994705e-08
4.209543165e-08
4.265738425e-08
4.423199729e-08
5.559534569e-08
3.615252462e-08
3.668010898e-08
3.726518127e-08
3.809781105e-08
3.924557835e-08
4.041449235e-08
4.156013346e-08
4.277651966e-08
4.404173007e-08
4.533816999e-08
4.66349274e-08
4.79032248e-08
4.910787231e-08
5.021984575e-08
5.108956419e-08
5.149445215e-08
5.231773495e-08
5.312400535e-08
5.347042481e-08
5.37144706e-08
3.58561493e-08
3.683778078e-08
3.748513653e-08
3.774887947e-08
3.870809892e-08
3.893914231e-08
4.178023704e-08
4.297334712e-08
4.42096802e-08
4.547537507e-08
4.675230946e-08
4.798048177e-08
4.914628498e-08
5.023322145e-08
5.097862678e-08
5.146905015e-08
5.233571556e-08
5.302639983e-08
5.377251294e-08
5.371842726e-08
3.567163203e-08
3.676052857e-08
3.739560021e-08
3.833559994e-08
3.963136154e-08
3.98932874e-08
4.159953746e-08
4.277838738e-08
4.40168968e-08
4.525674287e-08
4.65225858e-08
4.77644646e-08
4.892808945e-08
4.966396215e-08
5.220987899e-08
5.081350102e-08
5.218426495e-08
5.299515458e-08
4.671292737e-08
6.636162064e-08
3.540540288e-08
3.659217599e-08
3.728565711e-08
3.791807228e-08
3.842640848e-08
3.914680042e-08
3.966118753e-08
4.238484241e-08
4.360349855e-08
4.484846779e-08
4.608691689e-08
4.733607301e-08
4.850265882e-08
5.037909384e-08
4.818589329e-08
5.154676502e-08
5.196005054e-08
5.279694564e-08
5.511823063e-08
4.418184881e-08
3.63965467e-08
3.736333523e-08
3.809749645e-08
3.885910457e-08
3.981983351e-08
3.986634501e-08
4.065972272e-08
4.338269913e-08
4.459700499e-08
4.580728576e-08
4.663528454e-08
4.876836333e-08
4.952998353e-08
4.88051348e-08
5.050916828e-08
5.166367574e-08
5.25314162e-08
5.300078267e-08
3.720566839e-08
3.709437378e-08
3.775911136e-08
3.854559824e-08
3.944083787e-08
4.0463125e-08
3.998811071e-08
4.265625257e-08
4.395607636e-08
4.507404553e-08
4.751557239e-08
4.531618356e-08
4.718432003e-08
4.975771876e-08
5.034279878e-08
5.136673224e-08
4.525694918e-08
6.443598298e-08
4.464229368e-08
3.673761219e-08
3.793872536e-08
3.871405408e-08
3.954916687e-08
4.03874379e-08
4.206174413e-08
4.255136535e-08
4.344665651e-08
4.465702617e-08
4.521494681e-08
4.733326788e-08
4.78760767e-08
4.916957964e-08
5.029672462e-08
4.409689466e-08
6.548779307e-08
4.693428657e-08
3.736156566e-08
3.856000636e-08
3.942420569e-08
4.03019115e-08
4.140595669e-08
4.23919266e-08
4.339379135e-08
4.439878902e-08
4.552053448e-08
4.665605853e-08
4.777763278e-08
4.883120822e-08
4.297771121e-08
6.394006197e-08
4.765945294e-08
3.781275139e-08
3.899675914e-08
3.997555896e-08
4.095437961e-08
4.191845517e-08
4.305356024e-08
4.400802768e-08
4.504852687e-08
4.611240157e-08
4.731313009e-08
4.167833903e-08
6.178121659e-08
4.643779887e-08
4.025034872e-08
3.934382123e-08
4.055665494e-08
4.149594995e-08
4.247235619e-08
4.355473836e-08
4.46303996e-08
3.970939531e-08
4.817590176e-08
5.807246108e-08
4.829317927e-08
3.993285622e-08
4.091957302e-08
4.19599732e-08
4.308110298e-08
4.405018154e-08
5.5035776e-08
3.505836113e-08
3.568474273e-08
3.602445168e-08
3.699051948e-08
3.820595634e-08
3.919644515e-08
4.026084674e-08
4.140824447e-08
4.267410775e-08
4.401567774e-08
4.539193199e-08
4.680797327e-08
4.822828495e-08
4.959630079e-08
5.088024603e-08
5.203459877e-08
5.300743181e-08
5.381317598e-08
5.43680995e-08
5.474394156e-08
5.48818294e-08
5.481117103e-08
5.451396592e-08
5.383517998e-08
3.475380031e-08
3.53813123e-08
3.600012496e-08
3.685860866e-08
3.781675193e-08
3.879597178e-08
3.987780727e-08
4.109501824e-08
4.238592856e-08
4.374205219e-08
4.517235383e-08
4.661842616e-08
4.807600586e-08
4.945875988e-08
5.074646076e-08
5.192233484e-08
5.292389594e-08
5.374363402e-08
5.431192316e-08
5.467573385e-08
5.480262704e-08
5.4747079e-08
5.452840567e-08
5.372268152e-08
3.454953829e-08
3.551908279e-08
3.594751495e-08
3.688663347e-08
3.78138313e-08
3.874154618e-08
3.974799042e-08
4.089391373e-08
4.212456128e-08
4.344451009e-08
4.48493734e-08
4.628204783e-08
4.770121285e-08
4.909186643e-08
5.039603406e-08
5.15721653e-08
5.260313016e-08
5.342180125e-08
5.40247232e-08
5.444002979e-08
5.462020998e-08
5.406600746e-08
5.583088313e-08
5.306200607e-08
3.43590121e-08
3.525549464e-08
3.595163205e-08
3.680941798e-08
3.766220774e-08
3.86010282e-08
3.965313116e-08
4.079612075e-08
4.203732626e-08
4.337526869e-08
4.47324472e-08
4.612078204e-08
4.752359931e-08
4.889123494e-08
5.016200618e-08
5.132593964e-08
5.232213453e-08
5.316989875e-08
5.380460351e-08
5.420451236e-08
5.440743316e-08
5.498551024e-08
5.203246638e-08
5.442689293e-08
4.279858335e-08
3.481220989e-08
3.524921294e-08
3.580775036e-08
3.596551658e-08
3.821968806e-08
3.925971124e-08
4.038833983e-08
4.159028856e-08
4.287393651e-08
4.420967538e-08
4.560644629e-08
4.699236618e-08
4.832243427e-08
4.959146384e-08
5.074857179e-08
5.178012662e-08
5.263592252e-08
5.328662507e-08
5.375879277e-08
5.401866141e-08
5.402097174e-08
5.343140229e-08
5.345342491e-08
3.612826424e-08
3.602677882e-08
3.712016787e-08
3.702151487e-08
3.838648752e-08
3.935937099e-08
4.039416392e-08
4.152733715e-08
4.270475199e-08
4.392997062e-08
4.520192181e-08
4.647873638e-08
4.776973326e-08
4.900450619e-08
5.012867661e-08
5.113407908e-08
5.199653409e-08
5.269217832e-08
5.320665148e-08
5.298294773e-08
5.48622315e-08
5.256943498e-08
5.314070573e-08
4.307536355e-08
3.51291684e-08
3.557015655e-08
3.624157435e-08
3.660165514e-08
3.862141988e-08
3.963582402e-08
4.072356443e-08
4.189992739e-08
4.314337562e-08
4.4421758e-08
4.571506553e-08
4.697193484e-08
4.820414114e-08
4.935675421e-08
5.038904826e-08
5.128393251e-08
5.199658808e-08
5.213871086e-08
5.51877395e-08
5.026702799e-08
5.382015986e-08
4.868811618e-08
3.636484923e-08
3.636740481e-08
3.688893387e-08
3.664815578e-08
3.736490896e-08
3.958053836e-08
4.058755561e-08
4.166139673e-08
4.279429245e-08
4.396781631e-08
4.516571191e-08
4.636439293e-08
4.753339669e-08
4.864194246e-08
4.962003986e-08
5.047614738e-08
5.082972941e-08
5.400622961e-08
4.952069106e-08
5.288279166e-08
4.627363527e-08
6.509031451e-08
4.334992448e-08
3.534820096e-08
3.652064916e-08
3.713387312e-08
3.699403292e-08
3.784415288e-08
4.003030121e-08
4.106909906e-08
4.21768479e-08
4.330014656e-08
4.442977999e-08
4.556490852e-08
4.666814513e-08
4.772139396e-08
4.86762697e-08
4.913801599e-08
5.23747977e-08
4.826110912e-08
5.170941096e-08
5.20114265e-08
5.489572032e-08
4.55794359e-08
3.594325743e-08
3.712996948e-08
3.780617677e-08
3.705766184e-08
4.011918458e-08
3.934418022e-08
4.172737163e-08
4.277853247e-08
4.383433076e-08
4.489734164e-08
4.595349452e-08
4.646605466e-08
4.846249447e-08
4.991774092e-08
4.686834762e-08
5.041544519e-08
5.085654953e-08
4.498698051e-08
6.348650298e-08
4.593695001e-08
3.60467062e-08
3.718709368e-08
3.864060841e-08
3.811360077e-08
3.808658198e-08
4.077505293e-08
4.16920927e-08
4.265939568e-08
4.35837133e-08
4.477415024e-08
4.703319305e-08
4.478815573e-08
4.665585084e-08
4.901607257e-08
4.951484325e-08
4.382740437e-08
6.419962304e-08
4.591228684e-08
3.65546054e-08
3.78259102e-08
3.839368054e-08
3.999345867e-08
4.024542354e-08
4.111618306e-08
4.21149778e-08
4.303477751e-08
4.392550684e-08
4.441222653e-08
4.653727053e-08
4.704165811e-08
4.173098479e-08
5.129181163e-08
6.04365969e-08
4.540007005e-08
3.916116993e-08
3.787926888e-08
3.927048854e-08
3.993345016e-08
4.081954599e-08
4.160962928e-08
4.258827829e-08
4.34076703e-08
4.445234608e-08
3.95878166e-08
4.79727517e-08
5.732298195e-08
4.635149049e-08
3.843327875e-08
3.91220849e-08
4.011224002e-08
4.104524837e-08
4.204564336e-08
4.294786498e-08
4.380700005e-08
5.462318499e-08
3.414434601e-08
3.448389307e-08
3.489238864e-08
3.554726122e-08
3.618570073e-08
3.696103268e-08
3.789192517e-08
3.897136866e-08
4.018958328e-08
4.154592574e-08
4.303997635e-08
4.465232106e-08
4.63313061e-08
4.803399992e-08
4.972355481e-08
5.134576368e-08
5.281823868e-08
5.407763909e-08
5.510127241e-08
5.585348855e-08
5.633125821e-08
5.65548691e-08
5.644916267e-08
5.611535704e-08
5.554874177e-08
5.479227962e-08
5.389880649e-08
3.402599085e-08
3.445369471e-08
3.478799955e-08
3.555093698e-08
3.631092789e-08
3.706409105e-08
3.794692459e-08
3.894227149e-08
4.006573373e-08
4.136640209e-08
4.279254954e-08
4.43350911e-08
4.596713663e-08
4.76475134e-08
4.930314647e-08
5.09018755e-08
5.238452422e-08
5.367902943e-08
5.471686542e-08
5.551213532e-08
5.598610699e-08
5.621867434e-08
5.617512867e-08
5.589821441e-08
5.536577611e-08
5.467175912e-08
5.380899777e-08
4.18749657e-08
3.395280427e-08
3.470949635e-08
3.534339801e-08
3.587094661e-08
3.663413121e-08
3.754929214e-08
3.859711722e-08
3.978134244e-08
4.113404827e-08
4.260059008e-08
4.415932004e-08
4.579972904e-08
4.748569087e-08
4.915392108e-08
5.074768629e-08
5.216431271e-08
5.345210132e-08
5.44966176e-08
5.527225407e-08
5.576417296e-08
5.602735729e-08
5.602962262e-08
5.577793391e-08
5.528730691e-08
5.460977078e-08
5.378405054e-08
3.527060916e-08
3.511197358e-08
3.578216324e-08
3.652658298e-08
3.734511191e-08
3.825346548e-08
3.927782485e-08
4.042787713e-08
4.168624809e-08
4.306787441e-08
4.454282244e-08
4.609477208e-08
4.767082886e-08
4.924200026e-08
5.074813711e-08
5.216214043e-08
5.337835496e-08
5.439648793e-08
5.517510855e-08
5.568595593e-08
5.593485288e-08
5.592181728e-08
5.570146864e-08
5.526553044e-08
5.464223233e-08
5.384636966e-08
3.375770598e-08
3.431063499e-08
3.475350749e-08
3.468357288e-08
3.702760261e-08
3.793882133e-08
3.892194323e-08
4.00150638e-08
4.123978826e-08
4.258141959e-08
4.402032492e-08
4.552719573e-08
4.707920186e-08
4.862491979e-08
5.012177544e-08
5.150806525e-08
5.273563546e-08
5.377837477e-08
5.45899188e-08
5.51516247e-08
5.548453454e-08
5.554666832e-08
5.537891383e-08
5.502740201e-08
5.44783878e-08
5.372588549e-08
3.344216717e-08
3.483363449e-08
3.570730209e-08
3.548297101e-08
3.64830785e-08
3.730043937e-08
3.823538938e-08
3.931318583e-08
4.05105669e-08
4.183256682e-08
4.325424801e-08
4.47445119e-08
4.62786898e-08
4.779841977e-08
4.928324807e-08
5.069046219e-08
5.190693389e-08
5.296671579e-08
5.383120998e-08
5.44586195e-08
5.483261049e-08
5.498899038e-08
5.490626131e-08
5.462069615e-08
5.415557886e-08
5.350738242e-08
4.178860227e-08
3.38476281e-08
3.439727822e-08
3.481252247e-08
3.485233198e-08
3.724869824e-08
3.814599094e-08
3.914645378e-08
4.024549726e-08
4.146393557e-08
4.27745479e-08
4.415792415e-08
4.556839469e-08
4.700203728e-08
4.840829353e-08
4.974073662e-08
5.096232544e-08
5.203138047e-08
5.292215408e-08
5.358751235e-08
5.404597611e-08
5.430350729e-08
5.432229257e-08
5.413218675e-08
5.374048708e-08
5.320978475e-08
3.52241737e-08
3.532944978e-08
3.626457594e-08
3.608579171e-08
3.70513667e-08
3.784820902e-08
3.875573175e-08
3.976687056e-08
4.09028642e-08
4.211434324e-08
4.340651501e-08
4.473983348e-08
4.612105135e-08
4.747436248e-08
4.875575746e-08
4.993787369e-08
5.09964232e-08
5.188450614e-08
5.26087516e-08
5.313082635e-08
5.347125804e-08
5.358067901e-08
5.34919514e-08
5.266376073e-08
5.600479273e-08
4.224445632e-08
3.405397864e-08
3.460500581e-08
3.514125987e-08
3.541266228e-08
3.758914516e-08
3.848455786e-08
3.947059616e-08
4.053828225e-08
4.167380831e-08
4.289725501e-08
4.417647162e-08
4.541918143e-08
4.666555047e-08
4.789781346e-08
4.904917254e-08
5.006563845e-08
5.098713998e-08
5.173816407e-08
5.231760418e-08
5.272948187e-08
5.292802377e-08
5.293042601e-08
5.346432493e-08
5.040283248e-08
4.406696472e-08
3.453882406e-08
3.572948869e-08
3.516944977e-08
3.57215218e-08
3.783163738e-08
3.873988927e-08
3.973472351e-08
4.083537572e-08
4.19802534e-08
4.319155275e-08
4.441973011e-08
4.565826816e-08
4.685409716e-08
4.798377556e-08
4.905386429e-08
4.999838074e-08
5.077700539e-08
5.140615637e-08
5.187421342e-08
5.218209965e-08
5.165807126e-08
5.387219177e-08
5.100763077e-08
3.562748725e-08
3.558217171e-08
3.602602504e-08
3.561341899e-08
3.635037186e-08
3.867851916e-08
3.961137821e-08
4.059663813e-08
4.163963437e-08
4.272480092e-08
4.385593057e-08
4.499679361e-08
4.611403543e-08
4.718960694e-08
4.81869729e-08
4.908916977e-08
4.988424201e-08
5.054043081e-08
5.107448797e-08
5.077435259e-08
5.397188419e-08
4.904315585e-08
5.218964493e-08
4.272919977e-08
3.446181827e-08
3.587699795e-08
3.637453458e-08
3.605853678e-08
3.688394576e-08
3.899821052e-08
3.992781549e-08
4.0907232e-08
4.189847213e-08
4.295258282e-08
4.4007182e-08
4.503720996e-08
4.605379343e-08
4.702832902e-08
4.792623271e-08
4.873451223e-08
4.87931915e-08
5.043623843e-08
5.179966259e-08
4.829389682e-08
4.54298001e-08
5.495681793e-08
4.45362642e-08
3.476595787e-08
3.608438849e-08
3.667245399e-08
3.570868519e-08
3.873119231e-08
3.788138365e-08
3.99994553e-08
4.093497696e-08
4.189191589e-08
4.289368896e-08
4.39019475e-08
4.488547041e-08
4.582948382e-08
4.616654631e-08
4.799294592e-08
4.961974177e-08
4.677311644e-08
4.862063937e-08
4.442617014e-08
6.409838261e-08
4.31967847e-08
3.737158094e-08
3.555872864e-08
3.763590726e-08
3.699839699e-08
3.67165924e-08
3.930233726e-08
4.018696737e-08
4.088871417e-08
4.178334627e-08
4.255094014e-08
4.351925558e-08
4.447412689e-08
4.673820571e-08
4.428938433e-08
4.619695868e-08
4.860588985e-08
4.244261285e-08
6.227139171e-08
4.569847425e-08
3.594945205e-08
3.702142986e-08
3.835760999e-08
3.857748525e-08
3.933280518e-08
4.019953656e-08
4.10262557e-08
4.183506057e-08
4.272378931e-08
4.354448569e-08
4.400242562e-08
4.61577847e-08
4.051363827e-08
4.940177691e-08
5.843476217e-08
4.45010581e-08
3.661239867e-08
3.91135831e-08
3.768049925e-08
3.905095922e-08
3.96970954e-08
4.04293801e-08
4.135561116e-08
4.215657856e-08
3.758651846e-08
4.534018587e-08
4.474540563e-08
5.562081932e-08
4.662461025e-08
3.840272953e-08
3.915943463e-08
3.992641984e-08
4.072651359e-08
4.150951452e-08
5.188088759e-08
3.384850528e-08
3.403365805e-08
3.471213741e-08
3.534117379e-08
3.602540307e-08
3.680948976e-08
3.773390179e-08
3.880395605e-08
4.002126587e-08
4.138352032e-08
4.288456606e-08
4.456931768e-08
4.637363758e-08
4.826802379e-08
5.016166754e-08
5.203646752e-08
5.38041749e-08
5.536236436e-08
5.666692956e-08
5.762876166e-08
5.825817633e-08
5.853746964e-08
5.844389216e-08
5.802470284e-08
5.735408853e-08
5.644572773e-08
5.535995607e-08
5.41610489e-08
5.283672646e-08
4.159503935e-08
3.36883199e-08
3.451406169e-08
3.506431399e-08
3.569606206e-08
3.643751048e-08
3.731642717e-08
3.83474546e-08
3.95082583e-08
4.086218659e-08
4.236598653e-08
4.401793173e-08
4.579709265e-08
4.767983272e-08
4.964324837e-08
5.154574975e-08
5.330074402e-08
5.488292967e-08
5.619680129e-08
5.719048577e-08
5.786127809e-08
5.815170319e-08
5.811110613e-08
5.776801702e-08
5.712383644e-08
5.626287905e-08
5.522769464e-08
5.403533565e-08
5.274301283e-08
3.417250839e-08
3.408009538e-08
3.375137885e-08
3.597851699e-08
3.679290903e-08
3.768625429e-08
3.869544775e-08
3.983513351e-08
4.109518884e-08
4.252807325e-08
4.410302369e-08
4.580944067e-08
4.760546912e-08
4.944599429e-08
5.125839045e-08
5.298305113e-08
5.452302712e-08
5.583661434e-08
5.68377244e-08
5.750004634e-08
5.7814273e-08
5.782539975e-08
5.753044422e-08
5.696603075e-08
5.614326113e-08
5.515704331e-08
5.401911192e-08
5.276187877e-08
3.401586922e-08
3.497905383e-08
3.453403071e-08
3.547052268e-08
3.615359321e-08
3.698321756e-08
3.795689779e-08
3.909688005e-08
4.040401607e-08
4.186248606e-08
4.349077897e-08
4.523151311e-08
4.705651669e-08
4.890341255e-08
5.0756788e-08
5.249816654e-08
5.408595036e-08
5.53802309e-08
5.641613816e-08
5.714789112e-08
5.753479818e-08
5.759702147e-08
5.735162452e-08
5.68383328e-08
5.607314738e-08
5.512064565e-08
5.403293139e-08
5.282273557e-08
3.338873831e-08
3.415132911e-08
3.489258183e-08
3.535783519e-08
3.599225379e-08
3.676520865e-08
3.767164932e-08
3.873203389e-08
3.996242729e-08
4.137799579e-08
4.293483968e-08
4.461006988e-08
4.638456387e-08
4.818536735e-08
4.998715917e-08
5.171633187e-08
5.329546176e-08
5.460670221e-08
5.569576032e-08
5.649264709e-08
5.694854547e-08
5.707818884e-08
5.69129029e-08
5.64831894e-08
5.585327175e-08
5.501591724e-08
5.401284517e-08
5.290843368e-08
3.318208289e-08
3.441377182e-08
3.51957732e-08
3.563510951e-08
3.631513438e-08
3.707826244e-08
3.796627281e-08
3.897260797e-08
4.013698109e-08
4.143021783e-08
4.286701319e-08
4.444847633e-08
4.610074243e-08
4.778943023e-08
4.949256778e-08
5.111176887e-08
5.261956068e-08
5.39300619e-08
5.501663205e-08
5.580099429e-08
5.631333121e-08
5.653618799e-08
5.6459313e-08
5.613054708e-08
5.554451823e-08
5.47930393e-08
5.387813614e-08
5.284739641e-08
4.150900627e-08
3.269378814e-08
3.395123608e-08
3.396686937e-08
3.575315198e-08
3.650622028e-08
3.737723142e-08
3.838415049e-08
3.954236067e-08
4.081666791e-08
4.224315239e-08
4.377919178e-08
4.536343471e-08
4.701034246e-08
4.866453258e-08
5.025850509e-08
5.173479747e-08
5.305485824e-08
5.414905767e-08
5.499046556e-08
5.554523704e-08
5.583557844e-08
5.588491087e-08
5.564422511e-08
5.518211136e-08
5.454618407e-08
5.374168719e-08
5.278580622e-08
3.529876944e-08
3.51652753e-08
3.47961438e-08
3.546414398e-08
3.609847077e-08
3.686793125e-08
3.776601529e-08
3.881556188e-08
4.000764632e-08
4.132118311e-08
4.272617431e-08
4.425321123e-08
4.58226936e-08
4.742566214e-08
4.8936598e-08
5.039288986e-08
5.17108237e-08
5.281722092e-08
5.371564826e-08
5.439402523e-08
5.479612833e-08
5.493529067e-08
5.484721781e-08
5.455166651e-08
5.406713588e-08
5.340606651e-08
5.260934661e-08
4.186028231e-08
3.287501547e-08
3.418643808e-08
3.428508898e-08
3.613516999e-08
3.68547875e-08
3.766956662e-08
3.858610751e-08
3.964199335e-08
4.081643513e-08
4.209554567e-08
4.344236609e-08
4.488851123e-08
4.633661992e-08
4.776315664e-08
4.915871072e-08
5.043145884e-08
5.155410195e-08
5.249940223e-08
5.324701861e-08
5.375492823e-08
5.403045255e-08
5.408280188e-08
5.393923822e-08
5.359569353e-08
5.309444379e-08
5.242015449e-08
3.510904838e-08
3.455013758e-08
3.385303829e-08
3.41733166e-08
3.621854354e-08
3.698375198e-08
3.788015822e-08
3.887576111e-08
3.998042697e-08
4.120258261e-08
4.251013314e-08
4.385298292e-08
4.52562175e-08
4.666117439e-08
4.799832133e-08
4.925702612e-08
5.038246076e-08
5.137686377e-08
5.21638408e-08
5.278059555e-08
5.315948079e-08
5.334590986e-08
5.331708196e-08
5.309060165e-08
5.271326701e-08
5.220217581e-08
4.191160562e-08
3.386159495e-08
3.561949191e-08
3.553675237e-08
3.632804015e-08
3.704064032e-08
3.78293491e-08
3.872703092e-08
3.972768438e-08
4.080362401e-08
4.196813227e-08
4.319854668e-08
4.448382234e-08
4.577304607e-08
4.70366695e-08
4.822201819e-08
4.932574795e-08
5.028969635e-08
5.111998432e-08
5.178784165e-08
5.228277067e-08
5.256432628e-08
5.268009675e-08
5.260615774e-08
5.235431954e-08
5.19807985e-08
4.373941379e-08
3.299992266e-08
3.443391994e-08
3.476620852e-08
3.634802321e-08
3.707188458e-08
3.790874391e-08
3.883052579e-08
3.984230582e-08
4.092395188e-08
4.20814741e-08
4.327187938e-08
4.448441091e-08
4.569627621e-08
4.68728903e-08
4.795958048e-08
4.894282748e-08
4.981680961e-08
5.054910993e-08
5.108896853e-08
5.150793192e-08
5.174929059e-08
5.184923068e-08
5.099379499e-08
5.171288148e-08
3.526703306e-08
3.515014528e-08
3.45112034e-08
3.519210539e-08
3.68914716e-08
3.764807369e-08
3.849053623e-08
3.940866516e-08
4.03717341e-08
4.142418298e-08
4.248757507e-08
4.360106811e-08
4.469046349e-08
4.576334251e-08
4.679246867e-08
4.774903587e-08
4.863000184e-08
4.936456222e-08
4.996929142e-08
5.044933244e-08
5.080348551e-08
5.035480551e-08
5.348449373e-08
4.923055476e-08
4.186538522e-08
3.377821536e-08
3.510381775e-08
3.415077335e-08
3.714570449e-08
3.587645852e-08
3.79069429e-08
3.872565113e-08
3.960060763e-08
4.051236707e-08
4.14935071e-08
4.24894043e-08
4.35128409e-08
4.451267546e-08
4.547498059e-08
4.639800212e-08
4.726911407e-08
4.805150143e-08
4.872445146e-08
4.927151621e-08
4.904872471e-08
5.225222835e-08
4.783048528e-08
4.651754613e-08
4.222034083e-08
3.627522181e-08
3.539636502e-08
3.528533561e-08
3.546728589e-08
3.638959507e-08
3.824047204e-08
3.902643166e-08
3.986241864e-08
4.072334072e-08
4.162536798e-08
4.25449606e-08
4.346613738e-08
4.435901251e-08
4.523353942e-08
4.605852269e-08
4.680428141e-08
4.679720534e-08
4.855061064e-08
5.002507948e-08
4.668789539e-08
4.400796526e-08
6.467945024e-08
4.511943969e-08
3.480255701e-08
3.620345846e-08
3.521241382e-08
3.787555761e-08
3.889829766e-08
3.802264014e-08
4.00777579e-08
4.088988465e-08
4.170426475e-08
4.255588142e-08
4.339722737e-08
4.360368699e-08
4.529372857e-08
4.555096206e-08
4.756832187e-08
4.50939089e-08
4.076859276e-08
5.108419622e-08
5.969306902e-08
4.29795908e-08
3.696134676e-08
3.621510074e-08
3.678462526e-08
3.673819113e-08
3.64072159e-08
3.897699482e-08
3.963860652e-08
4.039366774e-08
4.108421872e-08
4.204362472e-08
4.397023492e-08
4.186322385e-08
4.399632093e-08
4.458427098e-08
4.114844496e-08
5.923743711e-08
4.380280219e-08
3.792226961e-08
3.580335691e-08
3.808109951e-08
3.797629354e-08
3.870021389e-08
3.933096377e-08
4.010914012e-08
4.071314776e-08
4.120445238e-08
3.815325404e-08
4.498628591e-08
4.42313921e-08
5.495667442e-08
4.469346763e-08
3.706201569e-08
3.743995371e-08
3.797007859e-08
3.882852305e-08
3.952694992e-08
4.002264754e-08
4.069450518e-08
5.084076207e-08
3.358210154e-08
3.422915116e-08
3.460570478e-08
3.511272287e-08
3.574748434e-08
3.654288837e-08
3.74852416e-08
3.864482921e-08
3.997960299e-08
4.15132099e-08
4.327734761e-08
4.522947816e-08
4.736187261e-08
4.959253081e-08
5.185936728e-08
5.404629523e-08
5.60953545e-08
5.787312869e-08
5.925593137e-08
6.017141721e-08
6.064798649e-08
6.066067769e-08
6.026195205e-08
5.949126125e-08
5.841911615e-08
5.711939502e-08
5.566269594e-08
5.410245442e-08
5.247919973e-08
5.081006188e-08
3.307394866e-08
3.363803278e-08
3.311128106e-08
3.525514895e-08
3.59154486e-08
3.670755888e-08
3.764197523e-08
3.875818433e-08
4.003462158e-08
4.15412179e-08
4.32149791e-08
4.508694922e-08
4.715488756e-08
4.931045102e-08
5.153130403e-08
5.369222586e-08
5.569062225e-08
5.745584972e-08
5.884173638e-08
5.978264443e-08
6.029647669e-08
6.032638294e-08
5.99712496e-08
5.924875792e-08
5.821711006e-08
5.695950882e-08
5.556328229e-08
5.401701451e-08
5.240167249e-08
5.077663523e-08
3.389412053e-08
3.454202404e-08
3.406872025e-08
3.487404477e-08
3.547435798e-08
3.619771091e-08
3.709235616e-08
3.814129746e-08
3.940681873e-08
4.086804072e-08
4.2560206e-08
4.444170642e-08
4.647801625e-08
4.866703763e-08
5.089309045e-08
5.308160073e-08
5.511343184e-08
5.68880686e-08
5.829773462e-08
5.925630449e-08
5.983555395e-08
5.994368936e-08
5.965860323e-08
5.903783265e-08
5.80656811e-08
5.685388582e-08
5.547349976e-08
5.398803934e-08
5.241321976e-08
5.082590939e-08
3.332889385e-08
3.402651891e-08
3.454171315e-08
3.509608972e-08
3.571030306e-08
3.644094339e-08
3.732392032e-08
3.836632757e-08
3.958184248e-08
4.097155293e-08
4.256764368e-08
4.436929228e-08
4.633618521e-08
4.841636147e-08
5.055956117e-08
5.26752065e-08
5.462654639e-08
5.635436567e-08
5.777507676e-08
5.882745e-08
5.942318538e-08
5.958181323e-08
5.935742354e-08
5.877661769e-08
5.790644743e-08
5.67854482e-08
5.549527627e-08
5.40669422e-08
5.253858712e-08
5.097936442e-08
3.330077908e-08
3.39821095e-08
3.474422193e-08
3.523462906e-08
3.590109971e-08
3.666099555e-08
3.753804151e-08
3.857390966e-08
3.976690785e-08
4.111896302e-08
4.26631343e-08
4.436562641e-08
4.625507379e-08
4.823719585e-08
5.025191499e-08
5.225832389e-08
5.41504791e-08
5.582930456e-08
5.717855653e-08
5.821164428e-08
5.886913804e-08
5.909558533e-08
5.892302635e-08
5.844607256e-08
5.766050617e-08
5.666906055e-08
5.545662462e-08
5.411453221e-08
5.266121339e-08
5.11832887e-08
4.143685324e-08
3.311162126e-08
3.464321892e-08
3.481256277e-08
3.538340668e-08
3.607057371e-08
3.689593517e-08
3.784811417e-08
3.899261774e-08
4.029963341e-08
4.176252887e-08
4.341334758e-08
4.524230831e-08
4.715573554e-08
4.91134554e-08
5.108407676e-08
5.295545894e-08
5.465034876e-08
5.60697377e-08
5.717847185e-08
5.789304051e-08
5.825097269e-08
5.822985273e-08
5.7907784e-08
5.726486151e-08
5.636390837e-08
5.529591552e-08
5.404008495e-08
5.269074726e-08
5.127974243e-08
3.379705843e-08
3.361226756e-08
3.342197514e-08
3.534086809e-08
3.603950779e-08
3.685212285e-08
3.779330014e-08
3.888607787e-08
4.011030194e-08
4.151220446e-08
4.304216482e-08
4.473054401e-08
4.653072503e-08
4.841635545e-08
5.026979645e-08
5.205250143e-08
5.370718447e-08
5.509771524e-08
5.621921393e-08
5.699550265e-08
5.744064868e-08
5.753020629e-08
5.73245696e-08
5.68073513e-08
5.608707958e-08
5.51314031e-08
5.400651081e-08
5.277984577e-08
5.149897545e-08
3.328744369e-08
3.48768552e-08
3.447596699e-08
3.533351529e-08
3.598005803e-08
3.673989842e-08
3.759343223e-08
3.856230898e-08
3.969503409e-08
4.097984804e-08
4.241065898e-08
4.397118085e-08
4.563107887e-08
4.738205773e-08
4.916668088e-08
5.085004482e-08
5.244743513e-08
5.38391761e-08
5.494986269e-08
5.581946972e-08
5.634291851e-08
5.656618878e-08
5.649708047e-08
5.615616066e-08
5.556379062e-08
5.478044922e-08
5.383466106e-08
5.275568845e-08
5.159368167e-08
4.125019499e-08
3.233328496e-08
3.354856305e-08
3.335253774e-08
3.532489466e-08
3.598498153e-08
3.674566801e-08
3.766074949e-08
3.870291959e-08
3.99108477e-08
4.124836051e-08
4.272028689e-08
4.43226239e-08
4.600114724e-08
4.766904386e-08
4.930587673e-08
5.086771549e-08
5.226527851e-08
5.346070411e-08
5.440370052e-08
5.506801221e-08
5.544248853e-08
5.551610079e-08
5.538239091e-08
5.497406764e-08
5.437363442e-08
5.357881128e-08
5.265593494e-08
5.162422503e-08
3.477381353e-08
3.492397831e-08
3.468501445e-08
3.552384702e-08
3.623247086e-08
3.701789478e-08
3.789270494e-08
3.887157568e-08
3.995594468e-08
4.115071576e-08
4.245696213e-08
4.388113998e-08
4.538126313e-08
4.689235754e-08
4.842471007e-08
4.985320831e-08
5.117057963e-08
5.233832702e-08
5.329356054e-08
5.400292383e-08
5.447870877e-08
5.469955158e-08
5.46653663e-08
5.443758224e-08
5.397981411e-08
5.336928482e-08
5.259486436e-08
5.170232913e-08
4.135929366e-08
3.24001903e-08
3.383372154e-08
3.386689907e-08
3.572905006e-08
3.643385772e-08
3.721570356e-08
3.812600151e-08
3.914004092e-08
4.028915026e-08
4.150495859e-08
4.282478822e-08
4.421790272e-08
4.566874141e-08
4.70798806e-08
4.846843024e-08
4.976025632e-08
5.090422635e-08
5.190677959e-08
5.272339458e-08
5.330123544e-08
5.36685484e-08
5.380523488e-08
5.373379718e-08
5.344366655e-08
5.299019966e-08
5.240891254e-08
5.167980534e-08
3.469678404e-08
3.444632189e-08
3.376747474e-08
3.413018053e-08
3.626359796e-08
3.69945419e-08
3.780794542e-08
3.872759147e-08
3.971681663e-08
4.079639106e-08
4.196547249e-08
4.321639992e-08
4.451155986e-08
4.581624405e-08
4.71102894e-08
4.834536429e-08
4.9469477e-08
5.04767016e-08
5.130459057e-08
5.196264329e-08
5.245240399e-08
5.275471905e-08
5.282669575e-08
5.274028264e-08
5.248109272e-08
5.206273544e-08
5.15042862e-08
4.116569041e-08
3.323304498e-08
3.514191299e-08
3.500787134e-08
3.56229077e-08
3.626553852e-08
3.700444635e-08
3.784117878e-08
3.877350753e-08
3.979843955e-08
4.087964556e-08
4.203454688e-08
4.323356877e-08
4.446957732e-08
4.568918244e-08
4.685052909e-08
4.794617394e-08
4.896402308e-08
4.986908631e-08
5.058645886e-08
5.116380051e-08
5.158588677e-08
5.181443472e-08
5.185998654e-08
5.176761321e-08
5.150697183e-08
5.114031059e-08
4.348435532e-08
3.244442387e-08
3.414824688e-08
3.45755918e-08
3.599948577e-08
3.662028443e-08
3.73270316e-08
3.810227173e-08
3.896062618e-08
3.990650493e-08
4.091131256e-08
4.196861837e-08
4.305020778e-08
4.412616253e-08
4.522928659e-08
4.628622832e-08
4.727842229e-08
4.818197479e-08
4.897118262e-08
4.963300409e-08
5.015668942e-08
5.053357426e-08
5.077517598e-08
5.085782639e-08
5.080839365e-08
5.065181624e-08
4.292859696e-08
3.327586812e-08
3.323706293e-08
3.6002301e-08
3.463623752e-08
3.647651015e-08
3.715731558e-08
3.790710527e-08
3.874352372e-08
3.966590079e-08
4.062513727e-08
4.163798043e-08
4.267825555e-08
4.370245861e-08
4.471233276e-08
4.569811773e-08
4.662687056e-08
4.745432969e-08
4.818815587e-08
4.881259515e-08
4.929714718e-08
4.965243482e-08
4.987364472e-08
4.940041124e-08
5.25779744e-08
4.31342681e-08
3.448352484e-08
3.451528402e-08
3.437938157e-08
3.511101844e-08
3.684275495e-08
3.753471032e-08
3.828112037e-08
3.908975504e-08
3.996917498e-08
4.087011929e-08
4.178956632e-08
4.274932638e-08
4.366302314e-08
4.455529215e-08
4.542149895e-08
4.622992975e-08
4.696128914e-08
4.762362171e-08
4.817571785e-08
4.791836713e-08
4.928081227e-08
5.052472061e-08
4.659854602e-08
4.38235972e-08
3.361191569e-08
3.498590809e-08
3.388110714e-08
3.69183986e-08
3.576572401e-08
3.767939342e-08
3.839070808e-08
3.91369055e-08
3.992092662e-08
4.074927002e-08
4.157901459e-08
4.243468341e-08
4.328285487e-08
4.410123972e-08
4.488478887e-08
4.561798272e-08
4.628935043e-08
4.620431331e-08
4.965403045e-08
4.60814294e-08
4.160983494e-08