/*--------------------------------*- C++ -*----------------------------------*\
| =========                 |                                                 |
| \\      /  F ield         | OpenFOAM: The Open Source CFD Toolbox           |
|  \\    /   O peration     | Version:  v1706                                 |
|   \\  /    A nd           | Web:      www.OpenFOAM.com                      |
|    \\/     M anipulation  |                                                 |
\*---------------------------------------------------------------------------*/
FoamFile
{
    version     2.0;
    format      ascii;
    class       volScalarField;
    location    "3.2711";
    object      rhoM_mixture;
}
// * * * * * * * * * * * * * * * * * * * * * * * * * * * * * * * * * * * * * //

dimensions      [1 -3 0 0 0 0 0];


internalField   nonuniform List<scalar> 
60268
(
1.66671362e-07
1.708493619e-07
1.751151317e-07
1.801111359e-07
1.849661437e-07
1.899804838e-07
1.947483895e-07
2.001521839e-07
2.046810636e-07
2.094746841e-07
2.12176404e-07
2.058070035e-07
1.728818768e-07
1.754456454e-07
1.796523855e-07
1.844606515e-07
1.894338599e-07
1.945995142e-07
1.993580341e-07
2.041417317e-07
2.094250967e-07
2.127808245e-07
1.753660476e-07
1.749047796e-07
1.792700867e-07
1.841137213e-07
1.889844344e-07
1.938663967e-07
1.986614757e-07
2.039377978e-07
1.785474271e-07
2.619053603e-07
2.103591354e-07
1.761978069e-07
1.7916055e-07
1.837970366e-07
1.881897944e-07
1.932461074e-07
1.984152151e-07
2.042201151e-07
2.140003686e-07
2.207060068e-07
1.800352597e-07
1.827627465e-07
1.876223353e-07
1.92638064e-07
1.688506536e-07
2.090990715e-07
2.452887542e-07
2.205464358e-07
1.822351173e-07
1.846922671e-07
1.916360187e-07
2.407414639e-07
1.558802287e-07
1.583250584e-07
1.609764668e-07
1.647064737e-07
1.697742203e-07
1.750845722e-07
1.801289648e-07
1.85476454e-07
1.910537748e-07
1.966728796e-07
2.022573558e-07
2.076730206e-07
2.127938743e-07
2.173912661e-07
2.209249365e-07
2.223786148e-07
2.256494497e-07
2.288310589e-07
2.298472241e-07
2.305230663e-07
1.546388511e-07
1.589690878e-07
1.618484417e-07
1.630983334e-07
1.673903661e-07
1.684935008e-07
1.809545779e-07
1.862327328e-07
1.916580386e-07
1.971426958e-07
2.026190137e-07
2.079293407e-07
2.128821034e-07
2.174117643e-07
2.204405381e-07
2.222721214e-07
2.256716013e-07
2.282667168e-07
2.311343374e-07
2.304355567e-07
1.538142556e-07
1.586306483e-07
1.61523982e-07
1.657036618e-07
1.714513648e-07
1.726928361e-07
1.802077952e-07
1.853930797e-07
1.908042297e-07
1.962904451e-07
2.017512539e-07
2.070657362e-07
2.120259803e-07
2.149578923e-07
2.257099853e-07
2.194122824e-07
2.250591647e-07
2.281939951e-07
2.008222923e-07
2.846439821e-07
1.526362377e-07
1.578753509e-07
1.609828143e-07
1.638502652e-07
1.661962176e-07
1.694673229e-07
1.718041532e-07
1.83720379e-07
1.890926582e-07
1.944998909e-07
1.999444903e-07
2.052836096e-07
2.102350379e-07
2.181113703e-07
2.084168207e-07
2.227417747e-07
2.242446784e-07
2.274582883e-07
2.371951048e-07
1.905455891e-07
1.569819519e-07
1.612857099e-07
1.645753462e-07
1.679732193e-07
1.722515297e-07
1.725639665e-07
1.761093001e-07
1.88011718e-07
1.933216401e-07
1.985764586e-07
2.020705635e-07
2.111973051e-07
2.143773265e-07
2.110555392e-07
2.182199108e-07
2.229144398e-07
2.263211256e-07
2.278257312e-07
1.604834507e-07
1.601571612e-07
1.631618661e-07
1.6666252e-07
1.707044237e-07
1.751605656e-07
1.732204801e-07
1.848925514e-07
1.905688802e-07
1.954354277e-07
2.059316639e-07
1.963536794e-07
2.043254834e-07
2.153019722e-07
2.176628369e-07
2.218481074e-07
1.951275695e-07
2.773269828e-07
1.92614698e-07
1.585927295e-07
1.638553521e-07
1.672938224e-07
1.709909429e-07
1.747619096e-07
1.82096913e-07
1.843129211e-07
1.882276345e-07
1.934519156e-07
1.958865451e-07
2.050020947e-07
2.07214875e-07
2.126633284e-07
2.173017012e-07
1.903281815e-07
2.823286346e-07
2.025333502e-07
1.613499585e-07
1.666195917e-07
1.70428743e-07
1.743355437e-07
1.791982959e-07
1.834885947e-07
1.878261103e-07
1.922142062e-07
1.970215744e-07
2.019291833e-07
2.066884471e-07
2.111240381e-07
1.856414688e-07
2.75846011e-07
2.057480789e-07
1.634142863e-07
1.685984235e-07
1.729027479e-07
1.772523832e-07
1.814374064e-07
1.863803739e-07
1.90594319e-07
1.950908064e-07
1.996390043e-07
2.046500051e-07
1.80163756e-07
2.668378401e-07
2.006172378e-07
1.739560983e-07
1.701552621e-07
1.755428826e-07
1.796354207e-07
1.838836682e-07
1.886010357e-07
1.932755399e-07
1.718732939e-07
2.084656722e-07
2.512483408e-07
2.087850864e-07
1.727380748e-07
1.769854555e-07
1.815582365e-07
1.86391141e-07
1.906000381e-07
2.379926129e-07
1.510255819e-07
1.53773145e-07
1.552928624e-07
1.596268008e-07
1.650402616e-07
1.694053674e-07
1.741633225e-07
1.793174764e-07
1.848501532e-07
1.907240771e-07
1.968129473e-07
2.029497408e-07
2.090869429e-07
2.149643197e-07
2.203871396e-07
2.251859425e-07
2.292298199e-07
2.323642881e-07
2.344861519e-07
2.356068629e-07
2.357258514e-07
2.34922054e-07
2.332461388e-07
2.298775576e-07
1.497254616e-07
1.525129139e-07
1.552969899e-07
1.590994911e-07
1.634292058e-07
1.678282658e-07
1.726753128e-07
1.780084824e-07
1.837149544e-07
1.897496827e-07
1.960334155e-07
2.023230528e-07
2.085328734e-07
2.144863318e-07
2.199005161e-07
2.247855966e-07
2.288299317e-07
2.319983259e-07
2.341035732e-07
2.352798835e-07
2.354582387e-07
2.347538233e-07
2.333577362e-07
2.29497971e-07
1.48796305e-07
1.530664378e-07
1.549971603e-07
1.592460918e-07
1.633792443e-07
1.675506133e-07
1.721314362e-07
1.771650098e-07
1.826459834e-07
1.884668615e-07
1.945806665e-07
2.008230642e-07
2.069836141e-07
2.129587413e-07
2.184682498e-07
2.233624386e-07
2.275254512e-07
2.307260438e-07
2.330299271e-07
2.343771288e-07
2.347583533e-07
2.319690234e-07
2.39077568e-07
2.267631202e-07
1.479855899e-07
1.51892923e-07
1.550098371e-07
1.588748089e-07
1.627376549e-07
1.669466501e-07
1.716335905e-07
1.767372357e-07
1.822248466e-07
1.880654372e-07
1.940743519e-07
2.001225432e-07
2.062046032e-07
2.120282469e-07
2.173898111e-07
2.222708134e-07
2.263855039e-07
2.29693476e-07
2.320271054e-07
2.333961756e-07
2.338619025e-07
2.359374686e-07
2.228802746e-07
2.326456296e-07
1.842973149e-07
1.499964202e-07
1.520181362e-07
1.545323867e-07
1.554008004e-07
1.653248869e-07
1.699344466e-07
1.749171988e-07
1.802379041e-07
1.858916437e-07
1.917748954e-07
1.978185375e-07
2.037592037e-07
2.094939752e-07
2.149274148e-07
2.197330965e-07
2.239230741e-07
2.273565566e-07
2.298873261e-07
2.315475862e-07
2.322541742e-07
2.319514792e-07
2.289878733e-07
2.284867778e-07
1.556392089e-07
1.553070182e-07
1.600852226e-07
1.598047611e-07
1.6587883e-07
1.702078505e-07
1.748249387e-07
1.797777628e-07
1.850108106e-07
1.904340567e-07
1.959926597e-07
2.015996474e-07
2.071013323e-07
2.123040138e-07
2.170500706e-07
2.211992993e-07
2.247040074e-07
2.274182773e-07
2.292795659e-07
2.280901249e-07
2.358658257e-07
2.255400555e-07
2.27426716e-07
1.855156417e-07
1.514445962e-07
1.534625609e-07
1.564452699e-07
1.581249688e-07
1.670383834e-07
1.715455953e-07
1.764406042e-07
1.81643258e-07
1.871450635e-07
1.92740545e-07
1.983610904e-07
2.03784506e-07
2.090298485e-07
2.138606096e-07
2.181303675e-07
2.217329329e-07
2.245623336e-07
2.249067842e-07
2.376554456e-07
2.160493314e-07
2.309531202e-07
2.084609524e-07
1.567347424e-07
1.568230726e-07
1.591397046e-07
1.582298848e-07
1.61449727e-07
1.711597728e-07
1.756018514e-07
1.803838239e-07
1.853388603e-07
1.905414517e-07
1.957966644e-07
2.009627225e-07
2.059092479e-07
2.105820251e-07
2.147279746e-07
2.183262813e-07
2.195669984e-07
2.330045328e-07
2.13338573e-07
2.274691977e-07
1.986833951e-07
2.791022857e-07
1.8683096e-07
1.524401713e-07
1.576319379e-07
1.603751584e-07
1.598721778e-07
1.636692819e-07
1.733207796e-07
1.779042689e-07
1.827275276e-07
1.876240161e-07
1.926010093e-07
1.974746036e-07
2.022044306e-07
2.067152676e-07
2.107846761e-07
2.125768264e-07
2.263932676e-07
2.083361396e-07
2.228719295e-07
2.237362953e-07
2.358451722e-07
1.964405106e-07
1.549954923e-07
1.602122375e-07
1.632364572e-07
1.601150232e-07
1.734800215e-07
1.702648512e-07
1.806376106e-07
1.8524499e-07
1.899207359e-07
1.945498075e-07
1.991125091e-07
2.012319741e-07
2.097722458e-07
2.158932105e-07
2.025507096e-07
2.176941842e-07
2.193704384e-07
1.936933637e-07
2.728542919e-07
1.980708055e-07
1.554894747e-07
1.605462397e-07
1.668983193e-07
1.647027392e-07
1.647089725e-07
1.76401255e-07
1.804772307e-07
1.847377271e-07
1.887829787e-07
1.939483002e-07
2.036663664e-07
1.93832276e-07
2.018168117e-07
2.11820979e-07
2.139056857e-07
1.890484149e-07
2.766559593e-07
1.981171899e-07
1.578343885e-07
1.634124263e-07
1.659820542e-07
1.729378242e-07
1.740906058e-07
1.779462965e-07
1.823383691e-07
1.862835028e-07
1.901034156e-07
1.921384866e-07
2.01301575e-07
2.034582103e-07
1.803831535e-07
2.214885181e-07
2.607488469e-07
1.958439292e-07
1.690025628e-07
1.636107571e-07
1.696983514e-07
1.727027259e-07
1.766038379e-07
1.800218489e-07
1.842816628e-07
1.878543871e-07
1.924114915e-07
1.71324108e-07
2.075557936e-07
2.477908037e-07
2.001768606e-07
1.660208483e-07
1.690430765e-07
1.734196923e-07
1.774724146e-07
1.818446992e-07
1.85788863e-07
1.894673308e-07
2.36159078e-07
1.469690132e-07
1.484835816e-07
1.502826074e-07
1.532212671e-07
1.561959628e-07
1.597354763e-07
1.639090874e-07
1.687049224e-07
1.741554963e-07
1.802262027e-07
1.868348541e-07
1.939181845e-07
2.0125899e-07
2.086672928e-07
2.158943803e-07
2.227348815e-07
2.288739133e-07
2.340563338e-07
2.381013274e-07
2.408994975e-07
2.424387799e-07
2.42815877e-07
2.419519119e-07
2.400092252e-07
2.371264449e-07
2.334295872e-07
2.29134248e-07
1.464298272e-07
1.483230378e-07
1.498244071e-07
1.532596675e-07
1.567348665e-07
1.601605044e-07
1.640768179e-07
1.685616128e-07
1.736688813e-07
1.794290979e-07
1.857797575e-07
1.925883303e-07
1.997525929e-07
2.070512603e-07
2.14184173e-07
2.209591706e-07
2.270989177e-07
2.323431958e-07
2.365470369e-07
2.39523018e-07
2.41216988e-07
2.41659744e-07
2.409320166e-07
2.392124554e-07
2.364848453e-07
2.330189189e-07
2.289191863e-07
1.80182232e-07
1.461501739e-07
1.495260919e-07
1.523776697e-07
1.54885659e-07
1.583743048e-07
1.62468883e-07
1.67174727e-07
1.725348608e-07
1.784953112e-07
1.849888715e-07
1.919026205e-07
1.990767544e-07
2.063273167e-07
2.134174714e-07
2.202031998e-07
2.262535874e-07
2.315087796e-07
2.355915974e-07
2.385452101e-07
2.403257759e-07
2.409177753e-07
2.403778889e-07
2.387235262e-07
2.362077621e-07
2.328166009e-07
2.288146347e-07
1.518100503e-07
1.512039519e-07
1.541973971e-07
1.575099244e-07
1.611422994e-07
1.65216926e-07
1.697856772e-07
1.749048854e-07
1.80528828e-07
1.866197406e-07
1.931507573e-07
1.999409616e-07
2.068045615e-07
2.13599581e-07
2.200888971e-07
2.259103502e-07
2.30915976e-07
2.349930737e-07
2.379808798e-07
2.397835196e-07
2.404747661e-07
2.400132356e-07
2.385065743e-07
2.361181069e-07
2.329525055e-07
2.290898439e-07
1.453215526e-07
1.477579596e-07
1.497592701e-07
1.495695351e-07
1.598613388e-07
1.638575083e-07
1.682863312e-07
1.731914569e-07
1.786089287e-07
1.845613612e-07
1.908674552e-07
1.975094564e-07
2.042470423e-07
2.108976384e-07
2.172308249e-07
2.231350603e-07
2.281940877e-07
2.323697751e-07
2.355956188e-07
2.376645407e-07
2.385971778e-07
2.384275169e-07
2.372691786e-07
2.351989168e-07
2.32348998e-07
2.288090238e-07
1.439329162e-07
1.500201294e-07
1.538851443e-07
1.530520282e-07
1.575699285e-07
1.612530037e-07
1.654728455e-07
1.702582807e-07
1.756018238e-07
1.814769948e-07
1.877225361e-07
1.942434201e-07
2.009345065e-07
2.075176904e-07
2.138227126e-07
2.196733821e-07
2.248044068e-07
2.291390793e-07
2.325211352e-07
2.3486452e-07
2.36120235e-07
2.36343631e-07
2.355141411e-07
2.337992648e-07
2.313524661e-07
2.281591147e-07
1.798567489e-07
1.457121778e-07
1.48180685e-07
1.500567186e-07
1.503683686e-07
1.608537851e-07
1.648948401e-07
1.693831119e-07
1.742946734e-07
1.796723936e-07
1.854722491e-07
1.915274323e-07
1.977012542e-07
2.039330762e-07
2.099576954e-07
2.156500724e-07
2.207608431e-07
2.251025914e-07
2.285955692e-07
2.311769628e-07
2.327879929e-07
2.334017901e-07
2.330813776e-07
2.318417706e-07
2.29813128e-07
2.272070178e-07
1.516511092e-07
1.521748022e-07
1.56283057e-07
1.556057306e-07
1.599403701e-07
1.635146145e-07
1.676240183e-07
1.721641326e-07
1.771643484e-07
1.825807812e-07
1.882790017e-07
1.941330087e-07
2.000728921e-07
2.05830879e-07
2.113055087e-07
2.163324991e-07
2.207356869e-07
2.243653776e-07
2.271589981e-07
2.290814648e-07
2.300804005e-07
2.301927727e-07
2.294863915e-07
2.255437826e-07
2.394256191e-07
1.817410618e-07
1.466392883e-07
1.491105647e-07
1.515187325e-07
1.52838145e-07
1.623539607e-07
1.663534766e-07
1.707495699e-07
1.754804938e-07
1.805049047e-07
1.858489304e-07
1.913468677e-07
1.968679634e-07
2.022908094e-07
2.075150534e-07
2.123865335e-07
2.166850073e-07
2.204383173e-07
2.234136284e-07
2.255721846e-07
2.269781773e-07
2.274872149e-07
2.272198368e-07
2.291670225e-07
2.15644283e-07
1.897124058e-07
1.487742978e-07
1.540423954e-07
1.517236493e-07
1.541993971e-07
1.63587977e-07
1.676443898e-07
1.721185335e-07
1.769275516e-07
1.820025109e-07
1.872946467e-07
1.926555826e-07
1.979610146e-07
2.031360689e-07
2.079651116e-07
2.124098817e-07
2.163107392e-07
2.195461004e-07
2.220311662e-07
2.237548369e-07
2.247055025e-07
2.220368494e-07
2.311761915e-07
2.18513729e-07
1.53430003e-07
1.533200593e-07
1.553067025e-07
1.536674607e-07
1.569598149e-07
1.670871504e-07
1.712394182e-07
1.756220362e-07
1.802690251e-07
1.850552305e-07
1.899650401e-07
1.948708558e-07
1.996549e-07
2.042363263e-07
2.084837571e-07
2.122915694e-07
2.155645543e-07
2.181649871e-07
2.201870307e-07
2.186789377e-07
2.321066674e-07
2.10538457e-07
2.236297397e-07
1.839090617e-07
1.48470499e-07
1.546725934e-07
1.568790387e-07
1.556318328e-07
1.593178355e-07
1.686097829e-07
1.727037375e-07
1.77014469e-07
1.814431632e-07
1.859875011e-07
1.90526699e-07
1.950571205e-07
1.994072332e-07
2.035614592e-07
2.073546829e-07
2.106841427e-07
2.107461671e-07
2.176532995e-07
2.233066244e-07
2.078883567e-07
1.951805096e-07
2.357057418e-07
1.919305518e-07
1.49849838e-07
1.555681177e-07
1.582085482e-07
1.541605042e-07
1.673303373e-07
1.637517235e-07
1.730106216e-07
1.771416813e-07
1.814040752e-07
1.857666146e-07
1.901257292e-07
1.943823236e-07
1.98422785e-07
1.997378623e-07
2.074924787e-07
2.143736537e-07
2.018632169e-07
2.096393685e-07
1.913479736e-07
2.757012499e-07
1.862203403e-07
1.611531283e-07
1.53386762e-07
1.62414623e-07
1.597831586e-07
1.586050241e-07
1.698652411e-07
1.737553945e-07
1.768776959e-07
1.808192987e-07
1.841702157e-07
1.883855999e-07
1.925088208e-07
2.022951214e-07
1.916133779e-07
1.997550962e-07
2.099654672e-07
1.831139451e-07
2.68382105e-07
1.970616715e-07
1.551295141e-07
1.598349262e-07
1.656756438e-07
1.667062857e-07
1.700352611e-07
1.738360356e-07
1.774811567e-07
1.809835211e-07
1.848143527e-07
1.883321441e-07
1.902515608e-07
1.995212809e-07
1.750474316e-07
2.133237463e-07
2.521680877e-07
1.918884697e-07
1.578993224e-07
1.68801115e-07
1.627218461e-07
1.687471983e-07
1.716078089e-07
1.74803561e-07
1.78889362e-07
1.823787901e-07
1.625342535e-07
1.960281339e-07
1.932816977e-07
2.401039801e-07
2.011668269e-07
1.657493031e-07
1.690845206e-07
1.724511801e-07
1.759380629e-07
1.793932878e-07
2.24251489e-07
1.455652341e-07
1.464183953e-07
1.494372502e-07
1.522511942e-07
1.553028545e-07
1.588314085e-07
1.62948386e-07
1.677011202e-07
1.731111353e-07
1.791657846e-07
1.859254074e-07
1.933641463e-07
2.012875612e-07
2.095412137e-07
2.177715512e-07
2.257462262e-07
2.33179741e-07
2.396200645e-07
2.448084288e-07
2.484984173e-07
2.506523794e-07
2.512268613e-07
2.503004988e-07
2.479821616e-07
2.445125432e-07
2.401538084e-07
2.350462562e-07
2.294153377e-07
2.23397852e-07
1.789431039e-07
1.449124687e-07
1.485318156e-07
1.510256993e-07
1.538913623e-07
1.572528011e-07
1.61205896e-07
1.65810589e-07
1.71047901e-07
1.770602905e-07
1.837219091e-07
1.910542457e-07
1.98903592e-07
2.071124e-07
2.154669155e-07
2.235584413e-07
2.310553557e-07
2.37632161e-07
2.42897557e-07
2.467467457e-07
2.49055573e-07
2.498019995e-07
2.490071561e-07
2.469460798e-07
2.437190578e-07
2.39506358e-07
2.345889475e-07
2.290934338e-07
2.232072017e-07
1.470637775e-07
1.46727864e-07
1.454436343e-07
1.551291238e-07
1.587593348e-07
1.627112652e-07
1.671909893e-07
1.722427635e-07
1.779184219e-07
1.842604166e-07
1.912314426e-07
1.987573819e-07
2.066214174e-07
2.146424884e-07
2.224247104e-07
2.297318142e-07
2.361688658e-07
2.414075291e-07
2.452731666e-07
2.47691639e-07
2.485610866e-07
2.480412204e-07
2.461481366e-07
2.431271039e-07
2.391316876e-07
2.343812497e-07
2.290642035e-07
2.23308903e-07
1.463392575e-07
1.505657515e-07
1.487522263e-07
1.529534265e-07
1.560436142e-07
1.597570978e-07
1.641534698e-07
1.6929462e-07
1.751214201e-07
1.816608077e-07
1.888334944e-07
1.965027176e-07
2.044914483e-07
2.125196068e-07
2.204040181e-07
2.277650266e-07
2.342595061e-07
2.39599141e-07
2.436653189e-07
2.462379143e-07
2.473511821e-07
2.470577448e-07
2.454114864e-07
2.426426604e-07
2.389174985e-07
2.344095139e-07
2.293187111e-07
2.237697828e-07
1.43577652e-07
1.4699439e-07
1.502456881e-07
1.523303316e-07
1.552724747e-07
1.58750389e-07
1.628692279e-07
1.676775741e-07
1.732366981e-07
1.794836494e-07
1.863979439e-07
1.938089535e-07
2.01556566e-07
2.094419207e-07
2.171454503e-07
2.244463232e-07
2.30981153e-07
2.364347373e-07
2.406947648e-07
2.436447129e-07
2.451326398e-07
2.451581251e-07
2.439253931e-07
2.41542641e-07
2.38238462e-07
2.34120098e-07
2.293516265e-07
2.241495432e-07
1.426732341e-07
1.481058591e-07
1.515519442e-07
1.535598209e-07
1.565760261e-07
1.60034098e-07
1.640166243e-07
1.685704276e-07
1.736961937e-07
1.79475042e-07
1.858570804e-07
1.927619636e-07
2.000127936e-07
2.073923201e-07
2.147488393e-07
2.21691726e-07
2.28029323e-07
2.334191307e-07
2.377250723e-07
2.4075408e-07
2.425059308e-07
2.429218513e-07
2.420677089e-07
2.401204622e-07
2.372188306e-07
2.335420804e-07
2.291556484e-07
2.243266109e-07
1.786012075e-07
1.40708661e-07
1.46197253e-07
1.463763609e-07
1.542283784e-07
1.57604096e-07
1.615232814e-07
1.660429316e-07
1.71181834e-07
1.768900392e-07
1.831804912e-07
1.898824211e-07
1.969375049e-07
2.040937992e-07
2.111874049e-07
2.179409186e-07
2.241541757e-07
2.295982408e-07
2.339757725e-07
2.371983055e-07
2.392413355e-07
2.400321747e-07
2.396586997e-07
2.382076259e-07
2.358020072e-07
2.326320414e-07
2.287377034e-07
2.242757921e-07
1.51903913e-07
1.513988385e-07
1.49909918e-07
1.529434073e-07
1.558418271e-07
1.593166365e-07
1.634123803e-07
1.681073366e-07
1.733998736e-07
1.792334659e-07
1.854719148e-07
1.920899358e-07
1.988874454e-07
2.057669651e-07
2.123401489e-07
2.184579893e-07
2.239340871e-07
2.285223829e-07
2.320779749e-07
2.345500105e-07
2.358719407e-07
2.360801763e-07
2.35295994e-07
2.335465787e-07
2.309440503e-07
2.277082394e-07
2.238559844e-07
1.801134779e-07
1.414906169e-07
1.472252561e-07
1.47788991e-07
1.558762063e-07
1.591235477e-07
1.627664614e-07
1.669177555e-07
1.716041626e-07
1.767895087e-07
1.824288377e-07
1.884177202e-07
1.946869374e-07
2.010426097e-07
2.072389734e-07
2.131569363e-07
2.185264857e-07
2.231669359e-07
2.269550886e-07
2.297643059e-07
2.315774523e-07
2.323707981e-07
2.321763043e-07
2.311075557e-07
2.291929949e-07
2.265697386e-07
2.23342017e-07
1.510888863e-07
1.48795022e-07
1.458734032e-07
1.473748845e-07
1.563663467e-07
1.59864773e-07
1.63845416e-07
1.683030214e-07
1.732047446e-07
1.786328477e-07
1.84398818e-07
1.903474393e-07
1.963970284e-07
2.024145679e-07
2.081785378e-07
2.135245924e-07
2.182395082e-07
2.222394099e-07
2.254117108e-07
2.276488126e-07
2.288921955e-07
2.292662994e-07
2.287518464e-07
2.274752797e-07
2.254305892e-07
2.227893578e-07
1.803304321e-07
1.457395553e-07
1.533988975e-07
1.531108163e-07
1.566282322e-07
1.59795553e-07
1.633842489e-07
1.674082569e-07
1.718730104e-07
1.766762688e-07
1.818700286e-07
1.873121956e-07
1.928805306e-07
1.984251182e-07
2.038529589e-07
2.089256857e-07
2.135718223e-07
2.176061201e-07
2.209363681e-07
2.234612375e-07
2.252158563e-07
2.261396898e-07
2.262278326e-07
2.255397244e-07
2.241331457e-07
2.221412127e-07
1.881789079e-07
1.420887759e-07
1.483821423e-07
1.499701878e-07
1.56954521e-07
1.602197656e-07
1.639554161e-07
1.680582314e-07
1.725517221e-07
1.773649856e-07
1.824439317e-07
1.876862074e-07
1.92973146e-07
1.981668257e-07
2.031606509e-07
2.077546118e-07
2.119218159e-07
2.154776559e-07
2.184078753e-07
2.205290527e-07
2.219709064e-07
2.226880114e-07
2.227054516e-07
2.187320354e-07
2.21402819e-07
1.518659587e-07
1.514257518e-07
1.487659498e-07
1.518026979e-07
1.592828036e-07
1.626712495e-07
1.664143281e-07
1.704645545e-07
1.748005973e-07
1.79400981e-07
1.841341452e-07
1.889341956e-07
1.936782403e-07
1.982794839e-07
2.026567296e-07
2.066935046e-07
2.103077684e-07
2.133362327e-07
2.1579008e-07
2.175951592e-07
2.18802531e-07
2.166403093e-07
2.298084684e-07
2.1118611e-07
1.801851901e-07
1.454427657e-07
1.512127425e-07
1.471668725e-07
1.602006382e-07
1.548533203e-07
1.637782162e-07
1.674275512e-07
1.713149248e-07
1.754087408e-07
1.796884337e-07
1.84057564e-07
1.884838727e-07
1.928262729e-07
1.969926796e-07
2.009378337e-07
2.045421711e-07
2.077862247e-07
2.1051651e-07
2.126850384e-07
2.114979163e-07
2.250592074e-07
2.057700926e-07
1.998216823e-07
1.817640369e-07
1.562834086e-07
1.525308043e-07
1.52115944e-07
1.530279235e-07
1.57109183e-07
1.652568548e-07
1.687623268e-07
1.724441175e-07
1.76257536e-07
1.801977168e-07
1.841911758e-07
1.881896888e-07
1.921005663e-07
1.958469345e-07
1.993812004e-07
2.026034831e-07
2.023481646e-07
2.097577417e-07
2.159285994e-07
2.013119057e-07
1.895517441e-07
2.782817518e-07
1.942909025e-07
1.499140483e-07
1.560225723e-07
1.518241331e-07
1.63387162e-07
1.679059187e-07
1.642650181e-07
1.732438047e-07
1.768177374e-07
1.804008857e-07
1.840604828e-07
1.876727056e-07
1.886000193e-07
1.958147982e-07
1.969001111e-07
2.055605082e-07
1.947014364e-07
1.758923296e-07
2.202220805e-07
2.56899037e-07
1.851546017e-07
1.592980425e-07
1.561715638e-07
1.587337293e-07
1.585955097e-07
1.572349312e-07
1.684129186e-07
1.713836193e-07
1.746352568e-07
1.776954157e-07
1.818530673e-07
1.901486522e-07
1.810366294e-07
1.902213078e-07
1.926896479e-07
1.777059146e-07
2.556391678e-07
1.889763905e-07
1.636202827e-07
1.545229306e-07
1.644369993e-07
1.640742757e-07
1.672775183e-07
1.700593878e-07
1.734816847e-07
1.760944592e-07
1.782157321e-07
1.649989079e-07
1.944791821e-07
1.910842237e-07
2.372003607e-07
1.927868559e-07
1.59861111e-07
1.615940872e-07
1.639514213e-07
1.677357248e-07
1.708695804e-07
1.730222428e-07
1.758930122e-07
2.197210623e-07
1.444491557e-07
1.472672216e-07
1.490359066e-07
1.513026072e-07
1.541839715e-07
1.577519471e-07
1.620490003e-07
1.672175357e-07
1.7323494e-07
1.801150402e-07
1.879014718e-07
1.965668353e-07
2.058578729e-07
2.155112358e-07
2.252568982e-07
2.346212388e-07
2.431285174e-07
2.502984907e-07
2.557101373e-07
2.591458615e-07
2.605000937e-07
2.598383389e-07
2.573936691e-07
2.534285032e-07
2.482596601e-07
2.421742868e-07
2.354549939e-07
2.283350798e-07
2.210010509e-07
2.136107831e-07
1.422256988e-07
1.447370548e-07
1.425718764e-07
1.51896188e-07
1.548954267e-07
1.584606904e-07
1.626681418e-07
1.676313066e-07
1.733868501e-07
1.800314304e-07
1.875066272e-07
1.958039028e-07
2.048564329e-07
2.143261254e-07
2.238832994e-07
2.331088834e-07
2.415523479e-07
2.486551114e-07
2.540780177e-07
2.575724515e-07
2.591000848e-07
2.585958526e-07
2.563430959e-07
2.525730914e-07
2.475718392e-07
2.416857339e-07
2.351735835e-07
2.281488206e-07
2.209063705e-07
2.136511651e-07
1.456910158e-07
1.485974069e-07
1.466482596e-07
1.502888536e-07
1.529840888e-07
1.562728201e-07
1.602966396e-07
1.650761357e-07
1.707847382e-07
1.773535744e-07
1.848478065e-07
1.931929963e-07
2.021718158e-07
2.116285743e-07
2.212060584e-07
2.304656745e-07
2.389735173e-07
2.462530913e-07
2.518049899e-07
2.554914195e-07
2.572706706e-07
2.570676552e-07
2.551399425e-07
2.516815677e-07
2.469194576e-07
2.412493685e-07
2.349510449e-07
2.281609475e-07
2.211315396e-07
2.140133459e-07
1.433473781e-07
1.463711945e-07
1.486707162e-07
1.511959993e-07
1.539675381e-07
1.572860069e-07
1.612443363e-07
1.659084208e-07
1.713454648e-07
1.776170704e-07
1.847477509e-07
1.926869364e-07
2.013466701e-07
2.104381407e-07
2.197073775e-07
2.286972141e-07
2.369723472e-07
2.44120628e-07
2.4975104e-07
2.536093235e-07
2.555125018e-07
2.556180892e-07
2.539562709e-07
2.508287802e-07
2.465161212e-07
2.411553232e-07
2.350652496e-07
2.285500866e-07
2.217086108e-07
2.147527492e-07
1.431109735e-07
1.461471819e-07
1.495309196e-07
1.517468222e-07
1.547115694e-07
1.581168321e-07
1.620916311e-07
1.667082103e-07
1.720182352e-07
1.780434148e-07
1.848701269e-07
1.924606229e-07
2.006989301e-07
2.093205243e-07
2.180643942e-07
2.266452292e-07
2.345890128e-07
2.4152568e-07
2.47014698e-07
2.509276564e-07
2.53209469e-07
2.535672218e-07
2.522558949e-07
2.495575948e-07
2.456093277e-07
2.407325661e-07
2.350512533e-07
2.288644352e-07
2.223749956e-07
2.157110205e-07
1.780637753e-07
1.424245205e-07
1.490693315e-07
1.499582633e-07
1.525290294e-07
1.555958209e-07
1.592903799e-07
1.636137814e-07
1.687069457e-07
1.745109121e-07
1.810692242e-07
1.884034888e-07
1.963725872e-07
2.04787417e-07
2.133659211e-07
2.218204995e-07
2.297383685e-07
2.367823594e-07
2.42507925e-07
2.467899599e-07
2.493695972e-07
2.503241137e-07
2.495921528e-07
2.475288223e-07
2.442427887e-07
2.398758559e-07
2.347432051e-07
2.29013304e-07
2.228998267e-07
2.165308397e-07
1.453745131e-07
1.446450737e-07
1.439002987e-07
1.523157706e-07
1.554691773e-07
1.591045335e-07
1.63301975e-07
1.681270301e-07
1.736243962e-07
1.798355447e-07
1.866608743e-07
1.940937169e-07
2.019827407e-07
2.100620451e-07
2.180468114e-07
2.256475483e-07
2.324731255e-07
2.382250698e-07
2.426438924e-07
2.455567949e-07
2.469458043e-07
2.467891201e-07
2.452499719e-07
2.425489879e-07
2.388828073e-07
2.343463597e-07
2.291155599e-07
2.234379436e-07
2.175909092e-07
1.432179281e-07
1.50095375e-07
1.484673384e-07
1.52263755e-07
1.551943883e-07
1.585361185e-07
1.623598226e-07
1.667774775e-07
1.718176862e-07
1.775128859e-07
1.838362693e-07
1.907356488e-07
1.980654859e-07
2.056490233e-07
2.132774054e-07
2.205369417e-07
2.272172202e-07
2.32990494e-07
2.375239314e-07
2.40761124e-07
2.426150783e-07
2.430566837e-07
2.422069012e-07
2.402167558e-07
2.371692461e-07
2.333101452e-07
2.287497485e-07
2.237104235e-07
2.183526942e-07
1.773102149e-07
1.390499397e-07
1.443257441e-07
1.436318253e-07
1.522633304e-07
1.552230199e-07
1.587030194e-07
1.627788597e-07
1.674656341e-07
1.72813509e-07
1.787557852e-07
1.852547553e-07
1.922455538e-07
1.995418891e-07
2.068496426e-07
2.139392339e-07
2.205538551e-07
2.263957288e-07
2.312586912e-07
2.349468356e-07
2.373644541e-07
2.385182407e-07
2.384510104e-07
2.372966914e-07
2.350567589e-07
2.319797302e-07
2.281674452e-07
2.238148766e-07
2.189679577e-07
1.495982068e-07
1.502674314e-07
1.49344459e-07
1.531207489e-07
1.562753593e-07
1.597729102e-07
1.636450675e-07
1.679595934e-07
1.72813239e-07
1.781281662e-07
1.839563794e-07
1.902117567e-07
1.966675743e-07
2.032690898e-07
2.097628815e-07
2.159550022e-07
2.215310724e-07
2.262988619e-07
2.301424236e-07
2.328882822e-07
2.345383498e-07
2.350812638e-07
2.345257004e-07
2.330189238e-07
2.306513672e-07
2.275564701e-07
2.23869273e-07
2.197019237e-07
1.779096452e-07
1.394079285e-07
1.456141003e-07
1.458743488e-07
1.540416863e-07
1.571354895e-07
1.606670545e-07
1.646851205e-07
1.692218795e-07
1.742390995e-07
1.797127902e-07
1.855516153e-07
1.916981607e-07
1.979261685e-07
2.040738153e-07
2.100037662e-07
2.154821677e-07
2.203382356e-07
2.244034757e-07
2.275522495e-07
2.297222138e-07
2.309143047e-07
2.310866649e-07
2.303701877e-07
2.28778966e-07
2.264477709e-07
2.235097986e-07
2.200351108e-07
1.492281975e-07
1.482088884e-07
1.453977636e-07
1.470682719e-07
1.563594053e-07
1.596079799e-07
1.632181657e-07
1.67239266e-07
1.716698305e-07
1.764748386e-07
1.816249545e-07
1.871021071e-07
1.927497801e-07
1.984350403e-07
2.040006421e-07
2.09264106e-07
2.140107638e-07
2.1821167e-07
2.216497542e-07
2.242113637e-07
2.259789347e-07
2.26892413e-07
2.268874505e-07
2.261131868e-07
2.245997197e-07
2.224539407e-07
2.197397435e-07
1.770103904e-07
1.429699557e-07
1.51280651e-07
1.507938385e-07
1.536136687e-07
1.565237245e-07
1.598375853e-07
1.635772013e-07
1.677389743e-07
1.722631266e-07
1.77078261e-07
1.821560549e-07
1.874148687e-07
1.927560529e-07
1.979901873e-07
2.030308182e-07
2.07690105e-07
2.118901883e-07
2.155485387e-07
2.184861223e-07
2.206887017e-07
2.221318441e-07
2.228336611e-07
2.227413207e-07
2.219849354e-07
2.2057972e-07
2.186530176e-07
1.870589042e-07
1.396189016e-07
1.470078782e-07
1.489156674e-07
1.551900764e-07
1.580102979e-07
1.611405831e-07
1.646346199e-07
1.684884488e-07
1.726658636e-07
1.771052399e-07
1.817631944e-07
1.865197372e-07
1.913172855e-07
1.960543648e-07
2.005560474e-07
2.047485009e-07
2.085202902e-07
2.117647391e-07
2.14395217e-07
2.164581117e-07
2.178170169e-07
2.185242559e-07
2.185959073e-07
2.179965383e-07
2.170529927e-07
1.846585434e-07
1.432211984e-07
1.430990865e-07
1.551485562e-07
1.493519468e-07
1.57360635e-07
1.604441231e-07
1.638846165e-07
1.676257078e-07
1.716926109e-07
1.759625495e-07
1.804003885e-07
1.849009007e-07
1.894230463e-07
1.938265269e-07
1.980322652e-07
2.018914774e-07
2.053854291e-07
2.083507928e-07
2.10816472e-07
2.127172966e-07
2.140478539e-07
2.147710501e-07
2.125170279e-07
2.258252539e-07
1.855907366e-07
1.484426571e-07
1.486358472e-07
1.481389654e-07
1.514109771e-07
1.590053005e-07
1.620941199e-07
1.654485884e-07
1.690416047e-07
1.728601728e-07
1.768417047e-07
1.808561329e-07
1.849563422e-07
1.889948238e-07
1.929320669e-07
1.966070626e-07
1.999778226e-07
2.030743733e-07
2.057275564e-07
2.079128637e-07
2.066482228e-07
2.123268701e-07
2.174931512e-07
2.003734182e-07
1.885617273e-07
1.447484585e-07
1.507460636e-07
1.460861161e-07
1.592275125e-07
1.543322564e-07
1.62665306e-07
1.658379722e-07
1.691939122e-07
1.726683731e-07
1.762897512e-07
1.799933084e-07
1.836677138e-07
1.872980331e-07
1.908594238e-07
1.942362943e-07
1.973181337e-07
2.000975157e-07
1.996557137e-07
2.14374752e-07
1.98714332e-07