/*--------------------------------*- C++ -*----------------------------------*\
| =========                 |                                                 |
| \\      /  F ield         | OpenFOAM: The Open Source CFD Toolbox           |
|  \\    /   O peration     | Version:  v1706                                 |
|   \\  /    A nd           | Web:      www.OpenFOAM.com                      |
|    \\/     M anipulation  |                                                 |
\*---------------------------------------------------------------------------*/
FoamFile
{
    version     2.0;
    format      ascii;
    class       volScalarField;
    location    "3.2711";
    object      rhoN_O2;
}
// * * * * * * * * * * * * * * * * * * * * * * * * * * * * * * * * * * * * * //

dimensions      [0 -3 0 0 0 0 0];


internalField   nonuniform List<scalar> 
60268
(
7.257862505e+17
7.433701433e+17
7.61494604e+17
7.829517611e+17
8.037168543e+17
8.255622791e+17
8.463703366e+17
8.697753737e+17
8.90048541e+17
9.111225573e+17
9.239192029e+17
8.965537151e+17
7.52366068e+17
7.633658791e+17
7.811621238e+17
8.014912934e+17
8.231000978e+17
8.455863162e+17
8.663053422e+17
8.873757479e+17
9.107606049e+17
9.25826607e+17
7.633937799e+17
7.609532281e+17
7.794329692e+17
8.001158619e+17
8.21202428e+17
8.423122255e+17
8.629946468e+17
8.862161754e+17
7.763091238e+17
1.139953187e+18
9.152471737e+17
7.662905268e+17
7.794345613e+17
7.993977986e+17
8.183251136e+17
8.403209139e+17
8.626418618e+17
8.880600253e+17
9.306481159e+17
9.605866882e+17
7.829721513e+17
7.943623432e+17
8.153529285e+17
8.37114891e+17
7.336637848e+17
9.09170688e+17
1.067927965e+18
9.593363526e+17
7.924591805e+17
8.030381075e+17
8.326806722e+17
1.046599128e+18
6.805821657e+17
6.905140999e+17
7.015282617e+17
7.172027679e+17
7.388098331e+17
7.608149914e+17
7.823820303e+17
8.05280867e+17
8.290988339e+17
8.535047059e+17
8.779165547e+17
9.017926352e+17
9.244704874e+17
9.454037222e+17
9.617764337e+17
9.693985715e+17
9.848971181e+17
1.000075401e+18
1.006596852e+18
1.011191089e+18
6.75002811e+17
6.93482319e+17
7.056689858e+17
7.106340258e+17
7.286916208e+17
7.330410823e+17
7.865255465e+17
8.089862032e+17
8.322605458e+17
8.560876329e+17
8.801263073e+17
9.032470208e+17
9.251936174e+17
9.456555239e+17
9.596880035e+17
9.689203712e+17
9.852356086e+17
9.982379482e+17
1.012283752e+18
1.011265574e+18
6.715292178e+17
6.920280228e+17
7.039834375e+17
7.216792154e+17
7.460723178e+17
7.510031509e+17
7.831238224e+17
8.053160273e+17
8.286313402e+17
8.519718159e+17
8.758016902e+17
8.991804325e+17
9.210860209e+17
9.349390459e+17
9.828666971e+17
9.565794613e+17
9.823845052e+17
9.976497468e+17
8.79384928e+17
1.249277497e+18
6.665173737e+17
6.888587349e+17
7.019137256e+17
7.138191317e+17
7.233887135e+17
7.369503088e+17
7.466338011e+17
7.979074248e+17
8.208489937e+17
8.442859145e+17
8.676000919e+17
8.91115832e+17
9.13077161e+17
9.484016154e+17
9.071139544e+17
9.70383377e+17
9.781636014e+17
9.939184039e+17
1.037617294e+18
8.317366116e+17
6.851759548e+17
7.033760398e+17
7.171968456e+17
7.315343477e+17
7.496203594e+17
7.504959523e+17
7.654315268e+17
8.16692378e+17
8.395520517e+17
8.623359515e+17
8.779232778e+17
9.180791284e+17
9.324168581e+17
9.187713623e+17
9.508503059e+17
9.725842566e+17
9.889197325e+17
9.977556984e+17
7.004079143e+17
6.983127597e+17
7.108266446e+17
7.256324968e+17
7.424856524e+17
7.617305153e+17
7.527882283e+17
8.030168024e+17
8.274863768e+17
8.485324831e+17
8.944949617e+17
8.530908046e+17
8.882590362e+17
9.367040423e+17
9.4771835e+17
9.669942061e+17
8.519757002e+17
1.213026788e+18
8.40404625e+17
6.915966155e+17
7.142079323e+17
7.288037287e+17
7.445249785e+17
7.60305683e+17
7.918250019e+17
8.010422689e+17
8.178963946e+17
8.406819682e+17
8.511849921e+17
8.910630243e+17
9.012815638e+17
9.256321463e+17
9.468509902e+17
8.301373242e+17
1.23282743e+18
8.835520816e+17
7.033427274e+17
7.259037342e+17
7.421725468e+17
7.586956229e+17
7.79479606e+17
7.980407865e+17
8.169011921e+17
8.358205759e+17
8.569377721e+17
8.783143544e+17
8.994283275e+17
9.192622028e+17
8.090683587e+17
1.203690926e+18
8.97203557e+17
7.118364346e+17
7.34125737e+17
7.525519383e+17
7.709785316e+17
7.891275444e+17
8.104962393e+17
8.284643762e+17
8.48052087e+17
8.680798486e+17
8.906839247e+17
7.846072862e+17
1.163050012e+18
8.74205551e+17
7.577249387e+17
7.406592856e+17
7.634912452e+17
7.811737566e+17
7.995548983e+17
8.199310685e+17
8.401807155e+17
7.475413276e+17
9.069258619e+17
1.093231572e+18
9.091336459e+17
7.517480467e+17
7.703232877e+17
7.899091345e+17
8.110147404e+17
8.29257936e+17
1.036065061e+18
6.599842084e+17
6.717760303e+17
6.781711534e+17
6.963576706e+17
7.192386359e+17
7.37884886e+17
7.579225665e+17
7.795226744e+17
8.033529318e+17
8.28608391e+17
8.545167917e+17
8.811741954e+17
9.079119905e+17
9.336653006e+17
9.578359564e+17
9.795669944e+17
9.978808695e+17
1.013049246e+18
1.023495848e+18
1.030571188e+18
1.033166969e+18
1.031836804e+18
1.026241828e+18
1.013463478e+18
6.542507592e+17
6.660638611e+17
6.777131956e+17
6.938744097e+17
7.119117456e+17
7.303458542e+17
7.507117331e+17
7.736260963e+17
7.979278719e+17
8.234573076e+17
8.503831668e+17
8.776059139e+17
9.050452906e+17
9.310760515e+17
9.553174084e+17
9.774535921e+17
9.963082816e+17
1.011740098e+18
1.022438312e+18
1.029287158e+18
1.03167596e+18
1.030630252e+18
1.02651366e+18
1.011345661e+18
6.504054652e+17
6.68657432e+17
6.767227963e+17
6.944019852e+17
7.118567639e+17
7.293212758e+17
7.482678919e+17
7.698402433e+17
7.93007554e+17
8.178559881e+17
8.443029628e+17
8.712734906e+17
8.979896993e+17
9.241691718e+17
9.487205203e+17
9.708615452e+17
9.902697692e+17
1.005681499e+18
1.017031686e+18
1.024849958e+18
1.028241904e+18
1.017808875e+18
1.051033191e+18
9.989082462e+17
6.468187522e+17
6.636953057e+17
6.768003021e+17
6.929483804e+17
7.090024048e+17
7.266759825e+17
7.464821377e+17
7.67999261e+17
7.913653285e+17
8.165524978e+17
8.42101792e+17
8.682376134e+17
8.946460709e+17
9.203922236e+17
9.443148749e+17
9.662262729e+17
9.849799418e+17
1.000939359e+18
1.012887867e+18
1.020416271e+18
1.024236316e+18
1.035118791e+18
9.795268515e+17
1.024602652e+18
8.056962228e+17
6.553503369e+17
6.635770507e+17
6.740916857e+17
6.770616825e+17
7.194971397e+17
7.390758893e+17
7.603226624e+17
7.829497092e+17
8.071147685e+17
8.322604549e+17
8.585550881e+17
8.846454474e+17
9.096843797e+17
9.335742435e+17
9.553571492e+17
9.747764796e+17
9.908870951e+17
1.003136767e+18
1.012025466e+18
1.016917571e+18
1.016961064e+18
1.005862241e+18
1.006276824e+18
6.801254567e+17
6.782149627e+17
6.987983408e+17
6.969411683e+17
7.226371897e+17
7.40952014e+17
7.604323026e+17
7.817646301e+17
8.039298189e+17
8.269949286e+17
8.50939793e+17
8.749762118e+17
8.992796167e+17
9.225245889e+17
9.436874357e+17
9.6261444e+17
9.788504153e+17
9.919461275e+17
1.00163124e+18
9.974199491e+17
1.032798032e+18
9.896354471e+17
1.000389791e+18
8.109066935e+17
6.613171764e+17
6.696189109e+17
6.82258553e+17
6.890371825e+17
7.270598621e+17
7.461563255e+17
7.666333664e+17
7.887787535e+17
8.121870408e+17
8.362529742e+17
8.60599878e+17
8.842608213e+17
9.074574758e+17
9.29155764e+17
9.485890105e+17
9.65435476e+17
9.788514318e+17
9.815269357e+17
1.038925818e+18
9.46291942e+17
1.01318072e+18
9.165684521e+17
6.845792405e+17
6.846273495e+17
6.944452911e+17
6.899125708e+17
7.034056655e+17
7.451155564e+17
7.640729593e+17
7.84288342e+17
8.056154451e+17
8.277073852e+17
8.502581306e+17
8.728236619e+17
8.948305097e+17
9.156992175e+17
9.341121957e+17
9.502286776e+17
9.568849657e+17
1.016683539e+18
9.322419246e+17
9.95534481e+17
8.711151217e+17
1.225344777e+18
8.160753857e+17
6.654405303e+17
6.875122206e+17
6.990563463e+17
6.964238122e+17
7.124275765e+17
7.535824775e+17
7.7313816e+17
7.939918654e+17
8.151383011e+17
8.364039905e+17
8.57773127e+17
8.785418885e+17
8.983696148e+17
9.163454381e+17
9.25037951e+17
9.859713416e+17
9.085299152e+17
9.734452358e+17
9.791307695e+17
1.03342847e+18
8.580466099e+17
6.766426475e+17
6.98982859e+17
7.117126649e+17
6.976216457e+17
7.552557334e+17
7.40666043e+17
7.855303394e+17
8.053187588e+17
8.251944795e+17
8.452059794e+17
8.650883756e+17
8.747374742e+17
9.123210549e+17
9.397165077e+17
8.823107604e+17
9.490859405e+17
9.573898627e+17
8.468934584e+17
1.195152542e+18
8.647769206e+17
6.785901019e+17
7.000582394e+17
7.274210918e+17
7.175000143e+17
7.169913772e+17
7.676026526e+17
7.848662026e+17
8.030759725e+17
8.204765301e+17
8.42886864e+17
8.854140253e+17
8.431505216e+17
8.783104446e+17
9.227423295e+17
9.32131838e+17
8.250640884e+17
1.208577242e+18
8.64312629e+17
6.881514574e+17
7.120841529e+17
7.227726005e+17
7.528889053e+17
7.576322198e+17
7.740245301e+17
7.92827142e+17
8.101426485e+17
8.269108964e+17
8.360735411e+17
8.760781346e+17
8.855733829e+17
7.855983583e+17
9.655838037e+17
1.137737141e+18
8.546699935e+17
7.372208199e+17
7.130886463e+17
7.392787754e+17
7.517592273e+17
7.684402483e+17
7.83313804e+17
8.017371664e+17
8.171624679e+17
8.368288041e+17
7.452525716e+17
9.031015007e+17
1.079122402e+18
8.725807699e+17
7.235180492e+17
7.364850326e+17
7.551250009e+17
7.72689164e+17
7.915219009e+17
8.085064948e+17
8.246799714e+17
1.028297911e+18
6.427775984e+17
6.491696738e+17
6.568597258e+17
6.691878992e+17
6.812067155e+17
6.95802573e+17
7.133269044e+17
7.336477534e+17
7.565810104e+17
7.821145658e+17
8.102405184e+17
8.405933933e+17
8.722007924e+17
9.042545161e+17
9.360608958e+17
9.665994664e+17
9.943192518e+17
1.018027844e+18
1.037298049e+18
1.051458745e+18
1.060452903e+18
1.064662445e+18
1.062672489e+18
1.056388498e+18
1.045721795e+18
1.031481167e+18
1.014661266e+18
6.405495268e+17
6.486011807e+17
6.548945696e+17
6.692570965e+17
6.835641545e+17
6.977426778e+17
7.143622851e+17
7.330999904e+17
7.542495053e+17
7.787349789e+17
8.055826343e+17
8.346214437e+17
8.653451924e+17
8.96978791e+17
9.281465822e+17
9.582431377e+17
9.861544465e+17
1.010523897e+18
1.030061472e+18
1.045032667e+18
1.053955327e+18
1.058333477e+18
1.057513717e+18
1.052300722e+18
1.042277411e+18
1.029212332e+18
1.01297059e+18
7.883088423e+17
6.391717672e+17
6.534167233e+17
6.653501129e+17
6.752813745e+17
6.896485544e+17
7.068767346e+17
7.266023573e+17
7.488957537e+17
7.743608483e+17
8.019689397e+17
8.313125007e+17
8.621936941e+17
8.939324332e+17
9.253373694e+17
9.553404793e+17
9.820088984e+17
1.006251907e+18
1.02591524e+18
1.040516831e+18
1.049777352e+18
1.054731876e+18
1.054774522e+18
1.050036406e+18
1.040800205e+18
1.028045383e+18
1.012500951e+18
6.639798415e+17
6.609934784e+17
6.736100005e+17
6.876239266e+17
7.030329802e+17
7.201330098e+17
7.394168834e+17
7.610669639e+17
7.847561763e+17
8.107657079e+17
8.385320487e+17
8.677479681e+17
8.974177115e+17
9.269954863e+17
9.553489661e+17
9.819680046e+17
1.004863609e+18
1.024030269e+18
1.038688037e+18
1.048304893e+18
1.052990453e+18
1.052745054e+18
1.048596924e+18
1.040390256e+18
1.028656481e+18
1.013674127e+18
6.354989834e+17
6.459080382e+17
6.542452462e+17
6.529287061e+17
6.970557721e+17
7.142097388e+17
7.327173046e+17
7.532956287e+17
7.763514356e+17
8.016080494e+17
8.286958755e+17
8.570631724e+17
8.862801551e+17
9.153787607e+17
9.43557519e+17
9.696548423e+17
9.927642213e+17
1.012394103e+18
1.027671664e+18
1.038245946e+18
1.044513074e+18
1.045682762e+18
1.042524733e+18
1.035907417e+18
1.025572059e+18
1.011405976e+18
6.295588702e+17
6.557536614e+17
6.72200717e+17
6.679776167e+17
6.868049416e+17
7.021920063e+17
7.197927216e+17
7.400825645e+17
7.626236238e+17
7.875106705e+17
8.142742471e+17
8.423289136e+17
8.712102746e+17
8.998196488e+17
9.277719888e+17
9.542632184e+17
9.771636646e+17
9.971143781e+17
1.013388742e+18
1.025199915e+18
1.032240408e+18
1.035184306e+18
1.033626907e+18
1.028251056e+18
1.019495083e+18
1.00729259e+18
7.866830247e+17
6.371917942e+17
6.475391231e+17
6.553562208e+17
6.56105647e+17
7.012179638e+17
7.181097692e+17
7.369437835e+17
7.57633608e+17
7.805710761e+17
8.052437479e+17
8.312862224e+17
8.578387552e+17
8.848275087e+17
9.11300706e+17
9.363843486e+17
9.593811261e+17
9.795064089e+17
9.962754904e+17
1.00880106e+18
1.017431779e+18
1.022279881e+18
1.022633519e+18
1.01905472e+18
1.011680856e+18
1.001690224e+18
6.631056799e+17
6.650875334e+17
6.82691565e+17
6.793258978e+17
6.975031382e+17
7.125039347e+17
7.295883236e+17
7.486233161e+17
7.700087386e+17
7.928151963e+17
8.171407191e+17
8.422408409e+17
8.682426833e+17
8.937191729e+17
9.178418192e+17
9.400955134e+17
9.600230266e+17
9.767414555e+17
9.903755944e+17
1.000203809e+18
1.006612538e+18
1.008672421e+18
1.007002097e+18
9.914111577e+17
1.054307091e+18
7.952646146e+17
6.410764053e+17
6.514496575e+17
6.615448014e+17
6.666540337e+17
7.076269796e+17
7.244833933e+17
7.430458614e+17
7.631453736e+17
7.845219937e+17
8.075537463e+17
8.316353843e+17
8.550297707e+17
8.784930432e+17
9.01690765e+17
9.233654465e+17
9.425007234e+17
9.598482672e+17
9.73986522e+17
9.848946565e+17
9.92648378e+17
9.963859892e+17
9.964312121e+17
1.00648202e+18
9.488485025e+17
8.295738844e+17
6.502037662e+17
6.726183863e+17
6.620754849e+17
6.724684071e+17
7.121919688e+17
7.29290084e+17
7.480181384e+17
7.687382477e+17
7.902909148e+17
8.130939898e+17
8.362147986e+17
8.595306504e+17
8.820424914e+17
9.033090275e+17
9.234537701e+17
9.412345767e+17
9.558924204e+17
9.677363769e+17
9.765476919e+17
9.82343743e+17
9.724787506e+17
1.014160236e+18
9.602340126e+17
6.706981791e+17
6.698450999e+17
6.782007725e+17
6.70433339e+17
6.843066989e+17
7.281347734e+17
7.456961259e+17
7.642439407e+17
7.838786589e+17
8.043072461e+17
8.256011024e+17
8.470781928e+17
8.681106066e+17
8.88358564e+17
9.071342787e+17
9.241184064e+17
9.390858808e+17
9.514388325e+17
9.614926194e+17
9.558424803e+17
1.016036976e+18
9.232521805e+17
9.824857851e+17
8.04390056e+17
6.487541092e+17
6.753952927e+17
6.847615695e+17
6.788128156e+17
6.943513883e+17
7.341530595e+17
7.51653153e+17
7.700909637e+17
7.887513578e+17
8.08595309e+17
8.284484562e+17
8.478390427e+17
8.669765327e+17
8.853224586e+17
9.022257659e+17
9.174418713e+17
9.185465262e+17
9.494773794e+17
9.751442499e+17
9.091471535e+17
8.552296703e+17
1.034578651e+18
8.384085883e+17
6.544796288e+17
6.792994821e+17
6.903699922e+17
6.722267541e+17
7.291263609e+17
7.131284569e+17
7.53001794e+17
7.70613271e+17
7.886279346e+17
8.074866144e+17
8.264673849e+17
8.449825e+17
8.627538367e+17
8.690991393e+17
9.034816622e+17
9.341065839e+17
8.805180048e+17
9.152981804e+17
8.363360342e+17
1.20667136e+18
8.131924831e+17
7.035312682e+17
6.694037772e+17
7.085072902e+17
6.965059672e+17
6.912009108e+17
7.398783366e+17
7.565317648e+17
7.697423597e+17
7.865840784e+17
8.010342642e+17
8.192630941e+17
8.372388341e+17
8.798607997e+17
8.337609998e+17
8.696716615e+17
9.150205163e+17
7.989949709e+17
1.172277706e+18
8.602875428e+17
6.767592633e+17
6.969395682e+17
7.220935614e+17
7.262327794e+17
7.404519044e+17
7.567683837e+17
7.723316204e+17
7.875576158e+17
8.04288202e+17
8.197380585e+17
8.283589157e+17
8.689341996e+17
7.626814434e+17
9.300033306e+17
1.100051999e+18
8.377458227e+17
6.892394331e+17
7.363249835e+17
7.09346748e+17
7.351460696e+17
7.473097778e+17
7.610952579e+17
7.785318364e+17
7.936102892e+17
7.075775312e+17
8.535426558e+17
8.423457388e+17
1.047078677e+18
8.777223317e+17
7.229429508e+17
7.371881523e+17
7.5162688e+17
7.666888859e+17
7.814291142e+17
9.76673336e+17
6.372083075e+17
6.406938641e+17
6.534664421e+17
6.653082416e+17
6.781890638e+17
6.929497318e+17
7.103520667e+17
7.304961606e+17
7.534123845e+17
7.790572349e+17
8.073148729e+17
8.390308297e+17
8.729976952e+17
9.08660086e+17
9.443085e+17
9.796021741e+17
1.012879798e+18
1.042213184e+18
1.066772017e+18
1.084878796e+18
1.096727716e+18
1.101985497e+18
1.100223873e+18
1.092332508e+18
1.079707991e+18
1.062607826e+18
1.042167847e+18
1.019598059e+18
9.946672898e+17
7.830391445e+17
6.341927694e+17
6.49737607e+17
6.600962724e+17
6.719891201e+17
6.859471099e+17
7.024929813e+17
7.219023832e+17
7.437548624e+17
7.692429704e+17
7.975524572e+17
8.286508231e+17
8.621440632e+17
8.97587212e+17
9.345491029e+17
9.703642644e+17
1.00340256e+18
1.033187681e+18
1.05792171e+18
1.07662812e+18
1.089255987e+18
1.094723328e+18
1.093959076e+18
1.08750032e+18
1.075373426e+18
1.059165644e+18
1.039677986e+18
1.017231469e+18
9.929031025e+17
6.433077637e+17
6.415680605e+17
6.353798728e+17
6.773064193e+17
6.926375947e+17
7.094550883e+17
7.284534591e+17
7.499083868e+17
7.736293079e+17
8.006037884e+17
8.302527049e+17
8.623765185e+17
8.961872947e+17
9.308357355e+17
9.649546391e+17
9.974218957e+17
1.026412408e+18
1.051141083e+18
1.069987281e+18
1.082455691e+18
1.088371103e+18
1.088580567e+18
1.08302794e+18
1.072402687e+18
1.056913801e+18
1.038347953e+18
1.016926052e+18
9.932582595e+17
6.403589841e+17
6.584912242e+17
6.501135297e+17
6.677432733e+17
6.806022818e+17
6.962202101e+17
7.145500336e+17
7.36010543e+17
7.606177724e+17
7.880739092e+17
8.187270136e+17
8.51496858e+17
8.858531e+17
9.206214707e+17
9.555118218e+17
9.882937973e+17
1.018184306e+18
1.042549527e+18
1.062050793e+18
1.075826263e+18
1.083109905e+18
1.084281277e+18
1.079661606e+18
1.069998734e+18
1.055593888e+18
1.037662756e+18
1.017186208e+18
9.944039071e+17
6.28553056e+17
6.429090571e+17
6.568633626e+17
6.656218975e+17
6.775650186e+17
6.921161266e+17
7.091801452e+17
7.291422042e+17
7.523047305e+17
7.78953234e+17
8.08261289e+17
8.397980021e+17
8.732033859e+17
9.071040537e+17
9.410233272e+17
9.735755241e+17
1.00330312e+18
1.027987616e+18
1.048489463e+18
1.063491097e+18
1.072073521e+18
1.074514097e+18
1.071402539e+18
1.063313053e+18
1.051454663e+18
1.035691213e+18
1.016808079e+18
9.960171999e+17
6.246627053e+17
6.478496201e+17
6.625710314e+17
6.7084167e+17
6.836433429e+17
6.980094585e+17
7.147265213e+17
7.336710837e+17
7.555907583e+17
7.799363296e+17
8.06984435e+17
8.367559547e+17
8.678603617e+17
8.996504181e+17
9.317124955e+17
9.621944437e+17
9.905790785e+17
1.015249659e+18
1.035704669e+18
1.050470524e+18
1.060115421e+18
1.064310767e+18
1.062863572e+18
1.056674455e+18
1.045642285e+18
1.031495468e+18
1.014272141e+18
9.948681548e+17
7.814195459e+17
6.154704094e+17
6.391422453e+17
6.394365468e+17
6.730638551e+17
6.872405926e+17
7.036376396e+17
7.225931944e+17
7.443968499e+17
7.683860675e+17
7.952400674e+17
8.241564715e+17
8.539803219e+17
8.849838563e+17
9.161244834e+17
9.46131496e+17
9.739231447e+17
9.987736862e+17
1.01937232e+18
1.035212077e+18
1.045655817e+18
1.051121582e+18
1.052050279e+18
1.047519297e+18
1.038819867e+18
1.026848344e+18
1.011703448e+18
9.937087009e+17
6.645099672e+17
6.619968994e+17
6.550478876e+17
6.676231924e+17
6.795645852e+17
6.940499105e+17
7.109566131e+17
7.307146438e+17
7.531559924e+17
7.778837181e+17
8.043331005e+17
8.330800304e+17
8.626260088e+17
8.928023742e+17
9.212461968e+17
9.486613297e+17
9.734718313e+17
9.943000922e+17
1.011213257e+18
1.023983908e+18
1.03155362e+18
1.034173393e+18
1.032515395e+18
1.026951553e+18
1.017830118e+18
1.005385288e+18
9.903867957e+17
7.880324232e+17
6.188820684e+17
6.435699939e+17
6.454271268e+17
6.802554592e+17
6.938024755e+17
7.091409378e+17
7.263950961e+17
7.46272465e+17
7.683816854e+17
7.924613264e+17
8.178156265e+17
8.450397443e+17
8.723008265e+17
8.991558098e+17
9.254275357e+17
9.493874023e+17
9.70521497e+17
9.883170595e+17
1.002391163e+18
1.011952715e+18
1.017139543e+18
1.018125035e+18
1.015422406e+18
1.008955073e+18
9.995188961e+17
9.86825197e+17
6.609384112e+17
6.504167465e+17
6.372936423e+17
6.43322978e+17
6.818249913e+17
6.962302708e+17
7.131053881e+17
7.318479125e+17
7.526435799e+17
7.756510279e+17
8.002660605e+17
8.255456121e+17
8.519619257e+17
8.784106623e+17
9.035828561e+17
9.272783528e+17
9.484649988e+17
9.67184935e+17
9.820000146e+17
9.936106085e+17
1.000743237e+18
1.004252821e+18
1.003710127e+18
9.994465666e+17
9.923431285e+17
9.827216827e+17
7.889985999e+17
6.374547243e+17
6.70547664e+17
6.689900671e+17
6.838862981e+17
6.973012109e+17
7.121488912e+17
7.290480218e+17
7.478856245e+17
7.681405121e+17
7.900627309e+17
8.132256527e+17
8.374213542e+17
8.616913792e+17
8.854794707e+17
9.077940168e+17
9.285720619e+17
9.467186809e+17
9.623491019e+17
9.749217174e+17
9.842389052e+17
9.895392743e+17
9.917186883e+17
9.903267643e+17
9.855858342e+17
9.785541881e+17
8.234076394e+17
6.212334838e+17
6.482289143e+17
6.544843469e+17
6.842624851e+17
6.978893934e+17
7.136435224e+17
7.309963439e+17
7.500434076e+17
7.704057205e+17
7.921964249e+17
8.146061629e+17
8.374324341e+17
8.602461634e+17
8.823962779e+17
9.028535479e+17
9.213634687e+17
9.378164455e+17
9.516022197e+17
9.617652204e+17
9.696523323e+17
9.741959821e+17
9.760773843e+17
9.599735496e+17
9.735105695e+17
6.639125204e+17
6.617120722e+17
6.496837988e+17
6.625019839e+17
6.944930647e+17
7.087363269e+17
7.24595938e+17
7.418799917e+17
7.600100546e+17
7.798227217e+17
7.99841398e+17
8.208032399e+17
8.41311436e+17
8.615087067e+17
8.808823166e+17
8.98889982e+17
9.154744319e+17
9.293027521e+17
9.406869615e+17
9.497238783e+17
9.563909166e+17
9.479443803e+17
1.006861704e+18
9.267800214e+17
7.881284869e+17
6.358850785e+17
6.608399426e+17
6.428985946e+17
6.992790751e+17
6.753851375e+17
7.136096179e+17
7.290220468e+17
7.454933665e+17
7.626575125e+17
7.811277692e+17
7.998758337e+17
8.191423361e+17
8.379645227e+17
8.560802067e+17
8.73456365e+17
8.898553097e+17
9.045839873e+17
9.172524744e+17
9.275511331e+17
9.233570158e+17
9.836639366e+17
9.004232918e+17
8.757068171e+17
7.948106332e+17
6.828919772e+17
6.66347233e+17
6.642570708e+17
6.676823395e+17
6.850450878e+17
7.198884042e+17
7.346843308e+17
7.504220376e+17
7.666291551e+17
7.836100898e+17
8.009216978e+17
8.182631283e+17
8.350717714e+17
8.515350039e+17
8.670655624e+17
8.81104695e+17
8.809714856e+17
9.139798685e+17
9.417371885e+17
8.78913693e+17
8.284632014e+17
1.217610133e+18
8.493870428e+17
6.551686184e+17
6.815410101e+17
6.628842961e+17
7.1301878e+17
7.322721694e+17
7.157876529e+17
7.544758639e+17
7.697643947e+17
7.850953453e+17
8.011272857e+17
8.169658765e+17
8.208525408e+17
8.526680825e+17
8.575105804e+17
8.954879865e+17
8.489064172e+17
7.674810382e+17
9.616753806e+17
1.123740005e+18
8.091037428e+17
6.958084861e+17
6.817601795e+17
6.924816502e+17
6.916075136e+17
6.853768052e+17
7.337536672e+17
7.462087068e+17
7.604229616e+17
7.734227918e+17
7.914838987e+17
8.277529159e+17
7.88087798e+17
8.282439931e+17
8.393123299e+17
7.746318703e+17
1.115162597e+18
8.246009451e+17
7.138981482e+17
6.74008978e+17
7.168881685e+17
7.149151645e+17
7.285431832e+17
7.404172395e+17
7.550666437e+17
7.664372694e+17
7.756862269e+17
7.182464993e+17
8.468803825e+17
8.326692793e+17
1.03457595e+18
8.413679901e+17
6.97703609e+17
7.048184062e+17
7.147981666e+17
7.309586421e+17
7.441067383e+17
7.534383954e+17
7.660863179e+17
9.570926598e+17
6.321931769e+17
6.443740806e+17
6.51462816e+17
6.610075843e+17
6.729571601e+17
6.879308805e+17
7.056709639e+17
7.275005498e+17
7.526280683e+17
7.814986802e+17
8.14709104e+17
8.514585495e+17
8.916015171e+17
9.335943295e+17
9.762682088e+17
1.017437786e+18
1.056011944e+18
1.089479079e+18
1.115510756e+18
1.132745052e+18
1.141716613e+18
1.141955528e+18
1.134449398e+18
1.119940911e+18
1.099757457e+18
1.075289815e+18
1.047867016e+18
1.018495e+18
9.879367414e+17
9.565147187e+17
6.226270458e+17
6.33246099e+17
6.233298392e+17
6.63688798e+17
6.761191378e+17
6.910308523e+17
7.086215217e+17
7.296344942e+17
7.536638097e+17
7.820259392e+17
8.135349979e+17
8.487753992e+17
8.877049613e+17
9.282840925e+17
9.700923194e+17
1.010772324e+18
1.048392738e+18
1.081623676e+18
1.10771341e+18
1.125426287e+18
1.135099335e+18
1.135662329e+18
1.128976837e+18
1.115375713e+18
1.095954631e+18
1.072279909e+18
1.045995524e+18
1.016886568e+18
9.864772677e+17
9.558854519e+17
6.380670283e+17
6.502640068e+17
6.413539202e+17
6.565143971e+17
6.67815474e+17
6.814328108e+17
6.98274777e+17
7.18021413e+17
7.41845232e+17
7.693531762e+17
8.012086971e+17
8.366285092e+17
8.749626551e+17
9.161716417e+17
9.580777566e+17
9.992771217e+17
1.037526954e+18
1.070935026e+18
1.097472413e+18
1.11551778e+18
1.126422325e+18
1.128458007e+18
1.123091175e+18
1.111404982e+18
1.093103936e+18
1.070291525e+18
1.044305341e+18
1.016341102e+18
9.866946486e+17
9.568130528e+17
6.27426466e+17
6.405594675e+17
6.502581539e+17
6.606944602e+17
6.722572111e+17
6.860117355e+17
7.026340422e+17
7.222576726e+17
7.451401069e+17
7.713018246e+17
8.013487138e+17
8.352652912e+17
8.722926431e+17
9.114525874e+17
9.517989674e+17
9.916266279e+17
1.028361189e+18
1.060887907e+18
1.087633222e+18
1.107444465e+18
1.118659363e+18
1.12164558e+18
1.117421376e+18
1.106487531e+18
1.090106314e+18
1.069003166e+18
1.044715291e+18
1.017826472e+18
9.890547269e+17
9.597018899e+17
6.268971968e+17
6.397234469e+17
6.540704426e+17
6.63302505e+17
6.758490157e+17
6.901542837e+17
7.06664938e+17
7.26165468e+17
7.486240182e+17
7.740768639e+17
8.031463534e+17
8.351962801e+17
8.707656962e+17
9.080797407e+17
9.460074353e+17
9.837786872e+17
1.019399079e+18
1.051003474e+18
1.076403549e+18
1.095851737e+18
1.108229255e+18
1.112492193e+18
1.109243718e+18
1.10026492e+18
1.085476396e+18
1.066812133e+18
1.043987662e+18
1.018722368e+18
9.913632033e+17
9.635408259e+17
7.800612434e+17
6.233362436e+17
6.521690308e+17
6.553569799e+17
6.661032883e+17
6.790394147e+17
6.945770929e+17
7.125021492e+17
7.340477737e+17
7.586527373e+17
7.861921849e+17
8.172693443e+17
8.517000808e+17
8.877209248e+17
9.245755907e+17
9.616731314e+17
9.969024645e+17
1.028809276e+18
1.0555297e+18
1.076401954e+18
1.089853925e+18
1.096592106e+18
1.096194516e+18
1.090131475e+18
1.078028266e+18
1.061067552e+18
1.040962264e+18
1.017320876e+18
9.919191874e+17
9.653565965e+17
6.36239805e+17
6.327610609e+17
6.291787487e+17
6.653024867e+17
6.784545894e+17
6.937523127e+17
7.114702586e+17
7.320421285e+17
7.550885153e+17
7.814797526e+17
8.102817171e+17
8.420659638e+17
8.759549137e+17
9.114524743e+17
9.463440593e+17
9.799040174e+17
1.011053924e+18
1.037231085e+18
1.058343635e+18
1.072957504e+18
1.081337512e+18
1.083023461e+18
1.079152289e+18
1.069415498e+18
1.055856166e+18
1.037865269e+18
1.016688833e+18
9.935964936e+17
9.694837241e+17
6.266461542e+17
6.565673042e+17
6.490204627e+17
6.651640681e+17
6.773354297e+17
6.916396539e+17
7.07707685e+17
7.259470817e+17
7.472709731e+17
7.714579826e+17
7.983934294e+17
8.277707237e+17
8.590188038e+17
8.919815081e+17
9.255775763e+17
9.572674096e+17
9.873387632e+17
1.013538706e+18
1.034447716e+18
1.05081833e+18
1.060672411e+18
1.064875541e+18
1.063574557e+18
1.057156638e+18
1.046005094e+18
1.031258456e+18
1.013453709e+18
9.931417249e+17
9.712665972e+17
7.765473455e+17
6.086838283e+17
6.315618042e+17
6.278715688e+17
6.650017819e+17
6.774281161e+17
6.917482683e+17
7.089749527e+17
7.285941188e+17
7.513337292e+17
7.765128107e+17
8.04222268e+17
8.343867449e+17
8.659854524e+17
8.973841084e+17
9.281979803e+17
9.576000653e+17
9.839096101e+17
1.006413857e+18
1.024166048e+18
1.036671916e+18
1.043721546e+18
1.045107318e+18
1.04259019e+18
1.034903381e+18
1.023600045e+18
1.00863726e+18
9.912638349e+17
9.718415851e+17
6.546275141e+17
6.574544109e+17
6.529558442e+17
6.687471201e+17
6.820871773e+17
6.968730192e+17
7.133415838e+17
7.317691204e+17
7.521826935e+17
7.746746189e+17
7.992651001e+17
8.260756772e+17
8.543159473e+17
8.827627545e+17
9.116097523e+17
9.38501662e+17
9.633015739e+17
9.852847701e+17
1.003267329e+18
1.016621307e+18
1.025578101e+18
1.029735534e+18
1.029091986e+18
1.024803882e+18
1.016186259e+18
1.004692861e+18
9.901141629e+17
9.733119183e+17
7.78601161e+17
6.099433415e+17
6.369299988e+17
6.375545758e+17
6.726101292e+17
6.858783456e+17
7.00596829e+17
7.177334622e+17
7.368230595e+17
7.584553888e+17
7.813433469e+17
8.061895372e+17
8.324153371e+17
8.597278124e+17
8.862929326e+17
9.124327978e+17
9.367518127e+17
9.582873932e+17
9.771607599e+17
9.925337829e+17
1.003411811e+18
1.010326588e+18
1.012899752e+18
1.011554916e+18
1.00609312e+18
9.975564691e+17
9.866135638e+17
9.728879013e+17
6.531774109e+17
6.48462385e+17
6.356828827e+17
6.425109284e+17
6.826731543e+17
6.964333941e+17
7.117459605e+17
7.290585744e+17
7.476810358e+17
7.680043497e+17
7.900126597e+17
8.135617452e+17
8.379435213e+17
8.625045942e+17
8.868653876e+17
9.101160441e+17
9.312778046e+17
9.502391111e+17
9.658243703e+17
9.782124109e+17
9.874323035e+17
9.931234756e+17
9.944784587e+17
9.928517058e+17
9.879723775e+17
9.800966756e+17
9.695837005e+17
7.749565215e+17
6.256220818e+17
6.615570969e+17
6.590337223e+17
6.706119672e+17
6.827096859e+17
6.966198485e+17
7.123715884e+17
7.29922958e+17
7.49217612e+17
7.695716407e+17
7.913130058e+17
8.138849541e+17
8.371531872e+17
8.601126211e+17
8.819753215e+17
9.026011657e+17
9.217624822e+17
9.388005702e+17
9.523053244e+17
9.631739549e+17
9.711198558e+17
9.7542234e+17
9.762798666e+17
9.745409108e+17
9.696342584e+17
9.6273175e+17
8.186060869e+17
6.107760519e+17
6.428510329e+17
6.508959299e+17
6.777011629e+17
6.893878845e+17
7.02692613e+17
7.172867419e+17
7.33445523e+17
7.512519753e+17
7.701677816e+17
7.900718818e+17
8.104331283e+17
8.306883004e+17
8.51454943e+17
8.713521895e+17
8.900305398e+17
9.070401877e+17
9.218972627e+17
9.343562513e+17
9.442147854e+17
9.513097559e+17
9.558579811e+17
9.574138999e+17
9.564833137e+17
9.535356968e+17
8.081437684e+17
6.264282403e+17
6.256977207e+17
6.777541601e+17
6.520376037e+17
6.866812905e+17
6.994976578e+17
7.136126745e+17
7.293585037e+17
7.467225299e+17
7.647804454e+17
7.83847523e+17
8.034310154e+17
8.227119466e+17
8.417231316e+17
8.602808306e+17
8.777648822e+17
8.933420495e+17
9.071565484e+17
9.18911806e+17
9.280336438e+17
9.347220405e+17
9.388863836e+17
9.299776207e+17
9.897962042e+17
8.120155897e+17
6.491627418e+17
6.497606179e+17
6.472022131e+17
6.609754977e+17
6.935759591e+17
7.066022275e+17
7.206536213e+17
7.358764126e+17
7.524317579e+17
7.693923058e+17
7.86701173e+17
8.047689453e+17
8.219695619e+17
8.387667948e+17
8.550733988e+17
8.702923519e+17
8.840604127e+17
8.965290228e+17
9.06922399e+17
9.020776938e+17
9.27726134e+17
9.511430832e+17
8.77231664e+17
8.249924175e+17
6.32754437e+17
6.586202578e+17
6.378220468e+17
6.949999733e+17
6.733005271e+17
7.093259303e+17
7.227166431e+17
7.367640343e+17
7.51523468e+17
7.67117282e+17
7.827374733e+17
7.988456965e+17
8.148127797e+17
8.302191211e+17
8.449696697e+17
8.587722648e+17
8.714109641e+17
8.698101145e+17
9.347520787e+17
8.674967879e+17