/*--------------------------------*- C++ -*----------------------------------*\
| =========                 |                                                 |
| \\      /  F ield         | OpenFOAM: The Open Source CFD Toolbox           |
|  \\    /   O peration     | Version:  v1706                                 |
|   \\  /    A nd           | Web:      www.OpenFOAM.com                      |
|    \\/     M anipulation  |                                                 |
\*---------------------------------------------------------------------------*/
FoamFile
{
    version     2.0;
    format      ascii;
    class       volScalarField;
    location    "3.2711";
    object      rhoN_mixture;
}
// * * * * * * * * * * * * * * * * * * * * * * * * * * * * * * * * * * * * * //

dimensions      [0 -3 0 0 0 0 0];


internalField   nonuniform List<scalar> 
60268
(
3.481003377e+18
3.568349501e+18
3.657506188e+18
3.76189238e+18
3.863344916e+18
3.968070149e+18
4.067643405e+18
4.180521967e+18
4.275031026e+18
4.375119425e+18
4.431399121e+18
4.298318663e+18
3.610778788e+18
3.664347604e+18
3.752281562e+18
3.852790959e+18
3.956665326e+18
4.064553404e+18
4.163937489e+18
4.263813005e+18
4.374104558e+18
4.44412586e+18
3.662631847e+18
3.653059559e+18
3.744306254e+18
3.845525907e+18
3.947270426e+18
4.049253554e+18
4.149429066e+18
4.259592413e+18
3.729209913e+18
5.47008323e+18
4.393552667e+18
3.680106749e+18
3.741950398e+18
3.838817709e+18
3.930591023e+18
4.036197492e+18
4.144183363e+18
4.26540125e+18
4.469666199e+18
4.609611244e+18
3.760257726e+18
3.817291787e+18
3.918810737e+18
4.023577714e+18
3.526748377e+18
4.367319605e+18
5.122990775e+18
4.606357614e+18
3.806215863e+18
3.857551718e+18
4.002659629e+18
5.028236078e+18
3.255371503e+18
3.306534525e+18
3.361986023e+18
3.439969717e+18
3.545877413e+18
3.656945751e+18
3.762356907e+18
3.87409667e+18
3.990648194e+18
4.108014601e+18
4.224635458e+18
4.337702234e+18
4.444599576e+18
4.540488043e+18
4.614150048e+18
4.644326816e+18
4.712460892e+18
4.778721729e+18
4.799646313e+18
4.813526486e+18
3.229469518e+18
3.319962046e+18
3.380148675e+18
3.406321218e+18
3.496052217e+18
3.51915633e+18
3.779522135e+18
3.889833218e+18
4.003192996e+18
4.117750456e+18
4.232098454e+18
4.34300744e+18
4.446394026e+18
4.540893018e+18
4.604030198e+18
4.642104716e+18
4.712889082e+18
4.766846931e+18
4.826516548e+18
4.811633953e+18
3.212230801e+18
3.312890819e+18
3.373411012e+18
3.46077733e+18
3.580911109e+18
3.606907436e+18
3.76394658e+18
3.872298668e+18
3.985348188e+18
4.100008435e+18
4.21405263e+18
4.325014243e+18
4.428567558e+18
4.489647237e+18
4.714051797e+18
4.582359723e+18
4.7001243e+18
4.765366762e+18
4.193564828e+18
5.943521832e+18
3.187610597e+18
3.297099062e+18
3.362067652e+18
3.422038343e+18
3.471126556e+18
3.5395422e+18
3.588418019e+18
3.837381341e+18
3.949648136e+18
4.062596101e+18
4.176365124e+18
4.287837062e+18
4.391192853e+18
4.555547362e+18
4.352940366e+18
4.651996504e+18
4.683209377e+18
4.750076324e+18
4.953249005e+18
3.979343927e+18
3.278410479e+18
3.368373351e+18
3.437150612e+18
3.508181986e+18
3.597613838e+18
3.604208254e+18
3.678325675e+18
3.92699387e+18
4.037931313e+18
4.14769452e+18
4.220617462e+18
4.411174664e+18
4.477521023e+18
4.408027385e+18
4.557532956e+18
4.655396401e+18
4.726332851e+18
4.757432017e+18
3.35154302e+18
3.344824324e+18
3.407660088e+18
3.480835125e+18
3.565358477e+18
3.65844968e+18
3.618000484e+18
3.86186195e+18
3.980449913e+18
4.082110607e+18
4.301292643e+18
4.101209009e+18
4.267638907e+18
4.49679553e+18
4.545998755e+18
4.633260351e+18
4.074999801e+18
5.791327862e+18
4.022606866e+18
3.312136776e+18
3.422092385e+18
3.493960047e+18
3.571229849e+18
3.650079279e+18
3.803334023e+18
3.84967789e+18
3.931465827e+18
4.040572077e+18
4.091434432e+18
4.281790498e+18
4.327922402e+18
4.441626757e+18
4.538355875e+18
3.97489619e+18
5.896071338e+18
4.229768503e+18
3.369759782e+18
3.479873319e+18
3.559474434e+18
3.641139336e+18
3.74275573e+18
3.832377746e+18
3.92297258e+18
4.014646764e+18
4.115024664e+18
4.217521352e+18
4.316865208e+18
4.409430599e+18
3.877106164e+18
5.760808113e+18
4.296958953e+18
3.412944717e+18
3.521258311e+18
3.61120117e+18
3.702118403e+18
3.789535108e+18
3.892793319e+18
3.98085775e+18
4.074767786e+18
4.16972723e+18
4.274272646e+18
3.762788304e+18
5.572869875e+18
4.18989241e+18
3.633117405e+18
3.553808556e+18
3.66642088e+18
3.751915071e+18
3.840658392e+18
3.93920629e+18
4.036850408e+18
3.589775712e+18
4.354017705e+18
5.247551567e+18
4.360572509e+18
3.607774255e+18
3.696471301e+18
3.792022327e+18
3.892951045e+18
3.980867757e+18
4.970620692e+18
3.153902937e+18
3.211311571e+18
3.243083221e+18
3.333697063e+18
3.446858112e+18
3.538076772e+18
3.637545709e+18
3.745312617e+18
3.860902306e+18
3.983627743e+18
4.110882725e+18
4.239061682e+18
4.36723798e+18
4.489966797e+18
4.603145509e+18
4.703251821e+18
4.78760966e+18
4.852858123e+18
4.897002367e+18
4.920096394e+18
4.922285737e+18
4.905189141e+18
4.869944488e+18
4.799321077e+18
3.126759607e+18
3.185023043e+18
3.243237181e+18
3.322710602e+18
3.413254848e+18
3.505233906e+18
3.606572077e+18
3.71800168e+18
3.837261771e+18
3.963406361e+18
4.094707085e+18
4.226092521e+18
4.355730628e+18
4.480056106e+18
4.593039042e+18
4.694943107e+18
4.779233796e+18
4.845174348e+18
4.888925425e+18
4.913247382e+18
4.916742893e+18
4.901743048e+18
4.872305732e+18
4.791459427e+18
3.107325182e+18
3.196557547e+18
3.236930233e+18
3.325788197e+18
3.412188235e+18
3.499408749e+18
3.595223725e+18
3.700401459e+18
3.814973632e+18
3.936616245e+18
4.064330784e+18
4.194736219e+18
4.323417696e+18
4.448187999e+18
4.563176786e+18
4.665276039e+18
4.752040128e+18
4.818675977e+18
4.866605979e+18
4.894465005e+18
4.902180486e+18
4.843680203e+18
4.991822131e+18
4.734416092e+18
3.090401072e+18
3.172027105e+18
3.237191817e+18
3.318010561e+18
3.398796976e+18
3.486796893e+18
3.584771595e+18
3.691464107e+18
3.806150723e+18
3.928169035e+18
4.053755667e+18
4.180103457e+18
4.307140791e+18
4.428715075e+18
4.540611769e+18
4.642460132e+18
4.728278223e+18
4.797145335e+18
4.845629859e+18
4.874000443e+18
4.883472232e+18
4.926558773e+18
4.653673279e+18
4.857263673e+18
3.848679696e+18
3.132430133e+18
3.174736699e+18
3.22730968e+18
3.245562418e+18
3.452942285e+18
3.54928526e+18
3.653416413e+18
3.764618871e+18
3.882764397e+18
4.005706058e+18
4.131933405e+18
4.2559753e+18
4.375739035e+18
4.489186105e+18
4.589432964e+18
4.676775364e+18
4.748320102e+18
4.801001319e+18
4.835440393e+18
4.849939368e+18
4.843423607e+18
4.781270237e+18
4.770434965e+18
3.250253301e+18
3.243381409e+18
3.343208128e+18
3.337441097e+18
3.464408004e+18
3.55489782e+18
3.651416715e+18
3.754892073e+18
3.864275175e+18
3.977620447e+18
4.093751371e+18
4.210909795e+18
4.325765629e+18
4.434341971e+18
4.533394847e+18
4.619931018e+18
4.692989641e+18
4.749496657e+18
4.788145543e+18
4.76316571e+18
4.925348462e+18
4.709433754e+18
4.748476046e+18
3.874138483e+18
3.162724232e+18
3.204939443e+18
3.267284273e+18
3.302441786e+18
3.488715e+18
3.582925609e+18
3.685279393e+18
3.79401168e+18
3.908997544e+18
4.02590432e+18
4.143310102e+18
4.256574192e+18
4.36607485e+18
4.466873098e+18
4.555929222e+18
4.63100539e+18
4.689942748e+18
4.696969389e+18
4.962962527e+18
4.511502783e+18
4.822491711e+18
4.352543435e+18
3.273179095e+18
3.275071827e+18
3.323494134e+18
3.304573419e+18
3.371896386e+18
3.574776521e+18
3.667606211e+18
3.767566354e+18
3.871090033e+18
3.979828587e+18
4.089633465e+18
4.197518933e+18
4.300762807e+18
4.398281653e+18
4.484820483e+18
4.559908992e+18
4.585643454e+18
4.86610943e+18
4.455207142e+18
4.750080864e+18
4.148744377e+18
5.82775276e+18
3.901689054e+18
3.183547426e+18
3.292056073e+18
3.349406577e+18
3.338964573e+18
3.41834434e+18
3.620044388e+18
3.715829993e+18
3.816587138e+18
3.918877441e+18
4.022882052e+18
4.124648302e+18
4.223408254e+18
4.317592717e+18
4.402547738e+18
4.439851093e+18
4.728304043e+18
4.351003703e+18
4.654359629e+18
4.672138715e+18
4.924814541e+18
4.102370797e+18
3.236905769e+18
3.345913363e+18
3.40913806e+18
3.344016523e+18
3.623230731e+18
3.556164354e+18
3.772847316e+18
3.869113554e+18
3.966837611e+18
4.063538591e+18
4.158830636e+18
4.203036832e+18
4.381347981e+18
4.50908146e+18
4.230318559e+18
4.546478194e+18
4.581344475e+18
4.044880203e+18
5.697685639e+18
4.136472739e+18
3.247251796e+18
3.352943108e+18
3.485651444e+18
3.439847086e+18
3.44005355e+18
3.684295182e+18
3.769492839e+18
3.858523973e+18
3.943041389e+18
4.050933113e+18
4.253869382e+18
4.048400432e+18
4.215105316e+18
4.423923128e+18
4.467418784e+18
3.948096582e+18
5.777530712e+18
4.137536352e+18
3.296318841e+18
3.412869453e+18
3.466608601e+18
3.611907529e+18
3.636023247e+18
3.716607627e+18
3.808383957e+18
3.890760408e+18
3.97052185e+18
4.012982373e+18
4.204342761e+18
4.249370217e+18
3.767365435e+18
4.625728037e+18
5.445527466e+18
4.090021803e+18
3.529508842e+18
3.416991624e+18
3.544179059e+18
3.607012479e+18
3.688532557e+18
3.759920688e+18
3.848906736e+18
3.923543484e+18
4.01874592e+18
3.578291104e+18
4.334994882e+18
5.175204592e+18
4.180653246e+18
3.46733675e+18
3.530484855e+18
3.621951937e+18
3.706606722e+18
3.797953215e+18
3.880355919e+18
3.957160207e+18
4.93229561e+18
3.069114529e+18
3.100775886e+18
3.138369814e+18
3.199811691e+18
3.262072575e+18
3.336113196e+18
3.423373412e+18
3.52361666e+18
3.637568397e+18
3.764486124e+18
3.902603491e+18
4.050611972e+18
4.203978952e+18
4.358733946e+18
4.509627049e+18
4.65238696e+18
4.780462807e+18
4.888537423e+18
4.972783119e+18
5.030942824e+18
5.062765212e+18
5.070275535e+18
5.05197894e+18
5.011095357e+18
4.950618652e+18
4.873143711e+18
4.783165399e+18
3.05783633e+18
3.097404263e+18
3.128795815e+18
3.200627654e+18
3.273326283e+18
3.344977381e+18
3.426833117e+18
3.520612716e+18
3.627435484e+18
3.74782522e+18
3.880576363e+18
4.022863158e+18
4.172559317e+18
4.325016372e+18
4.473975123e+18
4.615389282e+18
4.743453245e+18
4.852764049e+18
4.940387756e+18
5.002255967e+18
5.037415149e+18
5.046313485e+18
5.030780139e+18
4.994542479e+18
4.937311174e+18
4.864635139e+18
4.778781111e+18
3.762658653e+18
3.05201843e+18
3.122590829e+18
3.182216181e+18
3.234737562e+18
3.307716812e+18
3.393319558e+18
3.491712254e+18
3.603810136e+18
3.728366513e+18
3.864082529e+18
4.00858779e+18
4.158473821e+18
4.309881388e+18
4.457886852e+18
4.599545085e+18
4.725864282e+18
4.835427799e+18
4.92043095e+18
4.981870739e+18
5.018844097e+18
5.030869915e+18
5.019253382e+18
4.984350235e+18
4.931562697e+18
4.860450347e+18
4.77659955e+18
3.170204385e+18
3.15759517e+18
3.220174178e+18
3.289416224e+18
3.365338096e+18
3.450530019e+18
3.546037372e+18
3.653045645e+18
3.770618119e+18
3.897902625e+18
4.034401627e+18
4.176268185e+18
4.319648533e+18
4.461567129e+18
4.597085754e+18
4.718488658e+18
4.822876981e+18
4.907827827e+18
4.969994962e+18
5.007392299e+18
5.021590753e+18
5.011700303e+18
4.979889534e+18
4.929692992e+18
4.863286027e+18
4.782351006e+18
3.034721494e+18
3.085635455e+18
3.127487462e+18
3.123594569e+18
3.338641504e+18
3.422138498e+18
3.514747161e+18
3.617304091e+18
3.730526508e+18
3.854940137e+18
3.986698689e+18
4.125498897e+18
4.266233724e+18
4.405114658e+18
4.537300533e+18
4.660557975e+18
4.766064284e+18
4.853069393e+18
4.920267377e+18
4.963254908e+18
4.982419396e+18
4.978604252e+18
4.954143345e+18
4.910563664e+18
4.850746486e+18
4.776634772e+18
3.005704013e+18
3.132882592e+18
3.213659698e+18
3.196344446e+18
3.290823229e+18
3.367838558e+18
3.456082108e+18
3.556106118e+18
3.667811954e+18
3.790616658e+18
3.921119163e+18
4.057359208e+18
4.197141829e+18
4.334642686e+18
4.46625511e+18
4.58830452e+18
4.695388903e+18
4.785767372e+18
4.856182847e+18
4.904896715e+18
4.930899014e+18
4.935284121e+18
4.917667347e+18
4.881553623e+18
4.830180846e+18
4.763243836e+18
3.755890477e+18
3.042881039e+18
3.094494115e+18
3.133726039e+18
3.140321496e+18
3.359391882e+18
3.44389148e+18
3.537732139e+18
3.640411599e+18
3.75279599e+18
3.874011526e+18
4.000522968e+18
4.129513164e+18
4.259688574e+18
4.385481404e+18
4.504327068e+18
4.610962165e+18
4.701467948e+18
4.77419841e+18
4.827929041e+18
4.861346133e+18
4.873855871e+18
4.866914932e+18
4.840766216e+18
4.798189278e+18
4.743566221e+18
3.166910747e+18
3.177890819e+18
3.263734176e+18
3.249647173e+18
3.340277413e+18
3.415007286e+18
3.500949333e+18
3.595876272e+18
3.700363247e+18
3.813598819e+18
3.932678079e+18
4.054997307e+18
4.17903497e+18
4.29923567e+18
4.413535407e+18
4.518474569e+18
4.610329787e+18
4.686007523e+18
4.744144351e+18
4.784088522e+18
4.804658627e+18
4.806781978e+18
4.79182878e+18
4.709261106e+18
4.998841008e+18
3.795191613e+18
3.062265866e+18
3.113934802e+18
3.164286158e+18
3.191933241e+18
3.390741301e+18
3.474352621e+18
3.566249606e+18
3.665128427e+18
3.770136979e+18
3.881783335e+18
3.996590149e+18
4.111992836e+18
4.225272816e+18
4.334319595e+18
4.435996879e+18
4.52571297e+18
4.603959622e+18
4.665932005e+18
4.710799627e+18
4.739932165e+18
4.750347104e+18
4.744590599e+18
4.785034674e+18
4.502428098e+18
3.961733908e+18
3.106880628e+18
3.21698198e+18
3.168617419e+18
3.220379714e+18
3.416629388e+18
3.501429888e+18
3.594981803e+18
3.695451717e+18
3.80152227e+18
3.912085269e+18
4.024082606e+18
4.134858543e+18
4.242945122e+18
4.34376788e+18
4.436486415e+18
4.517844449e+18
4.585335338e+18
4.637091442e+18
4.6729052e+18
4.692524464e+18
4.636538511e+18
4.827149496e+18
4.562515708e+18
3.204085618e+18
3.20184269e+18
3.243376641e+18
3.209229944e+18
3.278058171e+18
3.489610722e+18
3.576406672e+18
3.668015951e+18
3.76515589e+18
3.86517671e+18
3.967732502e+18
4.070176316e+18
4.170064695e+18
4.265707379e+18
4.354376963e+18
4.433847443e+18
4.502103363e+18
4.556268015e+18
4.598321509e+18
4.566693788e+18
4.846892546e+18
4.396269424e+18
4.669369558e+18
3.84051612e+18
3.1005537e+18
3.23013929e+18
3.276256291e+18
3.250281557e+18
3.327338275e+18
3.521498711e+18
3.607049334e+18
3.697128328e+18
3.789712465e+18
3.884615067e+18
3.979405823e+18
4.074073689e+18
4.164899981e+18
4.251626345e+18
4.330794599e+18
4.400229636e+18
4.40140623e+18
4.545543224e+18
4.663466027e+18
4.341286088e+18
4.075675046e+18
4.921652292e+18
4.008178214e+18
3.129401788e+18
3.248842054e+18
3.304049445e+18
3.219577711e+18
3.494699381e+18
3.420017497e+18
3.613456993e+18
3.699789718e+18
3.788889435e+18
3.88002266e+18
3.971064852e+18
4.059968602e+18
4.144330218e+18
4.1717081e+18
4.333579155e+18
4.47720148e+18
4.215788995e+18
4.378066563e+18
3.995944721e+18
5.757270663e+18
3.888967872e+18
3.365500031e+18
3.203339985e+18
3.391920541e+18
3.337038483e+18
3.312457516e+18
3.547682732e+18
3.628971069e+18
3.694236603e+18
3.776604572e+18
3.846610096e+18
3.934668361e+18
4.020780651e+18
4.225170829e+18
4.002018939e+18
4.171997212e+18
4.385118966e+18
3.824184919e+18
5.604766168e+18
4.115410066e+18
3.239771355e+18
3.338090035e+18
3.460115804e+18
3.481690863e+18
3.551257419e+18
3.6306716e+18
3.706845633e+18
3.779997638e+18
3.859999255e+18
3.933451155e+18
3.97350162e+18
4.167073916e+18
3.655881307e+18
4.455206982e+18
5.266360077e+18
4.007367578e+18
3.297560375e+18
3.525304168e+18
3.398407977e+18
3.524312508e+18
3.584099325e+18
3.650862598e+18
3.736246919e+18
3.809141729e+18
3.394625604e+18
4.094143697e+18
4.036674607e+18
5.01445848e+18
4.201210861e+18
3.461578944e+18
3.531276026e+18
3.601621728e+18
3.674464144e+18
3.746671553e+18
4.683567992e+18
3.039718605e+18
3.057569939e+18
3.120673177e+18
3.179502237e+18
3.243295554e+18
3.317077023e+18
3.403136682e+18
3.502478195e+18
3.615560124e+18
3.742116691e+18
3.883462009e+18
4.038919628e+18
4.204479936e+18
4.376900742e+18
4.54882214e+18
4.715295925e+18
4.870418869e+18
5.004744385e+18
5.112825781e+18
5.18960259e+18
5.234237476e+18
5.2458434e+18
5.22617242e+18
5.177439164e+18
5.104621012e+18
5.013319253e+18
4.90638937e+18
4.78850751e+18
4.662648498e+18
3.736760962e+18
3.026109953e+18
3.101732323e+18
3.153889512e+18
3.213823542e+18
3.28412541e+18
3.366782642e+18
3.463045067e+18
3.572564392e+18
3.698234461e+18
3.837464781e+18
3.990722102e+18
4.154756963e+18
4.326244586e+18
4.500649485e+18
4.669561947e+18
4.826082397e+18
4.963278694e+18
5.072991742e+18
5.153106844e+18
5.200961272e+18
5.216235092e+18
5.19925049e+18
5.155845773e+18
5.088173902e+18
4.999885637e+18
4.896909247e+18
4.781921766e+18
4.658799653e+18
3.071076996e+18
3.064100727e+18
3.037363869e+18
3.239685067e+18
3.31557149e+18
3.398165008e+18
3.491798447e+18
3.597384308e+18
3.716064437e+18
3.848611183e+18
3.994304735e+18
4.151579568e+18
4.315885119e+18
4.483448525e+18
4.64595078e+18
4.798470579e+18
4.932774546e+18
5.04191346e+18
5.122362399e+18
5.172597485e+18
5.190453131e+18
5.179243392e+18
5.139322416e+18
5.075866641e+18
4.992148795e+18
4.892631977e+18
4.781336638e+18
4.660936215e+18
3.055915725e+18
3.144226665e+18
3.10641882e+18
3.194257342e+18
3.25888231e+18
3.336518717e+18
3.428454816e+18
3.535961949e+18
3.657766256e+18
3.794489439e+18
3.944376817e+18
4.104641052e+18
4.271550566e+18
4.439249318e+18
4.603839365e+18
4.757473599e+18
4.892884445e+18
5.004246534e+18
5.088914912e+18
5.14227839e+18
5.165182695e+18
5.158705452e+18
5.123959727e+18
5.065790743e+18
4.987730488e+18
4.893337358e+18
4.786772883e+18
4.670684508e+18
2.998207116e+18
3.069641557e+18
3.137575333e+18
3.181159462e+18
3.242731068e+18
3.315453346e+18
3.401601197e+18
3.502164582e+18
3.618418089e+18
3.7489673e+18
3.893489347e+18
4.048376156e+18
4.210235702e+18
4.374986934e+18
4.535825301e+18
4.688199008e+18
4.824500795e+18
4.938267957e+18
5.026962694e+18
5.088266723e+18
5.119043308e+18
5.119243925e+18
5.093176538e+18
5.043086222e+18
4.973716836e+18
4.88739404e+18
4.787534574e+18
4.67862172e+18
2.97931112e+18
3.09284075e+18
3.164854287e+18
3.206856976e+18
3.269899086e+18
3.342220984e+18
3.425486776e+18
3.520720976e+18
3.627831899e+18
3.748642236e+18
3.882039655e+18
4.026293327e+18
4.177796959e+18
4.331970642e+18
4.48561082e+18
4.630580633e+18
4.762832046e+18
4.875229648e+18
4.964918454e+18
5.027956255e+18
5.064257364e+18
5.072604618e+18
5.054441995e+18
5.013446839e+18
4.952616761e+18
4.875560884e+18
4.783681022e+18
4.682593212e+18
3.729638926e+18
2.938370907e+18
3.05303509e+18
3.056844975e+18
3.220918194e+18
3.291495991e+18
3.373445174e+18
3.467943334e+18
3.575353274e+18
3.694695137e+18
3.82615059e+18
3.966161415e+18
4.113637757e+18
4.263122724e+18
4.41124003e+18
4.552204918e+18
4.681866777e+18
4.795405584e+18
4.886613515e+18
4.953660264e+18
4.996109562e+18
5.012338722e+18
5.004174787e+18
4.973613954e+18
4.923118717e+18
4.856651742e+18
4.77505865e+18
4.6816654e+18
3.172147468e+18
3.161643427e+18
3.130612933e+18
3.194058969e+18
3.254690535e+18
3.327355408e+18
3.413028987e+18
3.511182925e+18
3.62180605e+18
3.743739271e+18
3.874133981e+18
4.01236444e+18
4.154341113e+18
4.297991698e+18
4.435301069e+18
4.562964557e+18
4.67719794e+18
4.772905742e+18
4.846962233e+18
4.898306187e+18
4.925657127e+18
4.929762347e+18
4.913134253e+18
4.876304518e+18
4.821634743e+18
4.753819128e+18
4.673110203e+18
3.761219425e+18
2.95470146e+18
3.074512325e+18
3.086371264e+18
3.255331516e+18
3.323238186e+18
3.399396747e+18
3.486215491e+18
3.584168588e+18
3.692533814e+18
3.810381596e+18
3.935565188e+18
4.066511285e+18
4.199311371e+18
4.328743279e+18
4.45227111e+18
4.56433423e+18
4.661120092e+18
4.740052265e+18
4.798461873e+18
4.836093033e+18
4.852415806e+18
4.848092844e+18
4.825493765e+18
4.785241138e+18
4.730170412e+18
4.662564189e+18
3.155128477e+18
3.107295988e+18
3.046333756e+18
3.077765307e+18
3.265648723e+18
3.338832881e+18
3.422035671e+18
3.515229863e+18
3.617682678e+18
3.73114061e+18
3.851635637e+18
3.975964039e+18
4.102301956e+18
4.227946019e+18
4.348318706e+18
4.4599142e+18
4.55829399e+18
4.641648307e+18
4.707760675e+18
4.754217441e+18
4.779941417e+18
4.78748702e+18
4.776500776e+18
4.749654711e+18
4.706694157e+18
4.651263245e+18
3.765747557e+18
3.043432372e+18
3.203438115e+18
3.197464568e+18
3.27098721e+18
3.337191813e+18
3.41225427e+18
3.496386223e+18
3.589720602e+18
3.690132882e+18
3.798705672e+18
3.912443919e+18
4.028748425e+18
4.144531652e+18
4.257872803e+18
4.363786879e+18
4.460745716e+18
4.544921355e+18
4.614314359e+18
4.666822718e+18
4.70323001e+18
4.722342805e+18
4.723928076e+18
4.709328213e+18
4.679754154e+18
4.637917948e+18
3.929633321e+18
2.967230335e+18
3.098728329e+18
3.131989286e+18
3.277950618e+18
3.346230928e+18
3.424324653e+18
3.510086795e+18
3.604009359e+18
3.70462151e+18
3.810743911e+18
3.920290647e+18
4.030738577e+18
4.139182723e+18
4.243423399e+18
4.339305847e+18
4.426287963e+18
4.500415305e+18
4.561468155e+18
4.605638012e+18
4.635522764e+18
4.650297519e+18
4.650404729e+18
4.567247553e+18
4.622756552e+18
3.171416301e+18
3.162262756e+18
3.106775127e+18
3.170256669e+18
3.326564728e+18
3.397406783e+18
3.475645233e+18
3.560286222e+18
3.650953357e+18
3.747065699e+18
3.846004207e+18
3.946246853e+18
4.045349658e+18
4.141425737e+18
4.232801919e+18
4.317050612e+18
4.39241566e+18
4.45557525e+18
4.50672544e+18
4.544257801e+18
4.569273628e+18
4.523976735e+18
4.798775154e+18
4.409695201e+18
3.762747945e+18
3.037273263e+18
3.157806072e+18
3.073352347e+18
3.345621746e+18
3.234027335e+18
3.420518729e+18
3.496804852e+18
3.578059337e+18
3.663654807e+18
3.753061684e+18
3.844352396e+18
3.936798945e+18
4.027504263e+18
4.114525357e+18
4.196893615e+18
4.272071602e+18
4.339739339e+18
4.396651597e+18
4.44182044e+18
4.416888033e+18
4.699943072e+18
4.296974001e+18
4.172569973e+18
3.795750334e+18
3.263713203e+18
3.185367441e+18
3.176743281e+18
3.195868103e+18
3.281165268e+18
3.451423526e+18
3.524703589e+18
3.601641377e+18
3.681343041e+18
3.763660612e+18
3.847076875e+18
3.930597578e+18
4.012309498e+18
4.090532759e+18
4.16432746e+18
4.231625174e+18
4.22615342e+18
4.380799906e+18
4.509554836e+18
4.204161239e+18
3.95843695e+18
5.811208018e+18
4.057375493e+18
3.130684567e+18
3.258296155e+18
3.170663213e+18
3.412193078e+18
3.506629622e+18
3.430677512e+18
3.618261826e+18
3.692944034e+18
3.767818386e+18
3.844237003e+18
3.919664343e+18
3.939053249e+18
4.089680346e+18
4.112331005e+18
4.293169428e+18
4.066272612e+18
3.673367861e+18
4.599049247e+18
5.364728566e+18
3.86663086e+18
3.326705173e+18
3.26146907e+18
3.315043036e+18
3.312195019e+18
3.283822306e+18
3.517321931e+18
3.579434799e+18
3.647338868e+18
3.711298007e+18
3.798138589e+18
3.971374807e+18
3.781064273e+18
3.972867378e+18
4.02437421e+18
3.711351656e+18
5.338855734e+18
3.946613598e+18
3.417081228e+18
3.227118097e+18
3.434219355e+18
3.426699736e+18
3.493646513e+18
3.551781206e+18
3.623293418e+18
3.67786333e+18
3.722165371e+18
3.446110031e+18
4.061781383e+18
3.990794696e+18
4.953795012e+18
4.026172038e+18
3.33854437e+18
3.374799774e+18
3.424074357e+18
3.503156534e+18
3.568679442e+18
3.613644749e+18
3.673581096e+18
4.588927075e+18
3.016430905e+18
3.075300334e+18
3.112327378e+18
3.159714782e+18
3.219978396e+18
3.294577312e+18
3.384461481e+18
3.492505e+18
3.618334249e+18
3.762183213e+18
3.924905335e+18
4.106025381e+18
4.300117664e+18
4.501738537e+18
4.705247382e+18
4.90076992e+18
5.078230518e+18
5.227658924e+18
5.340332406e+18
5.411765377e+18
5.439611409e+18
5.42534611e+18
5.37384118e+18
5.290634303e+18
5.182349818e+18
5.054964924e+18
4.914368063e+18
4.765433194e+18
4.612062587e+18
4.457605511e+18
2.969976514e+18
3.022472387e+18
2.977321144e+18
3.172098247e+18
3.234828351e+18
3.309377773e+18
3.397356295e+18
3.501099499e+18
3.621453681e+18
3.760310088e+18
3.916581205e+18
4.090000219e+18
4.279136055e+18
4.477008286e+18
4.676586857e+18
4.869195081e+18
5.045419111e+18
5.193435773e+18
5.306343134e+18
5.378970544e+18
5.410445763e+18
5.399521909e+18
5.352027313e+18
5.272888278e+18
5.16809936e+18
5.044886916e+18
4.908582663e+18
4.761656606e+18
4.610234229e+18
4.458563527e+18
3.042301338e+18
3.103067946e+18
3.062419292e+18
3.138553304e+18
3.194906466e+18
3.263693232e+18
3.347829267e+18
3.447802889e+18
3.567176842e+18
3.704525952e+18
3.861157105e+18
4.03558099e+18
4.223216421e+18
4.420720831e+18
4.620722242e+18
4.8139884e+18
4.991507302e+18
5.143301121e+18
5.258918781e+18
5.335627796e+18
5.37233883e+18
5.367683096e+18
5.32699096e+18
5.254281021e+18
5.15447549e+18
5.035785793e+18
4.904037511e+18
4.761995055e+18
4.615045626e+18
4.466220304e+18
2.993415378e+18
3.056574005e+18
3.104645325e+18
3.157466717e+18
3.215423564e+18
3.284830313e+18
3.367589233e+18
3.465098395e+18
3.578766402e+18
3.709915113e+18
3.858985439e+18
4.024892057e+18
4.20585147e+18
4.39579194e+18
4.589386429e+18
4.777046161e+18
4.949776275e+18
5.09887206e+18
5.216148577e+18
5.296301976e+18
5.335633927e+18
5.337479489e+18
5.302342842e+18
5.236641581e+18
5.146228348e+18
5.03394673e+18
4.906435163e+18
4.770152173e+18
4.627119766e+18
4.481710179e+18
2.988406756e+18
3.051875548e+18
3.122601585e+18
3.168941074e+18
3.230912888e+18
3.302107764e+18
3.385236765e+18
3.481741834e+18
3.592738594e+18
3.718688739e+18
3.861361257e+18
4.020034924e+18
4.192138961e+18
4.372237354e+18
4.554877969e+18
4.73403473e+18
4.899797668e+18
5.044473929e+18
5.158901231e+18
5.240282123e+18
5.287591228e+18
5.29467794e+18
5.266939834e+18
5.210190147e+18
5.127386552e+18
5.025167108e+18
4.906237756e+18
4.776784812e+18
4.641121975e+18
4.501771631e+18
3.718274621e+18
2.974151287e+18
3.112945653e+18
3.131608611e+18
3.185363999e+18
3.249474845e+18
3.326715696e+18
3.417140163e+18
3.523603222e+18
3.644916804e+18
3.782035105e+18
3.935336909e+18
4.101813617e+18
4.27764957e+18
4.456886695e+18
4.633424173e+18
4.798685482e+18
4.945626724e+18
5.064953098e+18
5.154068381e+18
5.207629355e+18
5.227197306e+18
5.211512815e+18
5.168003284e+18
5.099058975e+18
5.007561063e+18
4.900043776e+18
4.780185817e+18
4.652329513e+18
4.519143649e+18
3.035754964e+18
3.020563352e+18
3.005056682e+18
3.180891795e+18
3.246834586e+18
3.322836421e+18
3.410581553e+18
3.511417453e+18
3.626359369e+18
3.756175251e+18
3.898856125e+18
4.05417722e+18
4.219009025e+18
4.387703876e+18
4.554451921e+18
4.713130846e+18
4.855482779e+18
4.975453778e+18
5.067476522e+18
5.128039074e+18
5.15671722e+18
5.153107646e+18
5.120558805e+18
5.063859312e+18
4.9869471e+18
4.891950371e+18
4.782474849e+18
4.663663129e+18
4.541353281e+18
2.990742597e+18
3.134384942e+18
3.100447813e+18
3.179792885e+18
3.241084475e+18
3.310913212e+18
3.390855873e+18
3.483262541e+18
3.58861834e+18
3.707652354e+18
3.839804415e+18
3.983995852e+18
4.137178107e+18
4.295572177e+18
4.454840482e+18
4.606448002e+18
4.745828779e+18
4.866255235e+18
4.960771789e+18
5.028058222e+18
5.066525325e+18
5.075423835e+18
5.057334157e+18
5.015449022e+18
4.951498775e+18
4.870606773e+18
4.775068508e+18
4.669587655e+18
4.557481934e+18
3.702569279e+18
2.903665658e+18
3.013866781e+18
2.99946916e+18
3.179806858e+18
3.241687012e+18
3.314487016e+18
3.399687009e+18
3.497684762e+18
3.609455487e+18
3.733661738e+18
3.869479664e+18
4.015525034e+18
4.167936902e+18
4.320622804e+18
4.468700299e+18
4.606764371e+18
4.728650491e+18
4.830026498e+18
4.90681413e+18
4.95702552e+18
4.980834511e+18
4.979191412e+18
4.954725699e+18
4.907649446e+18
4.843085991e+18
4.763231553e+18
4.672101305e+18
4.57063155e+18
3.123969308e+18
3.137958787e+18
3.11875036e+18
3.197712759e+18
3.263654678e+18
3.336765832e+18
3.417693474e+18
3.507855532e+18
3.609328817e+18
3.720426251e+18
3.84226333e+18
3.972970671e+18
4.107785016e+18
4.245703245e+18
4.38124786e+18
4.510583265e+18
4.626968098e+18
4.726371556e+18
4.8064687e+18
4.863618276e+18
4.897828461e+18
4.908912157e+18
4.897056175e+18
4.865262856e+18
4.815574512e+18
4.750653849e+18
4.673434792e+18
4.586206439e+18
3.715167861e+18
2.911185029e+18
3.040809121e+18
3.046316943e+18
3.216967906e+18
3.281612369e+18
3.3554646e+18
3.439434954e+18
3.534281962e+18
3.639099467e+18
3.753554788e+18
3.875583677e+18
4.004033799e+18
4.134081096e+18
4.262506595e+18
4.386311003e+18
4.500663899e+18
4.602029541e+18
4.686767141e+18
4.75229412e+18
4.797411361e+18
4.822063298e+18
4.82540364e+18
4.810186986e+18
4.776744736e+18
4.727826834e+18
4.666202525e+18
4.593432119e+18
3.116218563e+18
3.094969198e+18
3.036334265e+18
3.071287095e+18
3.265378696e+18
3.333281531e+18
3.408739953e+18
3.492750509e+18
3.585380268e+18
3.685820435e+18
3.79344239e+18
3.907878039e+18
4.025862247e+18
4.144629255e+18
4.260851478e+18
4.370734158e+18
4.469800114e+18
4.557442746e+18
4.629161237e+18
4.682485982e+18
4.719185667e+18
4.738020135e+18
4.737720511e+18
4.721301271e+18
4.689448241e+18
4.644423684e+18
4.587550537e+18
3.696347919e+18
2.985555651e+18
3.159164373e+18
3.14905453e+18
3.208047694e+18
3.268907241e+18
3.338192736e+18
3.416372081e+18
3.503373866e+18
3.597920568e+18
3.698574132e+18
3.80467878e+18
3.914558081e+18
4.026109662e+18
4.13540306e+18
4.240691229e+18
4.337954533e+18
4.425550994e+18
4.50179956e+18
4.563050788e+18
4.608870769e+18
4.638774866e+18
4.65325518e+18
4.651147283e+18
4.635128499e+18
4.605607352e+18
4.565155571e+18
3.906230794e+18
2.915603536e+18
3.069939888e+18
3.109822294e+18
3.240939679e+18
3.299925817e+18
3.365349642e+18
3.438412517e+18
3.518990105e+18
3.606291955e+18
3.699069455e+18
3.796406859e+18
3.895799362e+18
3.996088806e+18
4.095005024e+18
4.188982719e+18
4.276483855e+18
4.355176015e+18
4.422833974e+18
4.47762966e+18
4.520589471e+18
4.548803159e+18
4.563365089e+18
4.564684471e+18
4.551927298e+18
4.532055636e+18
3.856099608e+18
2.99084395e+18
2.988321891e+18
3.240039228e+18
3.119042114e+18
3.286339896e+18
3.350826859e+18
3.422806473e+18
3.501018386e+18
3.586006628e+18
3.675262439e+18
3.76798534e+18
3.861982535e+18
3.956488037e+18
4.048480006e+18
4.136284014e+18
4.216788698e+18
4.289709791e+18
4.351514345e+18
4.402866159e+18
4.442445473e+18
4.470107411e+18
4.485067158e+18
4.437861864e+18
4.715544167e+18
3.87559556e+18
3.099896776e+18
3.103966285e+18
3.093644884e+18
3.162049887e+18
3.320727483e+18
3.385299215e+18
3.455437888e+18
3.530539854e+18
3.610302688e+18
3.693512431e+18
3.777380035e+18
3.862984349e+18
3.94738464e+18
4.029665188e+18
4.106375854e+18
4.176698661e+18
4.241331051e+18
4.296613652e+18
4.342129849e+18
4.315622992e+18
4.434092985e+18
4.541862035e+18
4.184218174e+18
3.937640377e+18
3.022787622e+18
3.148085974e+18
3.050833001e+18
3.325303509e+18
3.223118437e+18
3.397195025e+18
3.463518031e+18
3.533688919e+18
3.606307273e+18
3.681966349e+18
3.759388962e+18
3.836115178e+18
3.911913397e+18
3.986309113e+18
4.056830013e+18
4.121141115e+18
4.179113455e+18
4.169840243e+18
4.477133203e+18
4.149924815e+18
3.743096891e+18