/*--------------------------------*- C++ -*----------------------------------*\
| =========                 |                                                 |
| \\      /  F ield         | OpenFOAM: The Open Source CFD Toolbox           |
|  \\    /   O peration     | Version:  v1706                                 |
|   \\  /    A nd           | Web:      www.OpenFOAM.com                      |
|    \\/     M anipulation  |                                                 |
\*---------------------------------------------------------------------------*/
FoamFile
{
    version     2.0;
    format      ascii;
    class       volScalarField;
    location    "3.2711";
    object      SOFP_N2;
}
// * * * * * * * * * * * * * * * * * * * * * * * * * * * * * * * * * * * * * //

dimensions      [0 0 0 0 0 0 0];


internalField   nonuniform List<scalar> 
60268
(
0.07577800489
0.07722508739
0.08211456197
0.08604911866
0.08916468811
0.09183698766
0.09339305519
0.09455784685
0.09447219452
0.09310614329
0.09382557365
0.09028638892
0.08050563476
0.08160899164
0.08510858967
0.08830304388
0.09081487921
0.09261980923
0.0935605196
0.09369230105
0.09220386068
0.0924315461
0.07898278676
0.07964251127
0.08395258888
0.08703921692
0.08949843922
0.09114619083
0.09196501265
0.09206183711
0.07839635078
0.1097826874
0.09134259941
0.08078081715
0.08178928559
0.08491273683
0.08688392598
0.08877427619
0.08991625942
0.08959898152
0.09241174185
0.09608642747
0.08155157283
0.08119592047
0.0833733235
0.08505198461
0.07459847051
0.09039114399
0.1001394642
0.09488999622
0.08039893348
0.08122449423
0.08370257011
0.1018665401
0.0804591954
0.08228115915
0.08880973295
0.09412645914
0.09614687541
0.08614140365
0.08777400078
0.08968748465
0.09191959558
0.09443792342
0.09709853369
0.09981334611
0.1025994695
0.1053160453
0.124049787
0.1250821386
0.1215592952
0.1164982371
0.1079072637
0.1062278269
0.07864978122
0.08209656019
0.08889377393
0.09377402672
0.09653597393
0.09195858138
0.08829070239
0.09021073753
0.09233771087
0.09478457154
0.09742178361
0.1000639144
0.1027764845
0.1054166889
0.1225619654
0.1242144621
0.120883335
0.1150925294
0.1075066755
0.1037988194
0.07755104713
0.08091202522
0.08783044418
0.09530808753
0.09853605367
0.09700504703
0.08816735286
0.08997274519
0.09215405141
0.0945769612
0.09712322072
0.09985909814
0.102538078
0.1164009254
0.1280285865
0.1217156409
0.1188558012
0.1132767957
0.0934678004
0.1218072961
0.07498356984
0.07868121328
0.085570246
0.09127420692
0.09550953477
0.09701467469
0.09276318491
0.08947791887
0.09161301235
0.09397919389
0.09657964526
0.09920233482
0.101921314
0.1204755866
0.1141377379
0.1228373715
0.116326589
0.1103760548
0.1111888077
0.08970604107
0.07934935806
0.08364849215
0.08969016434
0.0957856008
0.09855308318
0.09771797836
0.09463966
0.09153151382
0.09378341532
0.09627620347
0.1094542078
0.1162773263
0.121364108
0.1163945846
0.1155673366
0.1120926881
0.1061337072
0.1035721104
0.07862466756
0.07985191263
0.08573193046
0.09123354698
0.09726015932
0.09956768667
0.09795644401
0.1028241406
0.1061128875
0.1084659403
0.1174515009
0.1079036273
0.1130935212
0.1177516532
0.1117985525
0.1074305524
0.08863826468
0.1192377729
0.08956454215
0.07810812256
0.08254711725
0.08794057372
0.09299248777
0.09833256924
0.1035610967
0.1037994948
0.1059107004
0.1086986505
0.109711386
0.1138891927
0.1104672832
0.1095384272
0.1066041385
0.08819165866
0.1249679825
0.09540574675
0.07965469293
0.08332694147
0.08835072255
0.092745701
0.09690070823
0.09965637965
0.1022429792
0.1040212029
0.1056423501
0.1060262174
0.1051469731
0.1028515728
0.08640016429
0.1230997264
0.09633541169
0.07963029664
0.08232579426
0.08683765093
0.09062517655
0.09363515987
0.09637657141
0.09779888837
0.09867234629
0.09873415279
0.0978221847
0.08302254733
0.1195105466
0.09162693848
0.08300872724
0.08275672736
0.08359999111
0.08649370872
0.08858175263
0.09034101272
0.09101172012
0.08032715648
0.09624419316
0.1096973284
0.09378527653
0.08062148815
0.0836482039
0.08586920055
0.0873862366
0.08753480991
0.103811841
0.08324910485
0.08676817443
0.09447937508
0.09673072218
0.08324455958
0.08380573327
0.08474604265
0.08614106318
0.0879146722
0.09006094782
0.09260422949
0.0953538827
0.0982769123
0.1013328709
0.1042919706
0.1071573472
0.1098040057
0.112148124
0.1140056292
0.1154672663
0.1164164021
0.1169750008
0.1309928343
0.1231552616
0.0816029867
0.0857306941
0.09432341319
0.09608679354
0.08262102444
0.0831007247
0.08414576578
0.08557874864
0.08751828941
0.08975007866
0.09231916554
0.09516002591
0.09810704855
0.1011705134
0.1041736397
0.1070388893
0.1096980637
0.1120320917
0.1138826132
0.1153197415
0.1163117448
0.1168607483
0.1295357952
0.1221453223
0.08005961126
0.08473793094
0.0926972437
0.09520283162
0.0827792882
0.08319484726
0.08411650379
0.08537594097
0.08713868066
0.08933432633
0.09177064641
0.09457837619
0.09750459579
0.1005484159
0.1035935601
0.1064815104
0.1091692816
0.1114797845
0.1134180921
0.114992504
0.1160527095
0.1293207243
0.1370455186
0.1209336436
0.07737386914
0.08222403674
0.09095709449
0.09352580722
0.08283432735
0.08333596063
0.08420935711
0.08555068453
0.08730414519
0.08941894741
0.09186987574
0.09457339431
0.09744593029
0.1004396247
0.1034108215
0.1061996627
0.1088630543
0.1111978612
0.1131506903
0.1146802261
0.1157838103
0.1342002786
0.1231597923
0.1234028022
0.0915812327
0.0822539154
0.0876217078
0.09164753881
0.08794293423
0.08297178179
0.08386028984
0.08511645055
0.08673868792
0.08874913244
0.09118984438
0.09377595492
0.09662289091
0.09958046404
0.1024474122
0.105297971
0.1078772123
0.1102964962
0.1123043213
0.1139240065
0.115150197
0.1303480179
0.1255967043
0.1161119676
0.08320834905
0.08765753878
0.09334666583
0.09278444687
0.08400434558
0.08460929132
0.08570980885
0.08721245484
0.08890993438
0.09097966616
0.09345477711
0.0960663348
0.09881388614
0.1015588399
0.1043159528
0.1068986158
0.1092640262
0.1113225689
0.1131010186
0.1248153186
0.133852885
0.1212616091
0.112489648
0.09374069137
0.08361883844
0.08794027064
0.09178872822
0.08829176813
0.08374897929
0.08477075241
0.08609666257
0.08792082382
0.09003928764
0.09244513614
0.09504550038
0.09774857135
0.1005079729
0.1032526847
0.105767684
0.1081791949
0.1102849728
0.1240647665
0.1364828768
0.1167833501
0.1207331708
0.1000676426
0.0828934723
0.08743431615
0.09149624352
0.09211771041
0.09007297982
0.08555422777
0.08660937033
0.08818187854
0.09002939445
0.0921492842
0.09444506036
0.0969877193
0.09954830687
0.1021786086
0.1045965168
0.1069976836
0.1211013708
0.1348223259
0.1177477091
0.1216922343
0.09691775051
0.1155471166
0.09288471176
0.08145403482
0.08832114862
0.0923584005
0.0925222989
0.09062727817
0.08646541298
0.08786841324
0.08956442611
0.09156899218
0.09370125455
0.09609938155
0.09846112789
0.1009257754
0.1033114691
0.1165932663
0.1310002754
0.1155638812
0.1212173347
0.1114016049
0.111653393
0.09862513947
0.08296574051
0.08958968958
0.09286767264
0.09238420156
0.09889041829
0.0941774964
0.08960976616
0.09133994501
0.09338881831
0.09553180735
0.09777505766
0.1110917814
0.1178339151
0.1239429296
0.1114459786
0.1180384293
0.1101567818
0.09026702208
0.1198008271
0.09930291658
0.08258335488
0.08829384135
0.09461183566
0.09253649381
0.09426508521
0.09953867336
0.1026759544
0.105137269
0.1068077406
0.1084795932
0.1168522909
0.1066946713
0.1108193247
0.1131834648
0.1063696342
0.08799645379
0.1229588835
0.09764343138
0.08161508389
0.0852144097
0.09091016054
0.09673426792
0.09719514608
0.1003680296
0.1030123666
0.1045992885
0.1049943759
0.1050671783
0.108044262
0.1034010074
0.08805398515
0.1051193695
0.1144808956
0.09299364683
0.08505698724
0.08441906436
0.08632523292
0.08921881196
0.09207250144
0.09375096623
0.09543520442
0.09557071658
0.09591849509
0.0836556245
0.100001719
0.1117296279
0.09305884494
0.08123265103
0.08424921351
0.08705070916
0.08901161927
0.09057511525
0.09115475688
0.09013667956
0.1060364382
0.07916331292
0.08415381
0.09442672407
0.09663282004
0.08104618483
0.0806709612
0.08084323965
0.08152627677
0.08279893264
0.08461210805
0.08687611438
0.08960883693
0.09268460051
0.0960502706
0.09956275668
0.1031203202
0.1065799748
0.109678409
0.112449028
0.1146989024
0.1164361426
0.1176007173
0.1181869069
0.1182243385
0.1177710273
0.1168446
0.1156159689
0.07763398919
0.0832974745
0.09358037349
0.09613357468
0.08153390207
0.08106816218
0.08104221168
0.08156944411
0.08262165439
0.08423496123
0.08642040851
0.0889794378
0.09204955713
0.09532398204
0.09879703816
0.1023212414
0.1057058218
0.1089008603
0.1116979452
0.1140370635
0.1158158574
0.1170854587
0.1176934706
0.1179006344
0.1175040801
0.1166594975
0.1154959572
0.09099683806
0.08402929584
0.09225941455
0.09470689816
0.08071387071
0.08030319909
0.08041276543
0.08108098712
0.08230267977
0.08399052377
0.08628355058
0.0889072301
0.09195302441
0.09521101956
0.09859945429
0.1021054626
0.1054701552
0.1086571084
0.1114034033
0.1136776732
0.1155466135
0.1167533235
0.117497681
0.1176890291
0.1174324536
0.1166218872
0.1154817627
0.08657618768
0.09120737733
0.09454905462
0.08282148399
0.08230475691
0.082435157
0.08298459674
0.08401700214
0.08552706938
0.08745683427
0.08990774091
0.09266153654
0.09581203782
0.09906363207
0.102365141
0.1056126785
0.1086085109
0.1112590297
0.113614071
0.1154219225
0.1167033402
0.117508476
0.1176981745
0.117497359
0.1168363445
0.1157699337
0.0810785514
0.08782462379
0.09329609089
0.08865405597
0.08220565511
0.08222121944
0.08272816246
0.08361867752
0.08501876667
0.08696302295
0.08926730027
0.09192171629
0.0948970525
0.09808330775
0.1013109861
0.1045494235
0.1075362227
0.1103088708
0.1126914804
0.1145556519
0.1159746977
0.1168525776
0.1172565808
0.1171350085
0.1166392167
0.115772886
0.07744131696
0.08699577302
0.09457470217
0.09382257929
0.08165947136
0.0814689425
0.08180489358
0.08271479233
0.0840867567
0.08598389219
0.08823606866
0.09083828836
0.0938104418
0.09690599733
0.1001044405
0.1032824782
0.1062474221
0.1090343693
0.111494981
0.1135100964
0.1149629361
0.1160138409
0.1165685962
0.1166759618
0.1163451006
0.1156212875
0.09175000359
0.08216916953
0.08959407634
0.09388753897
0.08864481964
0.08200350915
0.08229157624
0.08291025002
0.08412343289
0.08570764695
0.08768555044
0.0900741745
0.0928496353
0.09570524624
0.09871806192
0.1017724602
0.104728784
0.1074561403
0.1098778869
0.1119966078
0.1136308833
0.1148245533
0.1155628634
0.1159048419
0.1156727535
0.1264003925
0.08288640225
0.08943680456
0.0962655371
0.09510808565
0.08262374391
0.08266297017
0.08307374122
0.08401184169
0.08539043914
0.08718084377
0.08933843279
0.09182087434
0.09457622853
0.09739361996
0.1003280911
0.1031481059
0.10576114
0.1082711862
0.110427908
0.1121852107
0.1135355257
0.1144728651
0.1149893859
0.1274562225
0.1353852359
0.09278708112
0.08222588544
0.08924510751
0.09351907038
0.0887568854
0.08297972049
0.08339303804
0.08428570749
0.08546622973
0.08705400411
0.08905110749
0.09127619694
0.09371323641
0.09634124039
0.09911284475
0.101801869
0.104392504
0.1068119071
0.1089862605
0.110813165
0.1122959719
0.1133810018
0.1141446635
0.1304952631
0.1178398262
0.1011725458
0.08797389043
0.09275938251
0.09269820466
0.0892916336
0.08321223316
0.08384752394
0.08486699365
0.08629937378
0.08816148567
0.09024732274
0.09261047172
0.09508930899
0.09771333514
0.100369148
0.1029817309
0.1054020559
0.1076917691
0.1095692996
0.1112031617
0.1124548151
0.1223112646
0.1320238012
0.1161700386
0.08349745656
0.08872977787
0.09399711247
0.09367717891
0.09039963659
0.08488139275
0.0857089521
0.08691254579
0.08847309556
0.09024410079
0.09234049126
0.09456147464
0.09696216641
0.09937373853
0.1018014132
0.1040986193
0.1063601631
0.1082414582
0.1099679993
0.1202877061
0.1318138389
0.111389577
0.114292292
0.09292350602
0.08061111402
0.08934299145
0.09386138864
0.09364228284
0.09079958153
0.08580728172
0.08684414778
0.0881924927
0.08976972499
0.0915659365
0.09354634981
0.09571464072
0.09798271917
0.1002743452
0.1025260107
0.1046357574
0.1183370383
0.1235770118
0.1273726284
0.1101301914
0.09972673565
0.1132701073
0.09707378234
0.08067898726
0.0885710119
0.09267516734
0.09158748289
0.09824420368
0.09319414086
0.08744317152
0.08887467805
0.0905220627
0.09238029347
0.09440308259
0.09657405158
0.09870126487
0.1122193289
0.1187226883
0.1256414073
0.1113665854
0.1120870176
0.09696674172
0.1292920076
0.09251676059
0.08603081039
0.08726639858
0.09337313777
0.09190087041
0.09313379252
0.09861320327
0.1020046205
0.1043845497
0.1067841151
0.1080715528
0.1093383862
0.1096576415
0.118197224
0.1066714615
0.1096679089
0.1111457057
0.08867658756
0.1243313852
0.1001906549
0.08223141162
0.08737760287
0.09357304342
0.09474982279
0.09849389859
0.101692458
0.1038294244
0.1050792735
0.1055634354
0.1050288233
0.1037472003
0.1058636245
0.08704260371
0.1038891576
0.1129383011
0.09221715856
0.08040611772
0.08907877998
0.08661273933
0.0879669742
0.09032077264
0.09201932698
0.09364626702
0.09346716689
0.08224305367
0.09959108049
0.09392971236
0.1094380964
0.09464835369
0.08126836389
0.08417492354
0.08577760593
0.08669390482
0.08628999715
0.1019504463
0.07851614205
0.08601561382
0.09284004286
0.08323271746
0.08195252742
0.08124476397
0.08093889189
0.08130677144
0.08217588867
0.08363804942
0.08562493348
0.08821889412
0.09122002626
0.0946928611
0.09843278701
0.1023171324
0.1062028687
0.1098455795
0.1131166744
0.1158185121
0.1179027399
0.1192355695
0.11993887
0.1199753729
0.1193296508
0.118205407
0.1167085105
0.1147741189
0.1125974491
0.09274938543
0.08780522777
0.09159571801
0.08253753513
0.08124105181
0.08040388455
0.08002028518
0.08035216782
0.08119842798
0.08263427736
0.08455862976
0.08710825533
0.09012156953
0.09355246445
0.09737518727
0.1012901386
0.105231931
0.1089394101
0.1121869275
0.115029784
0.1170988114
0.1185524775
0.1193151319
0.1194255387
0.1189954625
0.1179509216
0.1164820519
0.1147249477
0.1125741749
0.08975492485
0.09297530964
0.08935106442
0.08230541158
0.08151623127
0.08123625882
0.08142518692
0.08207902447
0.08330381169
0.08512016961
0.087439184
0.09026315137
0.09354486195
0.09711235574
0.1009130263
0.1047290306
0.1083768535
0.1116415118
0.1143594272
0.1166011
0.1180922028
0.118927649
0.1191419635
0.1187080766
0.1177965988
0.1164263426
0.1146727595
0.1126688134
0.08871413712
0.09512796616
0.09513238533
0.08139976179
0.08045888912
0.08009636092
0.08020173392
0.08092370929
0.08232978731
0.08419571301
0.08665979399
0.08955553087
0.09290417147
0.09654263035
0.1002743412
0.104121926
0.1076722612
0.1110048545
0.1138832348
0.1159787798
0.1176055988
0.118532666
0.1188599329
0.118548451
0.1177547147
0.1165049607
0.1149119989
0.1129613999
0.083471286
0.09124146764
0.09597166798
0.0815808502
0.08043788227
0.0799272763
0.07997598213
0.08062763975
0.08179237554
0.08354927129
0.08588308357
0.08870160701
0.09183246887
0.09541685247
0.09909556233
0.1028397577
0.1064498134
0.1097584466
0.1126385407
0.1150295185
0.1167860594
0.1178157558
0.1183133105
0.1182384813
0.117572939
0.1165002162
0.1149976666
0.1132249072
0.07986286559
0.08939338658
0.09490835034
0.08326985529
0.08214042643
0.08152994869
0.08141870263
0.08185070909
0.08273556225
0.08425101344
0.08625931989
0.08878200418
0.09166245055
0.09490503724
0.0984468682
0.1019523517
0.1053741443
0.1086475904
0.1114841201
0.1138827418
0.1157274226
0.1169619739
0.1175556338
0.1176637472
0.1172690578
0.1163714151
0.1150978477
0.1135445933
0.09500026511
0.08487959971
0.09171884707
0.08852997851
0.08148867803
0.08086498198
0.08078746812
0.08119414535
0.08216497497
0.08359120665
0.08563075377
0.08795384958
0.09084394019
0.09393252067
0.09724274623
0.1007018379
0.1040055366
0.107193894
0.1101046595
0.1125159547
0.1144079209
0.1158063501
0.1166142941
0.1169151166
0.1167189974
0.116078859
0.1150603533
0.1136531563
0.08957555165
0.09230633464
0.09316033808
0.08193104475
0.08097865425
0.08061188378
0.08086404842
0.08154790616
0.08278764804
0.08447724509
0.0866653785
0.0892683898
0.0921697738
0.09535493208
0.09866016104
0.101873456
0.1050215229
0.1079127955
0.1104132688
0.1125085736
0.1141031209
0.1152137382
0.1157744022
0.1159300652
0.1154751952
0.11477118
0.1136796534
0.09721898472
0.08605753804
0.09258053523
0.08887907377
0.08223898148
0.08172150633
0.08160877712
0.08200171918
0.08289284121
0.08426532839
0.08606294743
0.08827952232
0.09095910808
0.09382261875
0.09688567683
0.09994550193
0.1030058872
0.1058413958
0.10839172
0.1105969309
0.1123510685
0.113651756
0.114510512
0.114856487
0.114861864
0.114405868
0.1136015124
0.08910416505
0.09110848011
0.09284159071
0.08927538124
0.08133256716
0.08119690606
0.08149090359
0.08228849781
0.08352494779
0.08524186224
0.08732160989
0.08977761922
0.092453689
0.09535655194
0.09829190535
0.1012760933
0.104046752
0.106680775
0.1090213763
0.1108935309
0.1123691717
0.1134607536
0.1141141001
0.1143402399
0.1141862475
0.113622174
0.09631054754
0.08738528984
0.0957198236
0.09584917759
0.08308367114
0.08271084734
0.08271500757
0.08321232339
0.08419093284
0.0855208339
0.08728386737
0.08947583627
0.09186948505
0.09444138893
0.09715043642
0.09989191687
0.1025908293
0.1051360833
0.1074699054
0.1094082074
0.1110423365
0.1123388053
0.1132531329
0.1137495739
0.113863868
0.1136918309
0.104269379
0.08666006588
0.09194079051
0.08850227283
0.08263240919
0.08257135659
0.08280746648
0.08361024471
0.08475533431
0.08633854564
0.08817840001
0.09039579882
0.09276613079
0.09537064458
0.09801687792
0.1005931218
0.1031111824
0.1054620504
0.1075283298
0.1093566984
0.1108197413
0.1119799649
0.1127217515
0.1248422429
0.1258099931
0.08750484378
0.08926679321
0.09052146613
0.08921285618
0.08375836078
0.08386054565
0.08438910826
0.08529373334
0.08653928082
0.08812088709
0.08996246395
0.09204070901
0.09425569552
0.09667834317
0.09901430053
0.1013943487
0.1036932352
0.105787141
0.1076168141
0.1092224542
0.110564089
0.1227937902
0.1358777239
0.1145368838
0.09307696473
0.08256689189
0.08860902924
0.08980154775
0.09836163792
0.0919159309
0.0848093762
0.08534117179
0.08632812383
0.08765154424
0.08915549053
0.09095781089
0.09298260503
0.09516505609
0.09727241917
0.09957224961
0.1017090169
0.1038322026
0.1057551205
0.107444376
0.1183386436
0.1316128828
0.112647617
0.103245408
0.09320104795
0.08950840885
0.09247391786
0.09154208792
0.09422979422
0.09142971295
0.08614418759
0.08682028402
0.08779873427
0.08907661827
0.09060531266
0.09229051718
0.09414038459
0.09608838952
0.09818091434
0.1002442291
0.10224136
0.1147951264
0.1201686651
0.1246886845
0.1079780373
0.09650534829
0.1193837452
0.1048284408
0.08713364606
0.09125225727
0.09080831366
0.09779279865
0.1012214661
0.0955533974
0.08932909022
0.09056898463
0.09201250777
0.09361697291
0.09530837157
0.108365113
0.1153261065
0.1138580414
0.12041316
0.1064916656
0.0932542458
0.1143418242
0.11772007
0.09541538779
0.08976711849
0.09137768353
0.09144918321
0.09275704919
0.09323303542
0.09770894726
0.100029315
0.1018249753
0.1027980283
0.1039004631
0.1123860952
0.1028342078
0.1058215039
0.103578112
0.09106161044
0.1220190841
0.09579151029
0.08765498782
0.08629420784
0.09113006451
0.09076199673
0.09328132364
0.09495568883
0.09588372588
0.09568915887
0.09572533719
0.08737964285
0.0998135878
0.09301817007
0.1080717618
0.09349460323
0.08072396195
0.08325067395
0.08479521333
0.08670817525
0.08765675852
0.08712079588
0.08568887854
0.1018601969
0.08948923942
0.09289025327
0.08383750639
0.08173346945
0.08027254798
0.07951210478
0.07925557272
0.07961183429
0.0807711792
0.08252966408
0.08491249316
0.08796265983
0.09153463458
0.09555642104
0.1000402653
0.1045060879
0.1089278083
0.112993693
0.1164823608
0.119239672
0.121089844
0.1220440769
0.1221468369
0.1214577757
0.1200962976
0.1182550325
0.1159955594
0.1133864981
0.1106080291
0.1076973084
0.08870848393
0.09417912497
0.09067357963
0.08224314284
0.08081914184
0.0799314426
0.07966045809
0.08002268632
0.08095235241
0.08249395823
0.08475824961
0.08761182698
0.09111323877
0.09507306681
0.09936595938
0.1038449267
0.1082611122
0.1122775071
0.1157625603
0.1185213644
0.1203883249
0.1214255982
0.1216317566
0.1210336304
0.1198214118
0.1180648361
0.1158415485
0.1132845984
0.1105944502
0.1077571455
0.09082425893
0.09740170813
0.09741666135
0.08150969024
0.07990330012
0.0789687698
0.07860217427
0.07889657162
0.07979389216
0.08145323727
0.08363341572
0.08654810489
0.09000987637
0.09392511623
0.09829226926
0.1027774218
0.1071566632
0.1112554852
0.1147958031
0.117616285
0.1196171862
0.1207602314
0.121145282
0.1206784336
0.1194919836
0.117825719
0.1157907741
0.1133812874
0.1107400928
0.1079746422
0.08585559217
0.09538929112
0.0991278037
0.08256789366
0.08100815514
0.07997258623
0.07959743507
0.07973980961
0.08051176802
0.08191849817
0.08398901245
0.08672274237
0.09000653387
0.09373317888
0.0979180201
0.1022785525
0.1065285195
0.1105503691
0.1140292309
0.1168745091
0.1189295676
0.1202149924
0.1206486068
0.1203464381
0.1194457163
0.1178945316
0.1158607006
0.1135884936
0.1111003149
0.108392933
0.08225215126
0.0930470898
0.09881590442
0.08352851622
0.08211250155
0.08108663841
0.0806606277
0.08078523368
0.08142249096
0.0826712408
0.0846079434
0.08708597798
0.09011359029
0.09362771932
0.09749405954
0.1016192777
0.105706749
0.1096146659
0.1129950981
0.115844531
0.1180402706
0.1193789635
0.1199706362
0.1198023727
0.119085671
0.1177794686
0.1159510206
0.1138355433
0.1114910164
0.1089684134
0.09735206817
0.09012294942
0.09616314454
0.08328607956
0.08148842666
0.08035700231
0.07972713436
0.0797413156
0.0803388144
0.0814811405
0.08321571821
0.08564835175
0.08858530589
0.09204209902
0.09581160504
0.09984202352
0.1038205387
0.107693255
0.1112065552
0.1141029919
0.1165069482
0.118073962
0.1188472026
0.1190032299
0.1185244629
0.1174815986
0.1159484289
0.1140860488
0.1119734397
0.1095034078
0.09069539234
0.09407007957
0.0902598601
0.08233660019
0.0810935978
0.08048945226
0.08041586461
0.08091110933
0.08183997257
0.08342266118
0.08551430489
0.08821865889
0.09131613783
0.09484221273
0.09856870526
0.1023678595
0.1061269296
0.1096069412
0.1125559579
0.114942975
0.116711207
0.1177475544
0.1181696956
0.1179393571
0.1171610018
0.1159004271
0.1143241041
0.1123297044
0.1102206072
0.08570298458
0.09492538104
0.09599903812
0.08342905379
0.08206187545
0.08127337323
0.08094245822
0.08115581549
0.08191647256
0.08323053656
0.08508406823
0.0874847169
0.09030679818
0.09353301853
0.09705834326
0.1006553531
0.1042791987
0.1076422048
0.1106409556
0.1131106795
0.1149825515
0.1163267973
0.1169758627
0.1170275673
0.1166063018
0.1157040212
0.1143344228
0.1126882577
0.1107778167
0.09795420951
0.08777593088
0.09477272288
0.08986423357
0.08157723948
0.08048876835
0.07996532213
0.08003473694
0.08067629019
0.08182007884
0.0834729666
0.08566425194
0.08830325803
0.09135751334
0.09475131274
0.09822601375
0.1017095013
0.1050701599
0.1081029825
0.1107842272
0.1128332146
0.114443909
0.1154767846
0.1159202648
0.1157918148
0.1153023769
0.1142751124
0.1129576671
0.1113329054
0.09093140895
0.09592066171
0.09681915992
0.08345836202
0.08251521291
0.08191777524
0.08183339723
0.08222208431
0.0830482342
0.08436718989
0.08612406183
0.08846564026
0.09099377768
0.09392603716
0.09711757813
0.1002935913
0.1034502259
0.1063243254
0.1089653852
0.1112137876
0.1129465253
0.1142043352
0.1148948296
0.1151495099
0.1149043318
0.1142337196
0.1132272052
0.1120004192
0.09820190146
0.08748383251
0.09466144827
0.09024356123
0.08290747696
0.08202625499
0.08164045547
0.08191226922
0.08250736265
0.08371581512
0.08531019344
0.08728895111
0.08978576181
0.0924966118
0.09529630681
0.09832183475
0.1013856064
0.1042354806
0.1068780518
0.1091555144
0.1110639332
0.1125885692
0.1136162922
0.1141249798
0.114347364
0.1140536724
0.1134125782
0.1124174388
0.08949203994
0.09307903506
0.0953454263
0.09151435125
0.08321057632
0.08267178332
0.08261405587
0.08305571528
0.08378651709
0.08509425561
0.08670755047
0.08873604463
0.09112360975
0.093711526
0.0964692395
0.09926760101
0.1019880632
0.1045457951
0.1069789728
0.1090257181
0.1107047291
0.1120396721
0.1129130864
0.1133891858
0.1134595975
0.1132165888
0.1126432201
0.09502094673
0.08675288465
0.09634449928
0.09691591481
0.08354501735
0.0828504168
0.0825243014
0.08271459358
0.0834068224
0.08446606985
0.08597005419
0.08776175528
0.08982144694
0.0922002828
0.0947112233
0.09730893072
0.09990149348
0.1023574088
0.1048075445
0.1068972072
0.108708883
0.1102025598
0.1114061208
0.1121579992
0.112599982
0.112692179
0.1125036035
0.103752053
0.08533877433
0.09269472588
0.08988710838
0.08399403841
0.08335372401
0.08327633315
0.08345729869
0.08420953686
0.08525351816
0.08667677395
0.08844649233
0.09039559816
0.0926149722
0.09495504277
0.09742007223
0.09983057585
0.1021490583
0.1043329512
0.106303352
0.1080139233
0.1094414678
0.110588461
0.1113921467
0.1118687805
0.1240684618
0.1054490424
0.08697547815
0.08929110298
0.09909713251
0.09187240249
0.08309365151
0.08309285896
0.08353687211
0.08431976084
0.08552956931
0.08701885684
0.08879128627
0.09079954341
0.09293801305
0.09529904411
0.09755877652
0.0998782319
0.1020508603
0.1040935023
0.1059685869
0.1076139404
0.1089735657
0.1100805859
0.1211211794
0.1294142621
0.1060219039
0.09123910162
0.09295785683
0.09519278058
0.0916578872
0.08454189932
0.08471281894
0.08524988128
0.08612940876
0.08729231311
0.08874250398
0.09040224272
0.0922275188
0.09422607464
0.09632564667
0.09841325225
0.1004690124
0.1024139175
0.1042980859
0.1059508032
0.1208472426
0.1254625261
0.1279312006
0.1085183311
0.1032196413
0.08639962384
0.09247818294
0.09206842443
0.09972347167
0.09335032831
0.08582610733
0.08636569386
0.08726149723
0.08839300389
0.08983548412
0.09138238122
0.09308677378
0.0948418226
0.09680342138
0.09874691408
0.100673969
0.1024795522
0.1134110363
0.1290292826
0.1125320897
0.09660998142
0.114949508
0.09549953172
0.09056199976
0.09266379475
0.09123235463
0.09302492517
0.09894828851
0.09373874154
0.08748502776
0.08835097342
0.08945327325
0.090810035
0.09224155356
0.09395616558
0.09563205379
0.107979075
0.1142106352
0.1120511788
0.117467718
0.1030488547
0.09403006622
0.1243265307
0.09893085215
0.09177289654
0.09294413559
0.09017950817
0.09169769523
0.0967045242
0.0993569112
0.1016368278
0.1028126961
0.1035126266
0.1042280791
0.1039139567
0.1120556313
0.1007238598
0.1026670622
0.08814466846
0.1059273125
0.1098951128
0.09843099098
0.08567417462
0.09641847837
0.09115478373
0.09290398358
0.09485555755
0.09646898685
0.09733332365
0.09665934494
0.09573141243
0.08410585394
0.1023418418
0.09165597729
0.1065286779
0.09529382884
0.08191613207
0.08445041421
0.0860065154
0.08609928895
0.08593369633
0.08429037798
0.1000288151
0.08512806091
0.09657905738
0.1013020228
0.08366222864
0.08151452068
0.08016790194
0.07927160802
0.0791054277
0.07949233532
0.08054947876
0.08243445271
0.08500994331
0.08835575577
0.09245596635
0.09701559781
0.1020447433
0.1072190394
0.1121597065
0.1166944287
0.1203184039
0.1229796563
0.1244317709
0.1248752828
0.1242478756
0.1227887245
0.1205567611
0.1178008817
0.1147156847
0.1114390427
0.1080184494
0.1045696123
0.1011972575
0.08354510617
0.09543267206
0.1006653671
0.08299455479
0.08076314914
0.0790718864
0.07819674938
0.0778381597
0.07829748198
0.0793989381
0.08120341896
0.08382331169
0.08714786363
0.09117671606
0.09585741242
0.1009151342
0.1060840657
0.1110981219
0.1156530557
0.1193768214
0.1221220365
0.1237731969
0.1242352091
0.1236931306
0.1222839875
0.1201854977
0.117635421
0.1146039972
0.1113493011
0.1080185315
0.104686309
0.1013140936
0.08107380272
0.09360012326
0.09925899462
0.08304817298
0.08082490667
0.07927113357
0.07830949002
0.07803912855
0.07837423008
0.07946427566
0.08121584233
0.08371341741
0.08690715139
0.0908632034
0.09539076774
0.1003520801
0.1054445672
0.1104801817
0.1149451722
0.118628728
0.1213650881
0.1230837641
0.1237115059
0.1233168512
0.1219561436
0.1200584638
0.1175997855
0.1146944448
0.1115641268
0.1082942538
0.1049758263
0.1016790012
0.09747977456
0.092953454
0.09910015905
0.08396709013
0.08190977532
0.08036185435
0.07942349829
0.07915347579
0.07944991308
0.08039568592
0.0820452167
0.08437555595
0.08742289042
0.09116206672
0.09546503653
0.1001838782
0.1050349
0.1098107823
0.1141976008
0.1179000114
0.1206954066
0.1224509977
0.1231261145
0.1229162996
0.1218700926
0.1200358466
0.1176402427
0.1149316598
0.1119328635
0.1087934637
0.1055284503
0.1023487005
0.09525603001
0.09708712669
0.08434218918
0.08205261266
0.08033990433
0.07928453329
0.07870076142
0.07893846003
0.07979348231
0.08124614367
0.08345617627
0.08637268399
0.09000766078
0.09414339444
0.09870843488
0.1034422641
0.1081378559
0.1125218795
0.1162358522
0.1191475513
0.1210706499
0.1220637723
0.1220897348
0.1212355641
0.1197271677
0.1176141643
0.1151428372
0.1122740157
0.1093045134
0.1062495752
0.1030621612
0.08746978639
0.09579393109
0.09126582443
0.08182554435
0.07982263859
0.07852762602
0.0778232376
0.07778665454
0.07847497317
0.07975313851
0.08186087645
0.08458119873
0.08799105412
0.09193660995
0.09645048433
0.1011060521
0.1057452635
0.1100732365
0.1139410394
0.1170011995
0.1192581327
0.120450793
0.1207804429
0.1203189541
0.1191258161
0.1173558023
0.1151654389
0.112656569
0.1098482241
0.1069444819
0.1040144922
0.08665813054
0.09667632544
0.09866823141
0.08290886743
0.08103957365
0.07957222824
0.07880422124
0.07864226052
0.0791721301
0.08028385267
0.08210096156
0.08464152999
0.08771768699
0.09149587473
0.0955687447
0.09991888851
0.1044208364
0.1085757757
0.1123574842
0.1153982813
0.1177692676
0.1192684912
0.1198522698
0.119689844
0.1187972742
0.1173547272
0.1154001144
0.1131172848
0.1106016988
0.107931998
0.1051729097
0.09870206068
0.09171821482
0.0989176524
0.08420421069
0.08213333626
0.08064887968
0.07982593829
0.07952908709
0.07998890817
0.08092801837
0.08256610436
0.08481597296
0.08762848959
0.09103408564
0.0948121233
0.09891315095
0.1030744481
0.107068759
0.1107030095
0.1138728932
0.1162298506
0.1178947774
0.118752458
0.1188941168
0.1184134037
0.1172366998
0.1156063135
0.113595759
0.1114389019
0.1088983333
0.1063760448
0.09105035035
0.09572225849
0.09189927742
0.08311856671
0.08146351715
0.08050458432
0.0799463758
0.08000003616
0.08065738667
0.08199021716
0.08388958939
0.08638133909
0.08940909546
0.09291057472
0.09666191821
0.1005953435
0.1044618352