/*--------------------------------*- C++ -*----------------------------------*\
| =========                 |                                                 |
| \\      /  F ield         | OpenFOAM: The Open Source CFD Toolbox           |
|  \\    /   O peration     | Version:  v1706                                 |
|   \\  /    A nd           | Web:      www.OpenFOAM.com                      |
|    \\/     M anipulation  |                                                 |
\*---------------------------------------------------------------------------*/
FoamFile
{
    version     2.0;
    format      ascii;
    class       volScalarField;
    location    "3.2711";
    object      SOFP_mixture;
}
// * * * * * * * * * * * * * * * * * * * * * * * * * * * * * * * * * * * * * //

dimensions      [0 0 0 0 0 0 0];


internalField   nonuniform List<scalar> 
60268
(
0.0932124938
0.09493527733
0.1008993566
0.1056880618
0.1094769337
0.1127401375
0.1146304443
0.1160529173
0.1159616995
0.1143020352
0.1152253492
0.1110830908
0.09898072212
0.1002870411
0.1045401191
0.1084190884
0.1114849518
0.113684317
0.1148290538
0.1149940217
0.1131817355
0.1134849113
0.0971121108
0.0978684249
0.103127296
0.1068795515
0.1098634231
0.1118687546
0.1128629036
0.1129930706
0.09623585275
0.134807209
0.1123273022
0.09928657872
0.1004895348
0.1042917714
0.1066946595
0.108996093
0.1103842935
0.1099939138
0.1134616234
0.118128421
0.1001935149
0.09972234673
0.1023701621
0.1044136714
0.09157321417
0.1109769857
0.1229797442
0.1166177928
0.09876778212
0.09975435436
0.1027778462
0.1250814978
0.09919130037
0.1013237816
0.1092875689
0.1157684263
0.1181593963
0.1057735318
0.107719126
0.1100221957
0.1127312151
0.1158028664
0.1190677319
0.1224137845
0.1258575226
0.1292388436
0.1522954745
0.1536441357
0.149390103
0.1432470386
0.132780503
0.1308013817
0.09696000892
0.1011131482
0.1094156115
0.1153511615
0.1186636783
0.1129513458
0.1083731606
0.1106870496
0.1132701238
0.1162556336
0.1194889575
0.1227367848
0.1260852528
0.1293672554
0.1504762058
0.1525794573
0.1485756675
0.1415439618
0.1322940788
0.1278196024
0.09559850552
0.09964209048
0.108103349
0.1172298528
0.1211184279
0.1191620207
0.1082287725
0.1104029495
0.113044458
0.1159899725
0.1191089017
0.1224801476
0.1257897763
0.1428587088
0.1571970376
0.1495134328
0.1460764349
0.1393031631
0.1150140877
0.1500036601
0.09243866573
0.09691046082
0.1053322123
0.1122740256
0.1174126725
0.1191837416
0.1138939975
0.1097853097
0.1123817739
0.1152624731
0.1184396295
0.1216664668
0.1250282086
0.1478544267
0.140126471
0.1508674801
0.1429430449
0.1357146618
0.1367799777
0.1106132889
0.09776758828
0.1029859505
0.110357894
0.1177869553
0.121121468
0.1200206593
0.1161766274
0.1123191764
0.1150581537
0.1181093218
0.1343024489
0.1426943754
0.1489670317
0.142915647
0.1419548706
0.13775326
0.130504075
0.1274511352
0.09689429738
0.09832054526
0.1054959149
0.1121886984
0.1195295656
0.1223047016
0.1202802829
0.1262057362
0.1302119293
0.1330835509
0.1441169452
0.1324128357
0.1388088006
0.1445669481
0.1372998905
0.1319981165
0.1089713905
0.1466828476
0.1103987249
0.09618225909
0.1015948753
0.1081719388
0.1143339725
0.1208373516
0.1272091676
0.1274596425
0.1300208751
0.1334282808
0.1346567572
0.1397981844
0.1356216823
0.1345180922
0.1309614241
0.1083862809
0.153651273
0.1175527831
0.09805885307
0.102522389
0.1086475241
0.1140003996
0.1190587722
0.1224140364
0.1255694835
0.1277319083
0.1297186831
0.1301915529
0.1291271019
0.1263302068
0.1061566514
0.1513214768
0.1186291694
0.09799218815
0.1012563367
0.1067674492
0.1113788643
0.1150363128
0.1183729434
0.1201000275
0.1211611941
0.121241907
0.1201414564
0.1019890905
0.1468642142
0.1127970777
0.1021272289
0.1017666482
0.1027583262
0.1062713224
0.1088147468
0.1109582865
0.111773387
0.09866313095
0.1182183926
0.1347582207
0.1153838108
0.09914445572
0.102837595
0.1055402609
0.1073894174
0.1075518005
0.1275695827
0.1027693555
0.1070329624
0.116446805
0.1191021618
0.1023806893
0.1029873611
0.1040709015
0.1057151063
0.1078423016
0.1104339018
0.1135198208
0.1168773719
0.1204652179
0.1242244724
0.1278834209
0.131447241
0.1347487718
0.1377038373
0.1400641989
0.1419732092
0.1432499192
0.1440560951
0.1614389995
0.1518944634
0.100753299
0.1057447121
0.1162609429
0.1183165426
0.1016015682
0.102104949
0.1033184067
0.1050123524
0.1073349564
0.1100315917
0.1131467451
0.1166138871
0.1202355202
0.124004717
0.127723254
0.1312919581
0.1346240395
0.1375754166
0.1399391713
0.1417991304
0.1431143769
0.1438984133
0.1596261347
0.1506276645
0.09885009038
0.1045106649
0.1142522197
0.1172264222
0.101798427
0.1022336349
0.1032930366
0.1047698826
0.1068749135
0.109519038
0.1124793262
0.1159090695
0.1194940756
0.1232418857
0.1270089833
0.1305968861
0.1339629148
0.1368784565
0.1393404022
0.141377452
0.1427846796
0.1592207333
0.1688591277
0.1491197201
0.09554380076
0.1014170034
0.1121096254
0.1151681253
0.1018783057
0.1024127455
0.1034129885
0.1049958117
0.1070931852
0.109646011
0.1126150484
0.1159128754
0.1194324574
0.1231224977
0.1268004111
0.1302606285
0.1335823473
0.1365292546
0.1390252177
0.1409927867
0.1424508808
0.1652277654
0.1517384648
0.1521597128
0.1131295845
0.1014793502
0.1080232487
0.1128669925
0.1081945186
0.1019803051
0.1029975094
0.104475474
0.1064169858
0.1088380826
0.1118063679
0.1149619441
0.118454102
0.1220931452
0.1256262852
0.1291656712
0.1323962725
0.1354355789
0.1379762484
0.1400599517
0.1416660928
0.1604665221
0.154729089
0.143171685
0.1026878695
0.1080854068
0.1150239615
0.1142216507
0.1033039612
0.1039734997
0.1052531171
0.1070479088
0.1090807502
0.1115815008
0.1145966808
0.1177868301
0.1211601235
0.1245553226
0.1279732247
0.1311940638
0.1341573806
0.1367599959
0.1390310885
0.1535130205
0.1647296591
0.1493461562
0.1386639903
0.1157121904
0.1031291123
0.1083709207
0.1130138938
0.1086131907
0.1029219947
0.104115291
0.1056813901
0.1078709121
0.1104297684
0.113353833
0.1165357195
0.1198531171
0.1232596477
0.1266631531
0.1297959611
0.132816362
0.1354748587
0.1524845884
0.1678597101
0.1437319951
0.1486902784
0.1233379965
0.1022632175
0.1077896404
0.1127138909
0.1133925856
0.1107794183
0.1051384611
0.1063711844
0.1082566326
0.1104880879
0.1130530319
0.1158517349
0.1189700474
0.1221304968
0.1253901606
0.1283885388
0.13137569
0.1487712327
0.1657121613
0.1448085921
0.1497498049
0.1193443114
0.142365725
0.1146236064
0.1004323359
0.1088094541
0.1137064675
0.113826762
0.1114107693
0.1062153637
0.1078910878
0.109929875
0.1123625342
0.114965408
0.1179030782
0.120811633
0.1238538106
0.126805597
0.1431684894
0.1609247308
0.1420359069
0.1490643502
0.1370873945
0.1374694704
0.1216580111
0.1022555418
0.1103630603
0.1143159542
0.1136425569
0.1215703398
0.1157119327
0.1100466729
0.1121371069
0.1146280471
0.1172486261
0.1200018016
0.1363695001
0.1446821042
0.1522255896
0.1369228918
0.1450771589
0.1354525059
0.1110640918
0.1474906625
0.1224592723
0.1017451689
0.1087231931
0.1164354446
0.1138253536
0.1158910105
0.122315957
0.1261306007
0.1291237156
0.1311504773
0.1331943969
0.143486605
0.1310306637
0.1361274126
0.1390727488
0.1307297904
0.1082080617
0.1512711694
0.120365908
0.1005409002
0.1049040862
0.1118590395
0.1189714651
0.119492138
0.123354115
0.1265686088
0.1285006561
0.1289843923
0.1290725989
0.1327383582
0.1270447823
0.1082128235
0.1292290178
0.1407833295
0.1146139944
0.1047808475
0.1039285401
0.1062079127
0.1097283413
0.1131977785
0.1152365628
0.1172814942
0.1174317094
0.1178480356
0.1027854566
0.1228836484
0.1373317033
0.1146274999
0.1000020075
0.1036779528
0.1070819801
0.1094748938
0.1113650212
0.1120576476
0.110798886
0.130352623
0.09787887623
0.103975104
0.1165628189
0.1191529504
0.09977788594
0.09920999782
0.09931920754
0.1000778356
0.1015628156
0.103719774
0.1064370532
0.1097433856
0.1134883264
0.1176052776
0.1219236195
0.1263169263
0.1306129806
0.1344775158
0.1379656222
0.1408312651
0.1430849289
0.144644076
0.1454758483
0.1456445975
0.1452019586
0.1441748733
0.1427737947
0.09600188679
0.102905217
0.1155102282
0.1185428751
0.1003926186
0.09971704292
0.09958766577
0.1001418752
0.1013516542
0.1032635736
0.1058776431
0.1089700249
0.1127048055
0.1167048572
0.1209683945
0.125316483
0.1295253115
0.1335205279
0.1370286451
0.1400018108
0.1422846077
0.1439674267
0.1448416082
0.1452235161
0.1448477457
0.1439288839
0.1426032619
0.1125406701
0.1038241191
0.1138815682
0.1167711396
0.09935820066
0.09874945526
0.09879303715
0.09952687359
0.1009468555
0.1029568587
0.1057103723
0.1088777697
0.1125818172
0.1165680654
0.1207440983
0.1250694055
0.1292308602
0.1332077654
0.1366715532
0.1395572081
0.1419487177
0.1435532652
0.1445915338
0.1449549263
0.1447486408
0.1438708198
0.1425800393
0.107006416
0.112625935
0.1166236616
0.1020103101
0.1012848295
0.1013569966
0.101946144
0.1031366542
0.1049207298
0.1072288327
0.1101901677
0.1135302671
0.1173770147
0.1213599078
0.1254250073
0.129462023
0.133198268
0.1365256165
0.1395051793
0.1418270153
0.1434979181
0.1445939482
0.1449578292
0.1448327078
0.1441377361
0.1429310234
0.1002267994
0.1084525241
0.1150982964
0.1092325439
0.101172278
0.101101761
0.1016421229
0.1026547579
0.1043059391
0.1066290484
0.1094118017
0.1126343781
0.1162701095
0.1201737282
0.1241552988
0.1281591146
0.1318805991
0.1353519503
0.1383554485
0.1407402543
0.1426001996
0.1437881131
0.1443962233
0.1443772049
0.1438823235
0.1429084625
0.09574032451
0.1074256484
0.1166949875
0.1156418016
0.1004992563
0.1001741045
0.1004959418
0.1015392597
0.1031465473
0.1054166701
0.1081355007
0.1112988206
0.1149213045
0.1187164112
0.1226613089
0.1266005489
0.1302761454
0.1337595872
0.1368623202
0.1394278387
0.1413072115
0.1427083669
0.143505964
0.1437558992
0.1434600912
0.1426756769
0.1134536951
0.1014968784
0.1105809006
0.1157558671
0.109173751
0.1008792958
0.101141139
0.1018241647
0.1032412378
0.1051276486
0.1075087219
0.1104052279
0.1137857711
0.1172759443
0.1209837689
0.1247517269
0.1284221856
0.1318348397
0.1348886926
0.1375665568
0.1396645125
0.1412466747
0.1422575637
0.1427854723
0.1425937963
0.1559164538
0.1024327039
0.1104313894
0.1187552232
0.1172073824
0.1017006459
0.1016542309
0.1020705534
0.1031503404
0.1047805854
0.1069217513
0.1095291976
0.1125430371
0.1159192668
0.1193883917
0.123005458
0.1264919706
0.129749565
0.1328920012
0.1356172941
0.1378621854
0.139626231
0.1408736775
0.1416025088
0.1570640049
0.1669520308
0.1147160578
0.1015502415
0.110123931
0.115287505
0.1093031722
0.1020807173
0.1025138019
0.1035399206
0.1049257671
0.1068288046
0.1092446015
0.1119476748
0.1149158001
0.1181327787
0.1215491249
0.1248780838
0.1280908562
0.1311193798
0.1338601446
0.1361885435
0.1381018973
0.1395225897
0.1405445362
0.1607811109
0.1452935769
0.1250230857
0.10859567
0.1144030664
0.1142221668
0.1099110089
0.1023187333
0.1030194798
0.1042058978
0.1059117985
0.1081568404
0.1106857527
0.1135700342
0.1166124274
0.1198373771
0.1231141864
0.1263620758
0.129382665
0.1322381529
0.1346102475
0.136697416
0.1383295545
0.1505569765
0.1626231035
0.1431892185
0.1031064453
0.1094789954
0.1158923986
0.1153971324
0.1112634806
0.1043864302
0.1053419701
0.1067607517
0.1086305996
0.1107714444
0.1133232517
0.1160399589
0.1189926539
0.1219700667
0.1249704117
0.1278246949
0.1306449046
0.133014641
0.1352089718
0.1479707628
0.1622488555
0.1372013621
0.1408716619
0.1148150188
0.09951250616
0.110202385
0.1156968964
0.115335711
0.1117380206
0.1055084456
0.1067292377
0.1083417367
0.1102337966
0.1124191934
0.1148349421
0.1174890526
0.1202810694
0.123111479
0.1259051749
0.1285384171
0.1454269359
0.1519299663
0.156671246
0.1355406598
0.1228138864
0.1395832623
0.1198839883
0.09956568079
0.1092306357
0.114218657
0.1127942393
0.1209090506
0.1146180264
0.1074754054
0.1091895153
0.111179735
0.1134363807
0.1159130471
0.118582792
0.1212087426
0.1378498759
0.1458786862
0.154431448
0.1369423597
0.1378796048
0.1193285532
0.1591931234
0.1141907895
0.1061213077
0.1075894608
0.1150520373
0.1131748584
0.1146251237
0.12130461
0.1254353698
0.1283221913
0.1312325316
0.132791514
0.1343294024
0.1347154821
0.1452160911
0.1310804888
0.1347905501
0.136657107
0.1090741221
0.1529937705
0.1235941119
0.1013687847
0.1076366724
0.1152157954
0.1166149928
0.1211772122
0.1250766093
0.1276668598
0.1291833426
0.1297697438
0.1291083577
0.1275359717
0.1301420647
0.1070253905
0.1277697311
0.1389341153
0.1137407443
0.099125216
0.109767292
0.1066688054
0.1082810401
0.1111419674
0.1131988094
0.1151773831
0.1149318227
0.1011352082
0.1224683243
0.1155218039
0.134628824
0.1166513079
0.1001162941
0.1036501867
0.1056007589
0.106696032
0.1061785214
0.1254259827
0.09720288835
0.1063773809
0.1146853087
0.1026680819
0.1009744215
0.1000033976
0.09951658977
0.09987622936
0.1008507149
0.1025691597
0.1049286324
0.1080466584
0.1116778719
0.1159055603
0.1204806838
0.1252607249
0.1300681624
0.1345992645
0.1387050165
0.1421282313
0.1448131508
0.146587176
0.147579417
0.1477556593
0.1471016786
0.1458368423
0.1441125997
0.1418461238
0.1392616694
0.1148397666
0.1086027329
0.1131569271
0.1018141428
0.1000989109
0.09895713626
0.09837574667
0.09869372206
0.09963543844
0.1013142569
0.103608603
0.1066673819
0.1103167484
0.1144948734
0.119185484
0.1240082684
0.1288665697
0.1334736177
0.1375461679
0.1411368672
0.1438001979
0.1457155154
0.1467938815
0.1470657707
0.1466560918
0.1455008701
0.1438106457
0.1417508436
0.1391986589
0.1110097965
0.1148502068
0.1102580864
0.1014115727
0.1003401225
0.09989639455
0.100039454
0.1007578016
0.1021771015
0.1043315915
0.1071130372
0.1105288246
0.1145158438
0.1188681668
0.1235369415
0.1282478899
0.1327755551
0.136871305
0.1403098762
0.1431680615
0.1451180005
0.1462753275
0.1466837323
0.1462910399
0.1452918752
0.1437302272
0.1416783399
0.139307437
0.1097705577
0.1175764061
0.1174235443
0.100322385
0.09903792826
0.09848310842
0.09851574897
0.09930705523
0.1009515696
0.1031621663
0.1061274864
0.1096334997
0.113703987
0.1181511492
0.1227442909
0.127498014
0.1319196669
0.1360745253
0.1396995801
0.142395791
0.1445226657
0.1457933905
0.1463346185
0.146087463
0.1452274471
0.1437981789
0.1419459622
0.1396418916
0.1033165891
0.112798664
0.1184902898
0.1005666035
0.09905262158
0.09830361854
0.098259539
0.09896861479
0.1003094876
0.1023929085
0.1051875855
0.1085929722
0.1124025776
0.1167786291
0.1212964804
0.1259231269
0.1304043479
0.1345232071
0.138151405
0.1411990341
0.1434769022
0.1448661161
0.1456045884
0.1456431797
0.144961421
0.1437664253
0.1420332362
0.1399611216
0.09883477271
0.1105424418
0.1171992836
0.1026815918
0.1011783146
0.1003282447
0.1000898462
0.1005314135
0.1015365876
0.1033185098
0.1057133161
0.1087669346
0.1122623471
0.1162180295
0.1205548948
0.1248725765
0.1291077872
0.1331856994
0.1367528891
0.1397869148
0.1421642594
0.1438055165
0.1446615035
0.144920237
0.144541191
0.1435496268
0.1420978441
0.1402905038
0.1175573541
0.1049420674
0.1132878985
0.1092247002
0.1003951086
0.09951385325
0.09932097269
0.09973011504
0.1008392681
0.1025193351
0.1049576079
0.1077633033
0.1112602375
0.1150273022
0.1190872799
0.1233557783
0.1274516562
0.1314190259
0.1350701043
0.1381273625
0.1405431452
0.1423727549
0.1434969925
0.1439752788
0.1438439828
0.143171043
0.1420283792
0.1403963691
0.1108023971
0.1140666994
0.1149922267
0.100977013
0.09968883367
0.09914247277
0.09935522091
0.1001074743
0.1015523486
0.1035614373
0.1061945797
0.1093583569
0.1128945233
0.116798164
0.1208560165
0.1248301652
0.1287455454
0.1323521062
0.1354978538
0.138172806
0.140238507
0.1417037926
0.1424952912
0.1428070857
0.1423673834
0.1416088047
0.1403738418
0.1203030213
0.1063800034
0.1143095149
0.1096280213
0.1013176133
0.1005699049
0.1003354593
0.1007288991
0.1017484995
0.1033730735
0.1055234846
0.1081978347
0.1114629103
0.1149530188
0.1187071219
0.1224793778
0.1262726673
0.1298088665
0.1330105004
0.1358097701
0.1380601524
0.1397588004
0.140919588
0.1414587678
0.1415758633
0.1411249456
0.1402284707
0.1102012656
0.1125623798
0.1145814724
0.1100388221
0.1001111596
0.09985033423
0.1001305533
0.1010394731
0.1024885272
0.1045408146
0.1070443353
0.1100208618
0.1132939523
0.1168612301
0.1204729744
0.1241638681
0.1276048696
0.1309039177
0.1338443745
0.1362388739
0.1381521548
0.1395982275
0.1404979321
0.1408660301
0.140783762
0.1401987016
0.1191502617
0.1079945509
0.1182314011
0.1182403384
0.1023638791
0.1018156956
0.1017258937
0.1022584278
0.1033943758
0.1049661778
0.1070746423
0.1097272742
0.1126462837
0.1157981141
0.1191297712
0.1225088206
0.1258537362
0.1290216507
0.1319546873
0.1344165863
0.1365156402
0.1381916058
0.1394152872
0.1401220807
0.1403500818
0.1402381873
0.1289609808
0.1070792648
0.113477394
0.1091088923
0.1017460009
0.1015785764
0.1017912216
0.1027067789
0.1040566388
0.1059535511
0.1081710896
0.1108648736
0.1137569081
0.1169551433
0.1202228726
0.1234112148
0.1265380025
0.1294798374
0.1320819348
0.1343922938
0.1362748169
0.1377890786
0.1388018277
0.1538200975
0.1551222479
0.1081613784
0.1102284388
0.111690076
0.1099578802
0.1031289618
0.103177039
0.103750826
0.1048008708
0.1062776673
0.1081786093
0.1104089023
0.1129440594
0.1156534043
0.1186363586
0.1215194456
0.1244669513
0.1273366359
0.1299542633
0.1322578656
0.1342964417
0.1360249842
0.1511571451
0.1673582108
0.1411613927
0.1150933655
0.1019938108
0.1093993885
0.1107793085
0.1212475842
0.1131970726
0.1043419223
0.10493066
0.1060884782
0.1076695156
0.1094826108
0.1116723017
0.1141430822
0.1168140646
0.1194104038
0.122249774
0.1249070866
0.1275602444
0.1299729831
0.1321047438
0.1455720126
0.1619846451
0.1387148088
0.1272063007
0.1151916298
0.1105804005
0.114147899
0.1128954261
0.1161365214
0.112590894
0.1060027573
0.1067778473
0.1079314266
0.1094577035
0.1113077608
0.1133651365
0.1156254375
0.1180074436
0.1205827552
0.1231319627
0.1256072579
0.1410974672
0.1477532854
0.1533710329
0.1328746012
0.1188076279
0.147039602
0.1295000097
0.1075418049
0.1125714036
0.1119449138
0.1204841243
0.1246483504
0.1175959499
0.1098727914
0.111356863
0.1131055859
0.1150653984
0.1171458592
0.1332033325
0.1417755739
0.1399827165
0.148069933
0.1309866095
0.1147352004
0.1407327259
0.1449757026
0.1178350151
0.110792161
0.1127121967
0.1127236189
0.1142767014
0.1148021764
0.1202668188
0.1230789139
0.1252570639
0.1264313449
0.1277643308
0.1381989037
0.1264499325
0.1301322742
0.1273906084
0.1120232572
0.1501548889
0.1182043106
0.1081012173
0.1063595849
0.1122769755
0.1117696872
0.1148348548
0.1168616702
0.1179730375
0.1177087164
0.1177428772
0.107476018
0.1227820435
0.1144438278
0.1329976298
0.1153262428
0.09952229629
0.1025974805
0.1044728119
0.106781736
0.1079141586
0.1072377621
0.1054558929
0.1253601479
0.1108310412
0.1148732452
0.1035325124
0.1007920164
0.09886003954
0.09780701119
0.09739011565
0.0977153917
0.0990346127
0.1011013944
0.1039488358
0.1076267176
0.1119590809
0.1168666885
0.1223629002
0.1278580337
0.1333416472
0.1384245707
0.1428169045
0.1463218248
0.1487453478
0.1500759531
0.1503687977
0.1496748496
0.1481408233
0.1460023351
0.1433432347
0.1402423028
0.1369240863
0.1334145107
0.1098330115
0.1164984186
0.1119856736
0.1014246077
0.09954596832
0.09833759428
0.09789119811
0.09823397364
0.09928466384
0.1010882137
0.1037830784
0.1072150648
0.1114612925
0.1162765695
0.1215342345
0.1270374614
0.1325007608
0.1375222697
0.14191113
0.1454231215
0.1478613963
0.1492858786
0.1496995493
0.1491192561
0.147769706
0.1457363607
0.1431261162
0.140085247
0.1368662701
0.1334591495
0.112458868
0.1204809643
0.1203396391
0.1005252358
0.09843174322
0.09715192671
0.09658840358
0.09684460946
0.09783672079
0.09978247601
0.10238066
0.1058842831
0.1100803287
0.114860558
0.1202110004
0.1257395262
0.1311575289
0.136265011
0.1407171757
0.1442886123
0.1468980523
0.1484517488
0.1490845656
0.1486813676
0.1473659157
0.145441937
0.143044914
0.1401881495
0.1370233474
0.1337029826
0.1063116184
0.118025183
0.1225002142
0.1018765528
0.09980876599
0.09841998651
0.09783814649
0.09791562117
0.09876791309
0.1003953812
0.1028527399
0.1061410741
0.110113116
0.1146533431
0.1197733526
0.1251329808
0.130381136
0.1353807811
0.1397548498
0.1433824859
0.1460534519
0.1477719695
0.1484594243
0.1482357132
0.147267737
0.1454949873
0.1431243573
0.1404338769
0.1374590346
0.1342074951
0.1018985444
0.1151441112
0.1221356875
0.1030862119
0.1011944981
0.09981102352
0.09919399738
0.09923108667
0.0999237918
0.101374679
0.1036734203
0.1066375076
0.1103052398
0.1145877223
0.1193098253
0.1243764061
0.1294313909
0.1342881181
0.1385176928
0.1421312022
0.1449535655
0.1467394071
0.1476015254
0.1475471459
0.1468078861
0.145341858
0.1432139095
0.1407206012
0.1379161782
0.1349030937
0.1206493199
0.1115606122
0.1188720189
0.1027906164
0.1004471075
0.09893557144
0.09805028432
0.09797092611
0.09860488545
0.09992265621
0.1019708111
0.1048854457
0.1084334044
0.1126297515
0.117227641
0.1221719328
0.1270840397
0.1318933838
0.1362893674
0.1399527227
0.1430190517
0.1450764443
0.1461731021
0.1465185688
0.1460619617
0.1449070484
0.1431521999
0.1409567446
0.1384505293
0.1354989571
0.1122905707
0.1162943463
0.1114599772
0.1015276096
0.09988307157
0.09902848812
0.09882615422
0.0993417887
0.1003998365
0.1022623643
0.1047639394
0.1080213219
0.1117803976
0.1160953017
0.1206666052
0.1253475033
0.1300176716
0.1343537225
0.1380661271
0.1411026232
0.1433984103
0.1447977609
0.1454610139
0.1453043151
0.1444862148
0.1430467447
0.1412157572
0.1388656409
0.1363646997
0.1061239335
0.1174121112
0.118599388
0.1029217868
0.1011145883
0.1000307425
0.09952639031
0.09968751983
0.1005351128
0.1020692405
0.104275902
0.1071580513
0.110573672
0.1145040685
0.1188330302
0.1232550984
0.1277398405
0.1319263887
0.1356793526
0.138820516
0.1412198123
0.1429953605
0.1439208744
0.1441163105
0.1437242367
0.1427368004
0.1411709627
0.1392490729
0.1369917517
0.1213265204
0.1086621998
0.1171515877
0.1109463508
0.1005666811
0.09910719081
0.09835527307
0.09834521767
0.09904364526
0.1003680777
0.1023248385
0.1049602697
0.108157455
0.1118794325
0.1160218224
0.1202838008
0.1245866941
0.1287574516
0.1325512437
0.1359360718
0.1385529982
0.1406428558
0.142016599
0.1426913577
0.142653296
0.1421744881
0.1410187207
0.1395022418
0.137607695
0.1125549472
0.1186071083
0.1195707131
0.1029233667
0.101652808
0.1008133921
0.1006165151
0.1010100662
0.1019534159
0.1035004174
0.1055925032
0.1084215272
0.1115000933
0.1150810777
0.1190014593
0.122908194
0.1268156283
0.1304027859
0.1337151571
0.1365615424
0.1387857445
0.1404363035
0.1413907356
0.1418257343
0.1416328727
0.1409192174
0.1397770519
0.1383609656
0.1216053769
0.1082254184
0.1169845061
0.1113998098
0.1022159904
0.1010067181
0.1004462943
0.1006890502
0.101342979
0.1027600161
0.1046561678
0.1070350932
0.1100593427
0.1133674433
0.1167930472
0.1205141652
0.1242990045
0.127830087
0.1311378007
0.134019343
0.1364462434
0.1384184876
0.1397859777
0.1405168257
0.1408881624
0.1406250517
0.1399476896
0.1388124292
0.1107410559
0.1150960873
0.1177911052
0.1129217253
0.1025444801
0.1017922689
0.1016288984
0.1020968001
0.1029201647
0.1044609371
0.1063892514
0.1088381183
0.1117437401
0.114907549
0.1182939215
0.1217421333
0.1251148867
0.1282983341
0.1313365447
0.1339206648
0.1360722342
0.1378068464
0.138974818
0.13965842
0.1398469942
0.1396417493
0.139025253
0.1176722502
0.1072913046
0.1190948599
0.1196603796
0.1030090373
0.102048578
0.1015570687
0.1017015643
0.1024755389
0.1037143589
0.1055103558
0.1076687583
0.1101659032
0.113069777
0.1161512791
0.1193421364
0.1225475313
0.1256070814
0.1286726339
0.1312946861
0.1335963869
0.1355218429
0.1370829175
0.1380924028
0.138724272
0.138918299
0.1387811065
0.1283987943
0.1055365774
0.1145114738
0.1109297546
0.1035522476
0.1026646787
0.1024845165
0.1026301149
0.1034853751
0.104711496
0.1064146943
0.1085510324
0.110916937
0.1136113244
0.1164800258
0.1195236553
0.1225043855
0.1253916421
0.1281279808
0.1306095993
0.1327748567
0.1346005474
0.1360960333
0.1371678395
0.1378437438
0.1529642819
0.1305002546
0.1075145962
0.1102693113
0.1222912511
0.1132571505
0.102325739
0.102259141
0.1027273469
0.1036247099
0.105060588
0.1068449483
0.1089906394
0.1114434283
0.1140518929
0.1169473078
0.1197422093
0.1226246294
0.1253266939
0.1278854805
0.1302451141
0.1323319772
0.1340676594
0.1354968765
0.1491615478
0.1594690417
0.1311386447
0.1127673549
0.1147973734
0.1174870374
0.112997514
0.104121484
0.1042654362
0.1048589616
0.1058932785
0.1072845745
0.1090362304
0.1110538093
0.1132809555
0.1157256201
0.1182999153
0.1208771832
0.1234344753
0.1258552667
0.128222517
0.130307538
0.1486906127
0.1544332797
0.157539444
0.1336993442
0.1276513832
0.1067628036
0.114191835
0.1136013813
0.1229490585
0.1150216739
0.1056568819
0.1062722505
0.1073232491
0.1086695399
0.1104173294
0.1122932968
0.1143713184
0.1165333697
0.11894823
0.1213477471
0.1237388326
0.1259924933
0.1394757703
0.158744752
0.1385038696
0.1189569087
0.1416102656
0.1180800841
0.1118916906
0.1144129376
0.1125858794
0.1147153345
0.1219485465
0.115453437
0.1076744037
0.108709033
0.1100140941
0.111654117
0.1133998297
0.115495148
0.1175535645
0.1327604899
0.1404395782
0.1377982423
0.1444877959
0.1267892053
0.1157311001
0.1530709287
0.1222512816
0.1133576077
0.1147231625
0.1112437675
0.1130587602
0.1191718107
0.1223984577
0.1251625999
0.1265744445
0.1274137526
0.1282712611
0.127868382
0.1378758691
0.1239329932
0.1263328131
0.1084804649
0.1303834731
0.1352725705
0.1215864408
0.1057761409
0.1189769211
0.1124303719
0.1145291636
0.1168960813
0.1188415078
0.1198823522
0.1190387673
0.1178803984
0.1035654605
0.1260224747
0.1128591234
0.1311839963
0.1175915516
0.1010380462
0.1041233924
0.1060150894
0.1061001954
0.1058573406
0.1038042941
0.1231939647
0.1055338718
0.1195991039
0.1252887096
0.1032734264
0.1004994964
0.09870586577
0.09747855054
0.09715900693
0.09752715429
0.09872177862
0.1009402232
0.1040159679
0.1080478268
0.11302433
0.1185818365
0.124741351
0.1311192862
0.1372507909
0.1429227405
0.1475153004
0.1509419072
0.1529070856
0.1536268412
0.1530262513
0.1513811053
0.1487894152
0.1455485888
0.1418756134
0.1379400601
0.1338036808
0.1296151073
0.125509747
0.1035720722
0.1182042353
0.1244877046
0.1024665008
0.09957759159
0.09735470376
0.09616181103
0.0955940376
0.09604989651
0.09729775383
0.09942518924
0.1025493191
0.1065500143
0.1114376165
0.1171391454
0.1233313309
0.1297003791
0.1359281017
0.1416182564
0.146321052
0.1498412867
0.1520412604
0.1528087837
0.1523274871
0.150763166
0.1483336815
0.1453188023
0.1417084619
0.1378024835
0.1337915845
0.1297578167
0.1256552554
0.1005205977
0.1159312739
0.1227521696
0.1025570005
0.09967812351
0.09763363688
0.0963191231
0.09586153166
0.09616809723
0.09739787172
0.09945139226
0.1024286451
0.1062751943
0.1110749317
0.1165891748
0.1226723307
0.1289425709
0.1351705259
0.1407375222
0.1453945945
0.1489158253
0.1511975713
0.1521347468
0.1518497277
0.1503521201
0.1481524517
0.1452651317
0.1418061634
0.1380463043
0.1341044065
0.1300947061
0.1260867614
0.1208895133
0.1151289364
0.1225912732
0.1036897232
0.1010057435
0.09896536546
0.09770282949
0.09724979807
0.09750165753
0.09857107662
0.1005073602
0.1032874365
0.1069541399
0.1114859818
0.1167276301
0.1224923181
0.1284608561
0.1343872812
0.1398619315
0.1445316643
0.148116976
0.1504387496
0.1514423262
0.151346798
0.1502189551
0.1481186859
0.1452944248
0.1420745727
0.1384872703
0.1347160582
0.1307651064
0.1269038042
0.1180076649
0.1201412898
0.1041973218
0.1012243486
0.09898952534
0.09756911889
0.09672953799
0.09691896676
0.09785957732
0.09954802652
0.1021857508
0.1056885644
0.1100867683
0.1151086805
0.1206917293
0.1265163107
0.1323326576
0.1378007551
0.1424717605
0.1461745731
0.14870755
0.1500907102
0.1502903601
0.1494112415
0.1476992607
0.1452287585
0.1422990293
0.1388772438
0.135312867
0.1316287114
0.1277578761
0.1084073861
0.1185572621
0.1128102952
0.1009789137
0.09835917421
0.09663290112
0.09564707018
0.09548004712
0.0962275671
0.09770231857
0.1002028132
0.1034668956
0.1075944399
0.1123905558
0.1179006599
0.1236175634
0.1293492144
0.134737584
0.139582258
0.1434773679
0.1463894013
0.1480251731
0.1486034576
0.1482015113
0.1468773764
0.1448350845
0.142259776
0.1392829704
0.1359348323
0.1324506882
0.1289014068
0.1074039814
0.1196982342
0.1219963939
0.1023302762
0.09989696745
0.09797122888
0.09690636462
0.09659932039
0.09715244818
0.09841764417
0.1005635904
0.1036003283
0.1073103154
0.1119029415
0.1168875515
0.1222213219
0.12776417
0.1329397721
0.1376688092
0.1415189844
0.1445812035
0.1465659031
0.1474310467
0.147386185
0.1464325713
0.1448085011
0.1425306303
0.1398295658
0.1368264891
0.1336162897
0.1302855566
0.1223465037
0.1135917612
0.1223397181
0.1039848006
0.1012927442
0.09933671153
0.09819245428
0.09772643997
0.09817946955
0.0992424307
0.101178903
0.1038657828
0.1072609189
0.1113977306
0.1160017289
0.1210331612
0.1261734173
0.1311162856
0.1356513772
0.1396510823
0.1426652702
0.1448427232
0.1460548818
0.1463697993
0.1459227677
0.144621657
0.142734077
0.1403574903
0.1377965072
0.1347584102
0.1317260132
0.1128055358
0.1184391475
0.1135743401
0.1025448392
0.1003970807
0.09910087298
0.09829554834
0.09825753586
0.09897486487
0.1005251742
0.1027834986
0.1057769847
0.1094412216
0.1137023938
0.118293432
0.1231261673
0.1279193658
0.132374878
0.1363901458
0.1397606032
0.1421557889
0.1438298327
0.1446224388
0.144592958
0.143928948
0.1425760194
0.1406808597
0.1384181646
0.1358707844
0.133146145
0.127507266
0.1185352168
0.1200288539
0.1025856697
0.1001772323
0.09843753425
0.09749586933
0.09737683182
0.09792142393
0.09936159278
0.1014154385
0.1041659472
0.1075517917
0.1115076952
0.115830129
0.1203419867
0.125014657
0.1293678262
0.1333562546
0.136741678
0.1395269495
0.1415227329
0.1427842304
0.1432514067
0.1430624012
0.1422246707
0.1407517062
0.1390523656
0.136889859
0.1344968381
0.1132276767
0.1184186584
0.1128898465
0.1019494937
0.09991028938
0.09862880894
0.0981200994
0.09828472718
0.0991771931
0.1007246686
0.1030066636
0.1058508312
0.1093312327
0.1132512902
0.1173445441
0.1216043673
0.1258780371
0.129847853
0.1333640823
0.1363911688
0.1387524631
0.1404571666
0.1413816461
0.1417776854
0.1415091799
0.1406886435
0.1393830231
0.137705976
0.1357295329
0.1284818096
0.1179148154
0.1204992582
0.1036026824
0.1013130064
0.09980849277
0.09896702829
0.09877820562
0.09938755272
0.1005681459