/*--------------------------------*- C++ -*----------------------------------*\
| =========                 |                                                 |
| \\      /  F ield         | OpenFOAM: The Open Source CFD Toolbox           |
|  \\    /   O peration     | Version:  v1706                                 |
|   \\  /    A nd           | Web:      www.OpenFOAM.com                      |
|    \\/     M anipulation  |                                                 |
\*---------------------------------------------------------------------------*/
FoamFile
{
    version     2.0;
    format      ascii;
    class       volScalarField;
    location    "3.2711";
    object      SOFP_O2;
}
// * * * * * * * * * * * * * * * * * * * * * * * * * * * * * * * * * * * * * //

dimensions      [0 0 0 0 0 0 0];


internalField   nonuniform List<scalar> 
60268
(
0.01745592759
0.01773532953
0.0188139878
0.01967206251
0.02034855143
0.02094205954
0.02127843497
0.02153707329
0.02153171564
0.02123691898
0.02144030895
0.02082125467
0.01850071563
0.01870712623
0.01946420164
0.02015191774
0.0207083934
0.02110484914
0.02131002831
0.02134353569
0.02101883406
0.02109353592
0.01815425113
0.01825419993
0.0192063345
0.01987514398
0.02040290938
0.02076230464
0.02093852416
0.02097187113
0.01787380199
0.02507162408
0.02101153217
0.01853291253
0.01873059759
0.01941262004
0.01984632537
0.020259505
0.0205068609
0.02043402486
0.02108926993
0.02207276877
0.01867151376
0.01855763778
0.01903054405
0.01939721409
0.01700625137
0.0206240829
0.02288278592
0.02175946744
0.01839831322
0.01856135521
0.01910850956
0.02325612681
0.01874422479
0.01906089846
0.02050163844
0.0216708125
0.0220473658
0.01966800993
0.01998488
0.02037777779
0.02085704207
0.02141261556
0.02201832865
0.02265041258
0.02330835096
0.02397288374
0.02830202722
0.02861625408
0.02788124919
0.02679467681
0.02491334525
0.02461052119
0.01832225462
0.01903431349
0.02054508182
0.0216056033
0.02216173269
0.02103016895
0.02012216138
0.0205189908
0.02097749065
0.02151835304
0.02211619095
0.02272266693
0.02335904426
0.02400062852
0.02796952583
0.02841871619
0.02774208979
0.02649648875
0.0248270976
0.0240571444
0.01805907054
0.01874763074
0.02029536049
0.02195024631
0.02261609299
0.02219467311
0.02010018965
0.02047209985
0.02093520852
0.02145979287
0.02203407727
0.02267031469
0.0233012283
0.02651199533
0.02922602496
0.02785039613
0.02726952123
0.02607059678
0.02158075816
0.02823867771
0.01746624037
0.01824573643
0.01978352525
0.02102688277
0.02193509148
0.02220575259
0.02116988879
0.02034893225
0.02081243516
0.02132930697
0.02190739524
0.02251263136
0.02315572685
0.02743438695
0.02603966458
0.02808284377
0.02666415788
0.0253817556
0.02563228713
0.02091854789
0.01843321956
0.01935739925
0.02069284529
0.02203203991
0.02260354794
0.02234154021
0.02157819277
0.02082980845
0.0213191196
0.02187903798
0.02489938002
0.02647086501
0.02765791222
0.02657223414
0.02643651333
0.0257061991
0.02441144935
0.02391708962
0.01828297152
0.01848675751
0.01978690495
0.02098354649
0.02230285703
0.02277497726
0.02236373982
0.02342593166
0.0241464023
0.02466690247
0.02671894534
0.0245578763
0.02576553217
0.02686636275
0.02554841219
0.02461069205
0.02036724879
0.02748863678
0.02084753912
0.01809078814
0.01906872005
0.02025715358
0.02137178851
0.02253976955
0.02368770954
0.0237020008
0.02415461209
0.02477648611
0.02499336569
0.02595852862
0.02520208272
0.02502586162
0.02440104077
0.02022944765
0.02873056798
0.02216381399
0.01842278302
0.01921816812
0.02032402484
0.02128600271
0.0221933654
0.02279600013
0.02336745568
0.02375354336
0.02412059845
0.02420972946
0.02402389197
0.02352090255
0.01979118492
0.02826910746
0.02231359915
0.018381794
0.0189542481
0.01995711275
0.02078445751
0.02143540154
0.022033465
0.02233964616
0.02252855059
0.02254776402
0.02235917367
0.018999832
0.02739998093
0.02119045215
0.01914027002
0.01903443413
0.01918530558
0.01980801095
0.02026562366
0.02065165351
0.02079688486
0.0183671063
0.02201149924
0.02510280012
0.02162298421
0.018546407
0.01921576122
0.01969961593
0.02003356361
0.02004866917
0.02379546895
0.01952484579
0.02027514651
0.02198409551
0.02239549999
0.01916401278
0.01921471288
0.01936240058
0.0196156152
0.01997313526
0.02042195457
0.02096715995
0.02157728851
0.02224339689
0.02294763854
0.02364779332
0.0243457174
0.02499933032
0.02560889508
0.02610952446
0.02655442149
0.02687935177
0.02712398083
0.03049048342
0.02877808758
0.01915405561
0.02002403196
0.021953436
0.02225297695
0.01900808504
0.0190366515
0.01920939744
0.01947489377
0.01986194687
0.02032969883
0.02087872269
0.02150729426
0.02218362838
0.02289022517
0.02360587291
0.02430865718
0.02498046896
0.02559621629
0.02610715351
0.02652769601
0.02684823512
0.02708053486
0.03013453705
0.0285210811
0.01879415819
0.01978282526
0.02157067084
0.0220462057
0.01904647437
0.01907070908
0.01921252224
0.01943450954
0.01978052129
0.02023255229
0.02075940668
0.02138352041
0.02204379444
0.02274858004
0.02347078569
0.02417047035
0.02484777665
0.02545128221
0.02597276998
0.02643312921
0.02677728971
0.02994713718
0.03186013124
0.02822438807
0.01817301137
0.01920242395
0.02116758799
0.02166402538
0.01907031263
0.0191079758
0.01923930497
0.01948481675
0.01983249169
0.02027404923
0.02079490028
0.02139143425
0.02204003435
0.0227373133
0.02344423154
0.0241153491
0.02477276334
0.02538342928
0.02592450293
0.02636030372
0.0267121923
0.03107606444
0.02862031945
0.02879576791
0.02155026835
0.0192333601
0.0204145742
0.02123954228
0.02027703647
0.01903821409
0.019171544
0.01939765811
0.01972043031
0.02013447572
0.02066449767
0.02123636977
0.02188334848
0.02256558611
0.02323230705
0.02392112137
0.02457151718
0.02519011303
0.02572110494
0.02618288307
0.0265604426
0.03016523124
0.02917441589
0.02709605799
0.01948579524
0.02043994065
0.0216950264
0.02146099391
0.01932749981
0.0193965899
0.01958000748
0.01987602069
0.02021456626
0.02064829264
0.02119055933
0.02177063937
0.02239792778
0.02304866072
0.02370925106
0.02434669327
0.02494339499
0.0254857363
0.02597644651
0.02874541888
0.03092448352
0.02812510295
0.02620938689
0.02197652487
0.01952005214
0.02044578273
0.02124672893
0.02034790595
0.01920368459
0.01937919295
0.01962289781
0.0199915908
0.02043477868
0.02095544666
0.0215385849
0.02215411982
0.02280181604
0.02346065252
0.02407797338
0.02468599845
0.02523692981
0.02846963464
0.03142830286
0.02699011713
0.02799720995
0.02330141693
0.01937731007
0.02036837119
0.02123604827
0.0212984868
0.02073501623
0.01961626704
0.01979783481
0.02011376105
0.0205005592
0.02094799654
0.02145264723
0.02202966148
0.02263029758
0.02325970472
0.02383974488
0.02442483202
0.0277200807
0.03094282679
0.02710471591
0.02810036974
0.02245854161
0.02685426546
0.02174517233
0.01898881814
0.02050435839
0.02136915831
0.02133047088
0.02081384162
0.01978302889
0.02005898191
0.02040504562
0.02083562478
0.02130765289
0.02184880123
0.02239631139
0.02297402751
0.02353995518
0.02662463257
0.02997729008
0.02651642536
0.02789156385
0.02572454644
0.02585271305
0.02304237962
0.01930287937
0.02079113392
0.02147105596
0.02128541108
0.02271292556
0.02156931994
0.02047339382
0.02083616842
0.02127997223
0.02175889069
0.02226978842
0.02532556372
0.0268974923
0.02833316869
0.02552064344
0.02708318562
0.02533512016
0.02082781596
0.02772868257
0.02316786214
0.01917673017
0.02044861849
0.02184801364
0.02131604769
0.02165683347
0.02281320405
0.02349352475
0.02402759129
0.02438563365
0.02475886265
0.02668153467
0.02437879742
0.02535143178
0.02593259141
0.0243993588
0.0202425887
0.02835307573
0.02273550174
0.01894064831
0.01970879309
0.02097219029
0.02226520425
0.02232775368
0.02301971096
0.02359246356
0.02393972543
0.02402919932
0.02404535659
0.02473493362
0.02368230627
0.02019087873
0.02414678199
0.02634149548
0.02163394824
0.01973952418
0.01952829671
0.01990545362
0.02053487038
0.02115358474
0.02151621739
0.02187891494
0.02189460501
0.02196369278
0.01915960738
0.02291706691
0.02564071482
0.0215855331
0.01878722876
0.01944940491
0.02005470019
0.02048866082
0.02081750679
0.02093185185
0.02069176589
0.02435110247
0.01871095069
0.01982154854
0.02214223065
0.02253440105
0.01875257301
0.01856571817
0.01850844923
0.01858922951
0.01880634423
0.01915449672
0.01961204817
0.02018948753
0.02086165199
0.02161514788
0.02242262535
0.02325941655
0.02409573143
0.02486099972
0.02557691975
0.02619053741
0.02670421302
0.02709590025
0.02733803735
0.02746596161
0.02747320664
0.02736919915
0.02719361285
0.01836276773
0.01960812342
0.02193594128
0.02242303802
0.01887889588
0.01867485237
0.0185772276
0.01860957626
0.01877171018
0.01907492647
0.0195079009
0.02004489816
0.02071249646
0.02144061325
0.02223272104
0.02305760207
0.02388178916
0.02468121453
0.0253906204
0.02602267737
0.02652381384
0.02693428848
0.02719720969
0.02736857451
0.02738598334
0.0273082942
0.02714289069
0.02153722056
0.01979465878
0.02162784802
0.02207785563
0.01866471433
0.0184723132
0.01841180955
0.0184825541
0.01868543462
0.01901211864
0.01947685541
0.02002415246
0.02068562936
0.02141656033
0.02220563982
0.02302578748
0.02382227333
0.0246115866
0.0253276298
0.02593697887
0.02645675959
0.02685173842
0.0271427125
0.02731166149
0.02735854267
0.02728787947
0.02713403012
0.02042814996
0.02142279634
0.02208648153
0.01920785735
0.01900479546
0.01895192992
0.01899684327
0.01915985023
0.01943825732
0.01982088604
0.02033472339
0.02092438222
0.02162305252
0.02235622568
0.02312040106
0.02391014551
0.02464989373
0.02532548052
0.02594814554
0.02645952114
0.02684628964
0.02713403923
0.02730488007
0.02737737818
0.02734022249
0.02719697706
0.01914546936
0.02063123482
0.02181241712
0.02059596478
0.01898978417
0.01890948123
0.01894779461
0.01907471522
0.01933038635
0.01971345644
0.02019569201
0.02076671862
0.0214294154
0.02214881025
0.02290381755
0.02366923867
0.02440343296
0.02510131585
0.0257202078
0.02623826395
0.02667643819
0.02698351529
0.02718445946
0.02728373701
0.02728162759
0.02717088205
0.01829587167
0.02043259021
0.02212862262
0.02183480127
0.01886172519
0.01873241579
0.01872343237
0.018861567
0.01910153475
0.01947849997
0.01994873001
0.02051275202
0.02116572523
0.02186692153
0.02261441548
0.02337618974
0.02408649015
0.02478190165
0.02542247471
0.02597072733
0.02639459738
0.02674203312
0.0269818252
0.0271212967
0.02715326621
0.02708956825
0.02169870109
0.01932900657
0.0209932706
0.02188217549
0.02054915488
0.01890140803
0.01888042536
0.01894932317
0.01915764888
0.01946392249
0.01987042022
0.02038133507
0.02098882502
0.02162529936
0.02232136794
0.02303537529
0.02374928347
0.02443364094
0.02506433768
0.025621629
0.02608308123
0.02646888387
0.02673861681
0.02692154508
0.02695896386
0.02955451942
0.01954480017
0.020998722
0.02249987071
0.02211657492
0.01909939435
0.01901912326
0.0190294347
0.01917536391
0.01943122734
0.01978541701
0.0202382601
0.02077229885
0.02139513425
0.02204814327
0.02273138514
0.02339783983
0.02404152107
0.02467255148
0.02523960333
0.02572500053
0.02613648221
0.02644389069
0.0266532856
0.02964910712
0.0316076003
0.02192536169
0.01932668761
0.02088641103
0.02178270256
0.02056640155
0.01912629728
0.01915058954
0.01928839243
0.01949776815
0.0198163229
0.02023806333
0.02071912005
0.0212517468
0.02184202785
0.02248777253
0.02312782121
0.02374947081
0.02435752216
0.02492233908
0.02542193075
0.02585028582
0.02618369328
0.02643936687
0.03032763385
0.02748874177
0.02384933236
0.02062683367
0.02165425918
0.02154064972
0.02064219639
0.01913336198
0.01920334712
0.01937403182
0.01965140162
0.02003713911
0.02048291233
0.02100590649
0.02157102252
0.02217272654
0.02279406234
0.02342917045
0.02402859627
0.02459331791
0.02508617415
0.02553742175
0.02591560657
0.02828735563
0.03064106574
0.0270534699
0.01961135519
0.02075713237
0.02190844926
0.02173867126
0.02088775792
0.01953290429
0.01966463702
0.01988338927
0.02019563035
0.02056785537
0.02102546631
0.0215229689
0.02207606264
0.02264233846
0.02321502361
0.02377149326
0.02432944076
0.02481660082
0.02528268273
0.02772567771
0.03047868764
0.02584629492
0.0266125934
0.02189091821
0.01890551779
0.02086863722
0.02184979659
0.0217128832
0.02096276206
0.01972893357
0.01991638579
0.02018355609
0.02050093808
0.02089240619
0.02132972156
0.021816427
0.02234110275
0.02288013395
0.02342190231
0.02394470985
0.02713511385
0.02839775027
0.02934219465
0.02544592553
0.02311766987
0.02634558494
0.02281149291
0.0188923314
0.0206701018
0.02155843538
0.02122617815
0.02269020358
0.02145209605
0.02006269475
0.02034811151
0.02069292827
0.02109341897
0.02154859991
0.02204800684
0.02254707401
0.02567398991
0.0272005605
0.02883527896
0.02561417721
0.02582968987
0.02239247977
0.02993964859
0.02167734855
0.02009733522
0.02033404606
0.02169468106
0.02129276341
0.02151450153
0.0227194748
0.02346217408
0.02397172398
0.02448505511
0.02475825341
0.02503059484
0.02509790462
0.02706142862
0.02444654824
0.02516033214
0.02554827577
0.02042597627
0.02870038185
0.02341159596
0.0191480458
0.02027426538
0.02166200901
0.02188737318
0.02270892062
0.02341265545
0.02386843127
0.02413686708
0.02424009908
0.02411375446
0.02382302086
0.0243134531
0.02001094074
0.02391325376
0.02603027579
0.02153187662
0.01872929875
0.02070218888
0.02007261162
0.02033358644
0.02084316797
0.02120379162
0.02155692681
0.02149179951
0.01891646136
0.02290697104
0.02162065396
0.02522337381
0.02201650239
0.01886208672
0.01949224847
0.01984187175
0.02002284096
0.0199101394
0.02350206267
0.01867660866
0.02035651232
0.02184715817
0.01944595243
0.01903939642
0.01878225993
0.018607797
0.01860547886
0.01871672109
0.01897820086
0.01935556592
0.01988447917
0.02051879012
0.02127728547
0.02211499335
0.02301255402
0.02393497793
0.02482315417
0.0256566761
0.02637584374
0.0269737281
0.02741171943
0.02769700011
0.02783275567
0.02782045837
0.02767598779
0.02744481141
0.02710936599
0.02669816946
0.0220774077
0.02079186676
0.02156308086
0.01928707759
0.01887511421
0.01857686614
0.01838534604
0.01837713851
0.01847827684
0.01872677118
0.01910159201
0.01961551536
0.02025546365
0.02100618904
0.02187708427
0.02278658983
0.02370394831
0.02460323723
0.02542707638
0.02617294832
0.02676477425
0.027222719
0.02753483105
0.02769258661
0.02770913171
0.02759451537
0.0273695406
0.02706329971
0.02665846937
0.02124790674
0.02187603951
0.02091560987
0.01912284397
0.01884684385
0.01868936275
0.01864935482
0.01871944857
0.01891907694
0.01926242226
0.01972946375
0.02032520465
0.02103414625
0.02182184235
0.022691639
0.02358746949
0.02446708119
0.02529711746
0.02601576697
0.02662968497
0.02708528875
0.02740373449
0.02759395691
0.02763125047
0.02753961866
0.02734462753
0.02704300015
0.02667279951
0.02104833535
0.02244704371
0.02229833364
0.01893789029
0.01860110437
0.01841511981
0.0183480507
0.01842292549
0.01866668452
0.01901622887
0.0195221092
0.0201362705
0.02086170601
0.02167310273
0.02253636999
0.02344334068
0.02431480427
0.02513604236
0.02588103112
0.02647923243
0.02697616281
0.02731637262
0.02752658552
0.02758704184
0.02751696551
0.02733390682
0.0270712506
0.02671446114
0.01983712189
0.02155480904
0.02252455679
0.0190002874
0.01863527545
0.01840343659
0.01831643365
0.01837907861
0.01856030393
0.0188919418
0.01935752975
0.01994831835
0.02063039517
0.02142456733
0.02226582332
0.02314917877
0.02402077817
0.02483006598
0.02557669179
0.02623097497
0.02674909853
0.0271053578
0.02734271523
0.02745244397
0.02743262641
0.02730687706
0.02707275543
0.02677028296
0.01896331899
0.02114520671
0.02229496648
0.01942400104
0.01905678565
0.01882300912
0.01870179537
0.01871658754
0.01884233881
0.01911367693
0.01950490007
0.02003982467
0.02065813808
0.02137383728
0.02217113164
0.02298421984
0.0237979425
0.02460187265
0.02533110799
0.02596439068
0.02649423115
0.0268979132
0.02715677862
0.0273039839
0.02731603143
0.02721869968
0.02703705206
0.02677973941
0.02254576856
0.02005817798
0.02157121217
0.02070445805
0.01892344105
0.01867218353
0.0185625145
0.0185703164
0.01871399162
0.01897230839
0.0193757172
0.01986233716
0.0204725098
0.02115379004
0.02190572127
0.02271622363
0.02350841261
0.0242871982
0.02502631031
0.0256702133
0.02619150549
0.02661974915
0.02693292018
0.02710706347
0.02716847197
0.02713218363
0.02700479107
0.02677669732
0.02121945945
0.02175945494
0.02183845119
0.01906047026
0.01873078488
0.01855675816
0.01852264869
0.01859626907
0.01880632333
0.01913016108
0.01957881342
0.02014307508
0.02078084597
0.02150159349
0.02225522721
0.02301676241
0.02378369647
0.02449780188
0.02514156847
0.02571911528
0.02618738878
0.02653922043
0.02676706454
0.02691988754
0.026931943
0.02687408668
0.02672759269
0.0230736924
0.02031951281
0.02173295358
0.02075980581
0.01909603651
0.01887183664
0.01875563681
0.01876111559
0.01889438636
0.01915070494
0.01950745464
0.01996832739
0.02055665775
0.0211853928
0.02187780478
0.02259123123
0.02332391955
0.02402370576
0.02467370895
0.02526608915
0.02575990908
0.02615518279
0.02645438593
0.02664446742
0.0267531209
0.02675535361
0.02666022952
0.02109115801
0.02145434112
0.02174709611
0.02077821205
0.01879968745
0.01867960374
0.0186708744
0.01878657111
0.01900353323
0.01934262588
0.01976990611
0.02029298178
0.02089221627
0.02155812839
0.02223529106
0.02294210389
0.02361193606
0.02427612441
0.02487433108
0.02539472138
0.02582975395
0.02618161097
0.02642540138
0.02656440534
0.02663319154
0.02660933326
0.02283084585
0.02060726588
0.02251439058
0.02240176316
0.01929737335
0.01912735784
0.01903840924
0.01907818942
0.01923961021
0.01948515393
0.01983396953
0.02029730069
0.02082500109
0.02140663095
0.02203017202
0.02266825787
0.023314193
0.02393597907
0.02453379497
0.02505580842
0.02551870412
0.02589579375
0.0262026629
0.02641034096
0.02652140132
0.02657882771
0.02468440867
0.02041904677
0.0215430079
0.02061949007
0.0191323952
0.01903101349
0.01901213828
0.01912918626
0.01933754523
0.01965427507
0.02003499586
0.02051348395
0.02103695298
0.02163205636
0.02225417746
0.0228663868
0.02347441819
0.02406441068
0.02459870683
0.02507890673
0.02549654129
0.02584820689
0.02611677006
0.02901541603
0.02934741133
0.02065328943
0.02096413657
0.02117656501
0.02075933653
0.01939009415
0.01934040548
0.01939001354
0.01953924429
0.01977345131
0.02009587967
0.02048660345
0.0209455664
0.02144123344
0.02200225541
0.02254985734
0.02311723838
0.02368743289
0.02421003026
0.02468226709
0.02511368949
0.02549869634
0.02840205208
0.03152025272
0.02665575935
0.02201018461
0.01942660424
0.02079410023
0.02098694358
0.02290124199
0.02130100674
0.01955645174
0.01961715456
0.01979127917
0.02005141223
0.0203631262
0.02075235833
0.02120010316
0.02168981338
0.02217900802
0.02271871815
0.02323908876
0.02376807019
0.02425678256
0.02469785428
0.02727200473
0.03041184004
0.02609928498
0.02398857519
0.02198606544
0.02107101506
0.02167843584
0.02136293886
0.02192101487
0.02118043177
0.01988116727
0.01998336844
0.02016154167
0.02041250091
0.02073603612
0.02110966755
0.02152138608
0.02195623119
0.02243955707
0.02292540133
0.02340281964
0.0263415181
0.02762382098
0.02872100424
0.02492824719
0.02232912782
0.02768707511
0.0246710567
0.02041320892
0.02132793295
0.0211497158
0.0227095958
0.0234490803
0.02206704226
0.02057007441
0.0208166344
0.02112351952
0.02148033649
0.02187019854
0.02487431371
0.02648749517
0.02616157195
0.02769454113
0.02452742076
0.02150847903
0.02642290088
0.02728685623
0.02242042764
0.0210293854
0.02134284897
0.02128654691
0.02153503781
0.02158811229
0.02258049973
0.02307472232
0.02345968419
0.02366225508
0.02389434678
0.02584610154
0.02364623426
0.02434200651
0.02384270757
0.02098769206
0.0281692177
0.02241722158
0.02045374365
0.02007638791
0.0211611388
0.0210243724
0.02157262353
0.02192725931
0.0221123335
0.02204402338
0.02204288866
0.02011986677
0.0229952463
0.02145058201
0.02495452105
0.02183847025
0.01880738318
0.01935797686
0.01969058746
0.02008905676
0.020274575
0.02013527886
0.01978650421
0.02352346075
0.02132812251
0.02197794477
0.01969944658
0.01907086308
0.01860710666
0.01832143895
0.01816702212
0.01814276275
0.01830885351
0.0186229194
0.01909332077
0.01972592188
0.02049136199
0.02138130155
0.02239683365
0.02342791437
0.02449066806
0.02550736798
0.02640953131
0.0271543769
0.02772419353
0.02809655237
0.02828210006
0.02827268005
0.02809553822
0.0277940373
0.02739024457
0.02689453767
0.02635111813
0.02574898938
0.02111149699
0.02231344654
0.02131538242
0.01919357368
0.01874603658
0.01843216646
0.01826335027
0.01825040499
0.0183771291
0.01864528778
0.01908144373
0.01966493228
0.02041450497
0.021273889
0.02224181159
0.02326846185
0.02431600917
0.0253208592
0.02622319456
0.02697373805
0.02754176301
0.02792474586
0.02812803615
0.02814135096
0.02799949214
0.02771830477
0.0273273056
0.02683946482
0.02630699839
0.02573381655
0.02162105408
0.02307194062
0.02292479642
0.01902707344
0.01854691037
0.01820865721
0.01801833671
0.0179861037
0.01808722385
0.01837932819
0.0188029075
0.01939711855
0.02013573202
0.02100473318
0.02199119641
0.02303664318
0.02407654742
0.02508486225
0.02599528566
0.02674359568
0.02734883948
0.02775565197
0.02799912112
0.02805841804
0.02792490912
0.02766275978
0.02729658936
0.02684551231
0.02631823894
0.025760144
0.02044236108
0.02262754735
0.02337265003
0.01931859522
0.01881812267
0.01847153696
0.0182717149
0.01821293208
0.01829927619
0.01852590049
0.01891818654
0.01947804865
0.02017100098
0.02098817082
0.02192647313
0.02292818953
0.02392720597
0.02490485969
0.02579856873
0.02657872609
0.02719124558
0.02762045205
0.02787027148
0.02794442497
0.0278728781
0.02764702696
0.02730621358
0.02688409102
0.02639380958
0.02584634427
0.0196325625
0.02208808027
0.02331874257
0.01956629799
0.01909834316
0.01874772078
0.01856257838
0.01848183933
0.01854315796
0.01875080822
0.01911847014
0.01960962788
0.02025442078
0.02102646859
0.02188542116
0.0228291705
0.0237976636
0.02474656646
0.02559424116
0.02635619707
0.02697983485
0.02742334491
0.0276898792
0.0277994556
0.02777256335
0.02760881305
0.02730530199
0.02692377203
0.02646037549
0.02596656225
0.02327940852
0.0214274124
0.02270656781
0.01951190782
0.01897330191
0.01860006542
0.01835118798
0.01826341069
0.01830605455
0.0184871027
0.01880579483
0.01929271902
0.01990874731
0.02065224623
0.02148351064
0.02239981532
0.02333451331
0.02427116872
0.02515292927
0.02591790563
0.02657767958
0.02706477935
0.02738432512
0.02756975593
0.02758778082
0.02747162488
0.02724607174
0.02690933537
0.02651221429
0.02602738146
0.02158291069
0.02222033867
0.02120443083
0.01920357525
0.01880865947
0.01856470268
0.01844245058
0.01846898474
0.01860334698
0.01888866207
0.01930313079
0.01986088717
0.02052626764
0.02131834355
0.02216524971
0.02304821797
0.02395976179
0.02481488152
0.02557666373
0.02622355497
0.02674801361
0.0271076348
0.0273451851
0.02741471845
0.02737096673
0.02718840215
0.02693008819
0.0265710066
0.02617597363
0.02040818916
0.02247943177
0.02260114224
0.01950254978
0.019069339
0.01878075237
0.01861328289
0.01856666504
0.01865913771
0.01888450063
0.0192425069
0.01972855106
0.02032571851
0.02103338337
0.02183932578
0.02266555985
0.02352721972
0.0243500401
0.02510263769
0.02577203291
0.02629673007
0.02672483815
0.02699788689
0.02713774482
0.02716318199
0.02707442447
0.02687477345
0.02659576731
0.02624588953
0.02335592673
0.02087705191
0.02237694638
0.02108839907
0.01900363332
0.01863919242
0.0184165914
0.01834295055
0.01840513813
0.01859103321
0.01889966826
0.01934788948
0.01990992504
0.02058077761
0.02133160767
0.02212039785
0.0229404293
0.0237503506
0.02451018549
0.02521181045
0.02577752395
0.02625380169
0.02659143306
0.02681954306
0.02690645776
0.02691359496
0.02678158539
0.026579239
0.02630638085
0.02161226868
0.02268124973
0.02275438733
0.01947622734
0.01915520407
0.01891938404
0.01881270789
0.01882311057
0.01894490899
0.01917756208
0.01951686211
0.02000798503
0.02056166546
0.02121252088
0.02194358689
0.02267487709
0.02342555935
0.0241379629
0.024807875
0.02540364793
0.02589272074
0.02628253111
0.02654331868
0.02672055779
0.0267694621
0.02672337713
0.02658465081
0.02639232985
0.02338812102
0.02073380827
0.02232178845
0.02116267264
0.01932208308
0.01900077162
0.01883131116
0.01880784156
0.01887140763
0.019084894
0.01939030245
0.01979398583
0.02032447383
0.02092458815
0.02155200899
0.02224883074
0.02297034822
0.02365104613
0.02431513204
0.02491758057
0.02543397155
0.02587899781
0.02621598253
0.02643511298
0.02658094418
0.02660858034
0.02656925406
0.02642638129
0.02123866464
0.0220120596
0.02244710851
0.02141646797
0.0193499342
0.01914196554
0.01904174336
0.01907306465
0.01916998061
0.01940708035
0.01972575364
0.02014937197
0.02066991863
0.02124750602
0.02187743685
0.02252804134
0.0231800795
0.02380501202
0.02440864224
0.0249443804
0.02541465311
0.02581199921
0.02610361136
0.02630852704
0.02642386129
0.02645881398
0.02641288544
0.02263665425
0.02053129347
0.02274732022
0.0227489153
0.01947591871
0.01921568952
0.01905539654
0.01901461558
0.01910088674
0.01928454982
0.01957990653
0.01994964025
0.0203896166
0.02091679568
0.02148883939
0.02208269724
0.02269561595
0.02329888113
0.0239135259
0.02444430415
0.02493248704
0.0253622382
0.02571734817
0.02597233598
0.02615987356
0.02625913849
0.02630783202
0.02463358681
0.02019203303
0.02181701574
0.02104972222
0.01957122768
0.01932917446
0.01923141023
0.01920029564
0.01930726185
0.01949302761
0.01977597448
0.02014516817
0.02056399203
0.02104057262
0.02157052312
0.02214953023
0.0227199279
0.02328798651
0.0238390844
0.02434890652
0.02480168758
0.02519792271
0.02554428234
0.02580996124
0.02600712224
0.0289286284
0.02503946326
0.02053519863
0.02098022495
0.02320175166
0.02139826834
0.01925099236
0.01918904086
0.01921701633
0.01933508497
0.01956438506
0.01986205664
0.02023754347
0.0206837882
0.02115498456
0.02169005767
0.0222252396
0.02278808156
0.02331670956
0.02383195167
0.02431538831
0.0247549964
0.025129099
0.02544930989
0.02807393121
0.030088278
0.02510684337
0.02152490955
0.02184109973
0.02230085854
0.02135249952
0.01959725875
0.01957417807
0.01963422051
0.01979191989
0.02002317117
0.02032669047
0.02068622801
0.02108999588
0.02153678769
0.02201181595
0.02250177092
0.0230029489
0.02347799117
0.02396013511
0.02439118061
0.02787996104
0.02900651065
0.02964230143
0.02520783924
0.02442331005
0.02036083624
0.02171546816
0.02153957118
0.02323821914
0.02168757151
0.01985100478
0.01992965831
0.02008753256
0.0203048246
0.02061204376
0.0209423907
0.0213176025
0.021725216
0.02217866415
0.02263459346
0.02309838169
0.02354577761
0.02609880304
0.0297520738
0.02600228739
0.02237174078
0.02668857943
0.02257348471
0.02132678352
0.02175085698
0.02135884636
0.02170023407
0.02301503362
0.02173266258
0.0202102967
0.02038078012
0.02058634374
0.02087095709
0.0211863612
0.02156802514
0.02195115879
0.02481363339
0.02626250632
0.0257790349
0.02705235384
0.0237676916
0.02172508006
0.02877457204
0.02331670951
0.02158462967
0.0217830942
0.02107176138
0.02137198532
0.0224822195
0.02305942122
0.02354636473
0.02378453423
0.02392528134
0.0240686214
0.02398048095
0.02584862578
0.02323455462
0.02369159545
0.02035771023
0.02448183035
0.0254033099
0.0231539438
0.02010381221
0.02256352933
0.02128336255
0.02163614688
0.02205377588
0.02238824438
0.02256642561
0.02239813187
0.02216850133
0.01947736248
0.02370255918
0.02122310069
0.02467836153
0.02230153785
0.01912784822
0.01968126967
0.02001859384
0.02001251738
0.01993677141
0.0195281657
0.02318254329
0.02038692816
0.02300554389
0.02398073648
0.01961707607
0.0189984758
0.01855916021
0.01823552734
0.01808909724
0.01807693014
0.01822118731
0.01856109806
0.01906746229
0.0197597098
0.02064130766
0.02164367714
0.02277802991
0.0239837985
0.02517544321
0.02631230679
0.02727890057
0.02804079214
0.02854962121
0.02882085197
0.02884243026
0.0286510288
0.02828606327
0.02779624497
0.02720384311
0.02654067269
0.02582111315
0.02507780409
0.02434174469
0.02000841734
0.02275692772
0.02381659269
0.01947751463
0.01882786085
0.01830382652
0.01799293354
0.01779114612
0.01779437281
0.01794762664
0.01827643041
0.01878723851
0.01946915475
0.02033317523
0.0213585685
0.0224969618
0.02369965521
0.02491421807
0.0260485383
0.02702556953
0.0277975363
0.02834218551
0.02864292794
0.02869824632
0.02853770618
0.0282014993
0.0277319038
0.02714841087
0.02649288279
0.02580886467
0.02510397961
0.02437048293
0.0194287837
0.02231678254
0.02348733293
0.01951391485
0.01886615117
0.01838280715
0.01803723068
0.0178572726
0.01783528519
0.01798167292
0.01829001377
0.01877610597
0.01943445761
0.02028323286
0.02127454363
0.02240004899
0.02358022923
0.02477376245
0.02587525107
0.02684709268
0.02762878564
0.02818742241
0.02849185036
0.02859669985
0.02845448875
0.02814749205
0.02771397602
0.02715574267
0.02652187672
0.02584605991
0.02515138375
0.02443728971
0.02338686035
0.02216033634
0.02348385963
0.01972671266
0.01910809397
0.01862344974
0.01830589596
0.0181299622
0.01809252883
0.01822227753
0.01851540693
0.01897135574
0.01959635549
0.02039453792
0.02133770158
0.02238704231
0.02350709395
0.02465876414
0.02574597473
0.02671171879
0.02749877399
0.02806097085
0.02838464288
0.02849407513
0.02840734819
0.028136228
0.02770281381
0.02718692557
0.02659433146
0.02595883172
0.02526928938
0.02458452269
0.02273398395
0.02304541117
0.01985744168
0.01918216973
0.0186674536
0.01830958573
0.01806089848
0.01801892328
0.01811107298
0.01835349769
0.01878681976
0.01937872382
0.02014715234
0.02103813761
0.02205976319
0.0231531448
0.02427523018
0.02535903749
0.02631450267
0.02710283795
0.02770914382
0.02809478754
0.02826354047
0.02823393834
0.02802527195
0.02766293591
0.02720027988
0.02664319183
0.02604453919
0.02541186387
0.02472527373
0.02092044665
0.02275321705
0.02154356603
0.01916186226
0.01855294725
0.01812878613
0.01785407716
0.01773036501
0.01779599696
0.01799856735
0.01839739206
0.01894640693
0.01966932352
0.02052449292
0.02152436654
0.02258820229
0.02368214037
0.0247425068
0.02571820172
0.02655082106
0.0272023745
0.02764144882
0.02788536425
0.02793998463
0.02780444045
0.02752765891
0.02713833813
0.02666633199
0.02612277749
0.02553908318
0.02491675582
0.02072811328
0.02300901275
0.02332397992
0.01942826168
0.01887180501
0.01842027532
0.01813043381
0.01799211188
0.01802142682
0.01818115833
0.01851558782
0.01901744118
0.0196561797