/*--------------------------------*- C++ -*----------------------------------*\
| =========                 |                                                 |
| \\      /  F ield         | OpenFOAM: The Open Source CFD Toolbox           |
|  \\    /   O peration     | Version:  v1706                                 |
|   \\  /    A nd           | Web:      www.OpenFOAM.com                      |
|    \\/     M anipulation  |                                                 |
\*---------------------------------------------------------------------------*/
FoamFile
{
    version     2.0;
    format      ascii;
    class       volScalarField;
    location    "3.2711";
    object      Tov_mixture;
}
// * * * * * * * * * * * * * * * * * * * * * * * * * * * * * * * * * * * * * //

dimensions      [0 0 0 1 0 0 0];


internalField   nonuniform List<scalar> 
60268
(
2388.143633
2583.360395
2714.391647
2840.772682
2951.813585
3046.527706
3127.089368
3189.659399
3234.467042
3263.766095
3244.135748
2348.915518
2556.434337
2711.426249
2835.985589
2943.717161
3037.92807
3119.699487
3183.759846
3228.937898
3259.00541
3238.159899
2521.635912
2693.655652
2811.775692
2922.683463
3019.676128
3100.275186
3163.990184
3211.659697
3217.956945
3205.606472
2454.332165
2642.164951
2776.24851
2886.378993
2985.165843
3065.841533
3128.165818
3179.553094
3172.532727
2542.702852
2727.625774
2845.850142
2944.577291
3027.041305
3060.094436
3093.219258
3119.165268
2588.258534
2733.714813
2826.857721
2919.10283
2958.052575
1944.818249
2187.437109
2358.989981
2535.735662
2763.951372
3043.703319
3207.231662
3341.084558
3443.497695
3515.05413
3559.508509
3578.699669
3575.48619
3554.018306
3472.783598
3415.923321
3383.679032
3345.684553
3304.769706
3250.714857
1957.310659
2173.524766
2346.197323
2514.243256
2729.512605
2965.908989
3177.962064
3312.304984
3415.701068
3488.833271
3536.335864
3558.445099
3556.0189
3536.675973
3461.803339
3406.38761
3374.199378
3337.190886
3297.030016
3245.200949
1925.812875
2149.609627
2323.664952
2492.845425
2673.620112
2890.482137
3142.696088
3277.183241
3382.65121
3457.960353
3506.626875
3529.373059
3529.571729
3473.716333
3429.664812
3387.637235
3359.344854
3323.663214
3275.550727
3224.654569
1916.652549
2129.389722
2298.394438
2468.204996
2632.124665
2834.361392
3047.73484
3233.612914
3339.168521
3415.5548
3465.746525
3491.747398
3492.365601
3433.497853
3391.477135
3364.467307
3337.335248
3304.681949
3251.427145
1855.037614
2066.762789
2245.460073
2415.729472
2579.512204
2738.667575
2917.022268
3105.473156
3262.40223
3345.326737
3399.656979
3383.038303
3385.777477
3370.588673
3347.363338
3332.977646
3309.612196
3278.036146
3228.874442
1996.587783
2205.807997
2368.124025
2527.475444
2673.9004
2817.055128
2976.567367
3105.41596
3190.159896
3253.948837
3285.063675
3297.49119
3299.966403
3298.921999
3290.636138
3271.063432
3234.118382
3191.765655
1931.795656
2130.755002
2294.816404
2449.065455
2594.616832
2728.307315
2852.386706
2965.696139
3051.812593
3120.314249
3171.937422
3208.816325
3233.612828
3240.089466
3235.091616
3207.769119
3171.957985
2020.153534
2216.680128
2373.64512
2511.197525
2643.062333
2762.950511
2868.870191
2958.055968
3033.177009
3089.500529
3131.423432
3159.735371
3173.347873
3158.755205
3131.350799
2093.935378
2279.675231
2423.995464
2551.030284
2669.997027
2774.67859
2865.346592
2942.737306
3003.970756
3053.08968
3088.977724
3090.26493
3072.684435
2161.428945
2299.214618
2455.631019
2583.335148
2686.30593
2778.088608
2856.396918
2919.628859
2945.561689
2971.451701
2986.330632
2314.004178
2442.619677
2535.477417
2625.786043
2711.527756
2785.031648
2822.835973
1638.429965
1855.995168
2036.4603
2314.000574
2672.009081
2919.366634
3152.444118
3358.878949
3534.652988
3677.468845
3783.284126
3851.929427
3888.666731
3896.448087
3876.915521
3838.267598
3785.248364
3720.804206
3649.520546
3575.26867
3499.729809
3424.731479
3331.872006
3265.369663
1620.471894
1844.382502
2031.493559
2299.978321
2665.319285
2914.550995
3142.942453
3349.193025
3524.132183
3664.294689
3770.16766
3838.312427
3874.981542
3883.067547
3863.723035
3826.748622
3774.502066
3711.49711
3641.144381
3568.364098
3492.796441
3418.67906
3327.439041
3260.597319
1614.186539
1831.778035
2010.812754
2279.292751
2630.42639
2878.753765
3110.323366
3316.72381
3493.54687
3634.769938
3741.597327
3813.14343
3850.335229
3860.480687
3843.48668
3806.642258
3755.442706
3693.795053
3624.54301
3552.780672
3479.028889
3384.107704
3309.356843
3249.407001
1598.518482
1810.258788
1988.763582
2245.372003
2582.623071
2825.851531
3051.927686
3255.479394
3430.709413
3574.309394
3680.39861
3753.033183
3795.955706
3808.071675
3793.187772
3762.992928
3716.518425
3659.089665
3593.407076
3523.858884
3451.561107
3356.205251
3283.708191
3233.145705
1549.455277
1762.053164
1949.804572
2182.580152
2462.586226
2759.59978
2986.419357
3189.359264
3362.454582
3505.938775
3614.51036
3692.944
3736.725212
3752.641222
3746.28905
3716.765875
3672.784644
3619.338581
3557.61771
3491.252534
3422.357834
3329.298215
3259.202072
3211.147281
1693.780712
1903.23215
2089.041192
2338.89227
2651.304857
2876.656057
3078.047396
3255.367115
3403.828855
3520.516758
3603.17561
3654.702862
3678.942338
3677.423312
3656.475401
3619.092725
3569.797079
3511.855299
3448.89836
3361.14285
3290.588369
3232.675576
3184.703523
1616.763322
1837.218706
2023.070146
2245.577191
2508.239299
2785.384986
2984.902885
3161.672716
3307.240836
3424.384339
3510.178505
3565.418214
3594.217154
3598.965575
3583.704437
3551.779805
3507.808318
3455.799262
3369.226329
3300.740988
3244.510301
3200.342364
3147.011067
1740.978045
1947.589419
2123.173397
2338.838221
2585.285728
2836.296156
3014.666568
3167.145858
3287.329171
3382.035657
3446.803183
3484.551042
3497.804052
3492.373968
3468.647527
3432.749435
3354.44071
3292.824181
3241.210542
3202.320485
3156.075689
3108.796268
1668.004635
1871.496128
2048.188478
2214.933592
2422.307743
2650.466821
2874.536858
3024.775599
3152.029636
3248.621416
3320.111348
3363.496021
3386.625708
3389.906829
3373.898244
3312.204589
3261.319242
3218.425767
3187.072055
3155.388786
3106.886317
1748.549933
1952.346539
2114.332226
2274.381911
2461.620337
2638.846642
2811.097652
2988.382899
3091.886468
3171.194406
3224.130096
3255.784524
3223.668304
3211.62594
3191.690679
3165.18475
3146.392597
3123.831338
3089.430338
3051.627771
1820.509608
2022.253141
2180.603439
2323.366317
2469.609611
2625.664659
2765.025337
2863.996549
2947.428564
3012.479575
3060.420391
3080.075709
3081.185813
3082.9703
3083.765727
3074.766521
3050.162558
3018.65146
1881.473554
2056.103345
2201.176884
2328.94173
2453.524056
2570.221169
2665.816977
2753.034056
2825.036846
2884.129048
2928.682399
2962.659951
2984.315057
2978.925006
2972.30292
2964.848145
1904.378743
2046.157696
2193.755485
2329.377866
2434.945414
2538.547126
2626.200626
2702.402421
2767.92292
2818.170691
2837.920318
2854.411011
2863.334902
2046.543199
2169.790627
2265.781262
2361.290456
2448.804342
2531.605097
2605.132315
2669.515733
2699.079682
1319.414517
1500.571355
1678.745859
1954.383834
2357.28477
2654.630503
2946.193583
3225.114123
3480.583153
3708.087059
3896.074902
4044.104703
4147.347644
4207.474306
4227.03698
4215.994389
4175.552459
4115.23678
4039.856573
3955.297897
3865.872558
3775.794323
3685.838488
3597.700982
3514.083815
3434.262291
3358.669111
1300.393452
1494.62318
1669.620546
1943.041346
2328.165735
2626.76677
2920.029224
3203.253097
3462.724334
3692.397112
3887.157307
4036.303972
4142.213874
4205.384128
4226.637171
4213.928151
4174.977215
4114.182211
4039.726758
3954.291844
3864.959061
3774.108061
3683.350855
3596.352052
3511.907848
3431.165185
3355.740528
1282.857956
1477.558509
1664.571893
1934.012806
2319.567675
2612.801925
2903.477188
3179.100161
3435.939112
3661.656124
3849.957642
3997.945135
4103.29242
4167.341228
4191.185315
4183.904033
4146.169855
4089.622725
4016.098175
3934.666922
3847.30386
3758.229854
3669.15061
3582.620671
3499.786892
3420.669033
3345.778705
1417.111562
1628.400439
1882.910053
2233.495233
2516.620658
2800.494216
3071.06686
3323.751134
3551.401752
3745.461938
3899.991201
4013.97931
4083.974163
4116.852919
4116.597356
4087.709406
4036.801564
3971.458568
3895.357108
3811.778492
3727.497905
3641.602332
3557.668466
3476.359918
3398.991376
3324.886666
1393.45797
1598.638571
1828.067104
2118.457709
2453.908873
2733.215476
2999.897745
3251.935629
3479.203795
3674.258066
3828.258594
3945.472795
4021.135136
4058.140844
4061.356846
4038.010726
3991.602843
3928.127589
3856.563568
3778.444074
3695.987699
3612.114821
3529.312701
3449.80389
3373.3737
3300.730582
1373.367852
1566.228921
1749.469552
2016.934756
2387.340705
2665.113801
2928.671673
3173.762016
3398.745882
3592.178336
3747.544186
3865.147496
3942.811593
3984.051646
3993.248206
3974.982074
3934.88557
3877.682696
3809.780274
3734.456406
3655.623031
3575.892808
3496.242491
3418.591777
3344.004874
3272.512693
1337.755725
1523.628255
1697.666195
1934.690387
2229.61792
2558.536305
2818.840822
3063.611789
3282.959977
3475.046995
3636.359354
3758.107582
3841.152165
3890.352225
3907.138954
3897.097864
3864.704729
3814.328795
3752.345462
3683.03262
3608.134197
3530.809413
3454.860448
3380.314493
3307.910597
3225.525824
1434.741639
1626.418039
1806.817947
2065.842762
2420.474371
2673.636226
2916.76204
3136.410686
3329.081652
3492.510561
3621.134967
3713.63139
3773.355053
3799.405681
3798.208168
3776.062706
3735.311765
3681.138979
3617.943312
3549.202468
3477.362786
3406.107539
3335.314026
3246.314665
3180.123268
1376.469274
1567.170227
1738.462859
1960.342478
2232.251836
2531.151386
2762.398651
2978.452581
3170.348787
3331.987954
3466.323012
3566.726075
3634.703204
3671.077501
3681.0397
3670.03608
3638.324461
3594.813635
3540.371335
3479.024124
3413.817001
3346.907146
3279.425459
3193.336421
3128.384056
1453.92004
1649.382157
1831.030406
2054.397317
2322.097641
2611.71774
2821.619484
3012.313375
3177.41892
3311.332851
3416.358955
3489.885685
3534.720177
3554.858706
3551.979087
3530.392108
3495.013991
3449.329013
3395.303503
3336.940562
3275.74836
3194.916346
3129.812691
3078.667534
1553.746537
1746.942941
1909.316494
2124.476153
2374.094104
2629.871041
2814.879531
2978.123723
3118.711895
3228.071428
3312.163844
3368.890178
3399.917196
3409.336493
3400.703447
3376.9718
3341.529465
3296.290953
3245.955927
3172.134086
3111.59889
3061.704485
3024.193269
1462.614622
1636.980068
1797.887053
1957.865527
2159.396911
2389.143256
2623.813271
2784.887804
2924.705881
3041.301442
3130.885799
3196.260434
3239.466695
3260.545381
3263.371945
3250.29448
3224.340502
3157.400157
3114.053197
3073.161462
3032.702381
2994.660475
2957.59749
1521.971297
1695.498714
1845.527695
1995.573696
2181.907488
2358.706022
2535.287609
2732.678007
2853.213233
2948.842026
3020.609524
3069.814417
3100.207269
3112.710603
3069.765569
3049.606188
3025.462053
2998.307011
2978.879206
2951.196656
2916.239767
1562.698312
1693.968842
1861.571802
2012.057221
2147.183935
2307.319661
2454.098924
2563.557705
2660.016244
2741.224582
2806.850365
2855.212466
2891.536786
2902.561015
2898.695979
2899.665088
2899.700317
2885.067018
2860.03154
1711.844908
1879.919675
2014.469467
2132.593594
2246.325288
2350.123233
2442.20844
2526.049577
2597.701699
2657.79814
2705.43907
2743.945444
2772.975736
2778.178837
2778.23096
2779.345194
1730.923203
1847.233329
1945.57084
2088.406043
2200.706737
2295.048383
2379.680505
2454.298571
2519.332636
2554.541098
2585.321703
2628.427369
2646.240053
1917.035854
2028.083569
2115.347702
2199.469576
2279.565963
2352.196124
2392.237115
1149.714527
1321.243642
1550.798331
1883.895877
2186.468354
2498.523139
2823.946942
3147.410992
3455.326795
3740.053076
3991.570665
4203.790425
4365.010722
4475.579264
4533.281403
4545.098721
4519.08072
4461.320243
4380.632602
4284.826578
4180.340128
4072.303461
3964.690801
3860.16593
3760.287685
3666.043939
3576.783929
3494.579547
3417.600918
1126.550053
1313.945688
1550.593645
1880.338994
2184.905121
2502.769484
2828.535418
3152.84116
3463.924762
3752.083956
4002.624589
4214.082145
4373.637221
4481.163491
4540.025604
4550.086886
4521.864616
4463.610296
4380.955409
4283.901707
4179.355998
4072.260973
3963.93682
3859.485808
3759.305046
3664.028708
3575.522254
3492.161081
3415.158396
1273.263261
1518.208126
1791.831724
2138.571848
2447.654594
2764.626079
3086.133213
3395.573437
3685.2819
3942.865578
4156.736832
4322.936559
4435.426205
4501.240297
4517.526662
4494.716913
4438.674265
4360.164502
4266.573529
4164.720668
4058.108037
3951.712395
3847.264616
3747.978754
3653.957444
3565.297473
3482.977727
3405.80537
1248.08645
1456.439186
1719.900917
2106.668
2418.974321
2735.803548
3051.800794
3359.593211
3640.750004
3891.137437
4103.811341
4266.833657
4381.517304
4445.453695
4464.460585
4444.776716
4395.089707
4320.31056
4230.814218
4131.794897
4029.412619
3926.193344
3824.629891
3726.753907
3633.810725
3546.731305
3464.804712
3388.571862
1233.28211
1425.87139
1678.626008
2053.096146
2357.946157
2671.693797
2985.280548
3284.917555
3566.603509
3816.190995
4029.424343
4194.778366
4310.759833
4378.947512
4402.609248
4388.760657
4343.41455
4273.76283
4188.499338
4095.153553
3995.742198
3894.273149
3794.325593
3698.510625
3607.458822
3521.51604
3440.687435
3365.126044
1198.231528
1379.965787
1616.575072
1953.103158
2245.172592
2546.328821
2852.191285
3149.166
3428.295416
3680.671977
3897.281867
4071.604656
4197.275548
4274.00107
4309.878404
4306.342397
4271.607056
4210.457388
4133.642309
4045.411254
3950.792244
3854.644197
3758.836942
3666.094925
3576.979529
3492.507451
3412.627527
3337.594846
1165.897006
1345.621323
1559.858957
1837.893291
2176.058887
2467.755325
2762.6662
3050.141719
3323.235174
3569.822678
3782.361636
3954.881146
4083.919105
4166.826667
4207.932637
4212.070201
4185.300313
4134.699648
4065.730368
3983.27296
3895.845922
3804.330291
3712.519432
3623.397102
3538.041809
3455.827954
3377.975559
3304.4317
1266.944807
1466.293894
1708.207687
2060.320844
2342.451394
2630.851825
2913.66172
3183.036418
3428.555715
3643.130548
3817.046483
3952.483047
4044.062876
4096.043496
4109.487887
4091.765087
4050.159182
3989.441656
3915.975935
3834.252593
3747.841541
3661.330039
3576.694052
3493.051032
3413.933999
3339.035305
3267.557534
1207.651132
1394.217448
1609.787215
1878.549568
2197.909476
2477.095677
2748.130824
3013.006022
3255.349139
3472.007698
3653.904921
3797.432052
3900.231422
3961.354693
3986.292031
3981.660762
3950.92176
3899.704363
3835.73853
3762.848808
3683.196061
3603.351811
3521.887022
3442.644295
3365.386729
3292.22023
3222.969675
1310.092248
1512.045514
1729.874346
2012.413768
2343.012843
2605.28414
2859.323631
3094.556922
3301.431953
3484.093707
3629.537461
3735.113997
3805.883413
3843.283566
3849.44732
3830.009923
3790.56009
3736.936875
3673.749919
3603.643167
3529.099915
3454.287151
3379.340375
3307.333628
3237.220035
3170.008852
1241.461513
1418.406295
1589.407833
1827.129975
2158.291335
2406.028107
2647.473802
2878.040706
3085.432478
3265.022958
3414.988614
3531.447208
3613.917182
3665.058097
3686.80342
3681.899141
3658.980234
3617.961901
3565.207364
3505.084695
3440.657212
3372.97881
3304.453499
3236.592199
3170.875566
3107.613874
1303.119881
1493.755782
1705.39823
1955.339561
2239.648579
2468.880016
2692.420348
2893.749782
3072.928028
3223.287688
3344.157754
3432.956686
3492.362755
3524.934646
3533.225329
3520.246931
3491.816284
3450.868489
3400.527225
3343.552762
3284.616551
3222.875658
3161.512339
3080.233542
3023.717394
1387.928911
1567.1439
1762.546564
1997.129743
2262.522351
2469.894263
2665.458474
2839.101898
2990.870309
3119.274464
3219.037835
3289.402431
3335.138718
3356.789273
3359.661074
3345.48526
3318.426051
3280.265762
3235.285669
3184.598031
3130.560329
3054.257599
2993.390522
2945.999236
1302.409763
1461.520569
1610.690739
1796.758083
1985.938915
2194.837641
2441.892726
2618.21186
2770.544184
2899.433553
3004.585696
3083.588532
3142.284326
3177.41951
3191.994179
3191.325916
3176.24401
3150.839049
3116.17319
3074.320073
3007.263497
2952.66344
2909.679992
2873.513235
1336.555357
1460.012207
1626.654692
1782.837293
1961.57756
2169.819246
2382.955575
2532.62519
2664.476779
2774.379784
2864.378813
2931.51426
2978.351263
3008.021793
3019.323244
3017.331575
3003.975144
2947.941242
2915.840967
2885.13518
2854.688698
2828.156417
2796.006895
1468.472368
1643.078294
1780.819986
1937.784596
2090.994255
2224.005623
2371.465166
2536.619628
2632.12646
2705.551545
2763.754172
2803.712569
2786.197634
2785.698209
2793.985385
2788.201781
2774.913172
2757.374084
2745.923399
2735.223451
1501.258633
1617.960363
1763.435925
1896.004705
2004.671642
2142.062205
2267.011635
2357.889068
2436.305786
2504.4887
2558.885167
2590.552253
2606.825534
2628.73973
2648.530897
2654.041611
2641.812892
1615.616927
1729.010981
1857.056203
1972.180055
2067.572345
2155.881048
2237.109327
2310.024057
2370.974984
2423.848125
2456.067951
2482.324835
2516.821309
2530.102471
1691.762807
1800.180683
1880.442532
1965.635201
2050.098775
2127.965014
2198.20749
2263.913545
2299.533948
1098.244796
1344.640172
1664.536856
1973.450046
2305.985207
2657.760436
3017.355627
3381.634839
3729.589886
4048.491717
4328.240319
4560.239856
4734.454958
4845.250338
4896.52238
4894.073153
4846.208956
4764.38493
4657.496845
4537.2639
4408.222134
4278.455181
4152.017113
4032.091743
3918.947215
3813.401217
3715.662398
3625.302061
3541.343869
3464.717536
1103.383939
1329.946027
1601.242953
1955.877896
2284.406155
2633.634067
2994.139379
3356.883742
3706.356718
4031.137815
4314.334636
4547.725993
4724.309598
4839.012033
4893.678064
4891.798731
4845.670961
4762.639714
4656.236941
4535.662528
4407.772055
4279.018065
4152.38557
4031.66875
3917.215059
3811.866445
3713.476137
3622.811826
3539.048414
3462.018213
1095.58703
1286.080146
1544.314814
1941.425812
2270.746355
2622.266464
2984.417515
3341.224081
3692.156193
4013.877741
4296.65703
4530.085125
4704.760422
4817.904132
4872.120248
4872.151592
4826.599709
4746.883249
4641.368197
4521.82813
4395.494059
4266.85181
4142.180376
4021.751725
3908.559535
3803.019797
3704.806362
3614.787505
3530.243146
3452.430558
1075.129319
1259.375063
1508.89279
1885.255416
2206.44806
2546.886403
2900.896345
3255.650187
3599.82983
3921.129331
4205.654132
4442.106937
4624.080749
4744.236623
4805.47845
4812.327928
4774.433543
4700.856848
4602.32
4487.233269
4364.715082
4240.727343
4118.362308
3999.910034
3888.858046
3784.783115
3687.55102
3596.946302
3513.629754
3436.523569
1060.321259
1235.51685
1469.922184
1822.700815
2132.138012
2461.296351
2802.81631
3146.688462
3485.405824
3799.715756
4082.033988
4323.960009
4512.057081
4641.401937
4712.022006
4729.849345
4701.517626
4639.033331
4547.743342
4440.44813
4325.515592
4205.41487
4086.362467
3971.030615
3861.981558
3758.689398
3662.779459
3574.029381
3492.163127
3416.173372
1028.804278
1195.646478
1427.854273
1767.164367
2072.206555
2393.926566
2731.723618
3069.974754
3405.549303
3717.885835
3997.922611
4237.162857
4424.695259
4558.138619
4632.976493
4657.310499
4634.957157
4578.997809
4493.953701
4392.402709
4280.390278
4165.623408
4049.986349
3937.761773
3831.66553
3730.068697
3635.416207
3547.547023
3465.672091
3389.362874
1139.008175
1370.060524
1636.740197
1978.051337
2288.119365
2610.624227
2937.563401
3261.289713
3568.143451
3850.319022
4090.235091
4282.934873
4423.03204
4508.940648
4543.7637
4534.887076
4488.466707
4415.219243
4324.01961
4219.606922
4110.343927
4000.126554
3892.018067
3788.804797
3690.203879
3597.840926
3511.484486
3430.5646
3356.17107
1107.721932
1284.224364
1521.504774
1865.338907
2162.920086
2472.860586
2787.184373
3101.558047
3403.113236
3681.266722
3921.078624
4118.261583
4265.758657
4363.328027
4410.504305
4412.602952
4380.730392
4319.976259
4238.471445
4144.839335
4043.431459
3939.298628
3837.817039
3738.768668
3643.429069
3553.925911
3470.135127
3391.870601
3318.261155
1059.422608
1221.431681
1437.792873
1713.751942
2055.654037
2357.407385
2664.883167
2969.817334
3263.175978
3535.324626
3772.558601
3970.123724
4122.761214
4225.944283
4280.391588
4295.507966
4272.52476
4221.474602
4150.77076
4065.858596
3973.40028
3875.954787
3778.919336
3684.196775
3593.001551
3506.233003
3423.88881
3347.047007
3274.991353
1164.793402
1340.301253
1572.454245
1910.533374
2187.591257
2476.405425
2762.763971
3042.453198
3307.537139
3542.374686
3743.417622
3905.619721
4022.087915
4094.300879
4128.039844
4124.015894
4090.072938
4033.914486
3962.067143
3880.806464
3794.380669
3705.231214
3616.563964
3530.402033
3447.706639
3369.358108
3294.676886
3224.636212
1087.843777
1251.520085
1455.107112
1715.91249
2030.396461
2307.058117
2581.134364
2847.953832
3103.600149
3335.506293
3536.364892
3699.18018
3823.38502
3905.524696
3950.435671
3962.053266
3943.744268
3904.41567
3847.205132
3778.153824
3701.97226
3621.164949
3538.885634
3458.10517
3380.939413
3305.737023
3234.429568
3167.526743
1174.527164
1344.728693
1546.976494
1809.200872
2121.720006
2380.187455
2636.059264
2879.682412
3105.916117
3305.43196
3472.860085
3607.006631
3703.978069
3762.316464
3787.916971
3787.280412
3761.673141
3717.941027
3661.898642
3596.005532
3525.607076
3452.642732
3379.332967
3307.527248
3237.01344
3168.90725
3104.19462
1094.814211
1254.042749
1411.342961
1632.317672
1946.947564
2191.294782
2431.52497
2663.877809
2880.777962
3075.334406
3242.759901
3378.348035
3482.401384
3553.459005
3595.017087
3609.35944
3599.262823
3572.858334
3531.57372
3479.151528
3420.006641
3355.862979
3291.02491
3225.332285
3160.180239
3097.441021
3036.775833
1149.477717
1308.392856
1495.635738
1722.411689
1989.62784
2214.802823
2436.59318
2645.725633
2837.751054
3008.58379
3150.284451
3264.67389
3346.982462
3401.780042
3430.719352
3436.465133
3422.607533
3394.180253
3354.648788
3306.4953
3252.279681
3194.635304
3135.721969
3077.058583
3019.060267
2946.656
1198.446101
1362.666165
1545.247851
1730.434453
1949.281701
2224.004505
2426.864646
2612.789533
2778.632896
2921.795649
3040.182851
3131.637817
3194.24408
3235.356734
3254.494064
3255.555624
3239.643469
3212.671818
3175.824315
3132.369137
3084.326931
3034.291771
2982.130949
2911.589359
2858.455068
1231.000991
1386.000164
1529.566339
1708.88048
1929.583167
2171.763392
2349.294341
2509.943281
2651.645937
2774.545036
2874.177991
2948.608235
3004.618082
3039.132844
3055.630533
3056.896678
3044.348125
3022.043118
2991.820492
2955.402384
2886.542837
2841.969038
2804.014338
2768.024987
1259.172712
1411.658788
1543.955335
1709.804306
1876.151482
2051.486308
2262.500354
2402.131812
2526.471723
2630.144125
2713.899422
2779.215025
2825.068045
2854.947223
2869.970146
2872.04794
2861.886697
2842.782088
2791.93835
2751.170505
2720.488206
2696.624828
2678.757075
1286.515809
1392.933408
1534.447972
1668.740127
1814.853094
1967.897393
2111.77755
2282.385634
2388.544466
2477.689207
2550.83476
2605.023588
2645.404405
2670.733954
2647.030169
2641.850585
2643.705003
2638.356812
2626.467794
2615.94924
2597.981214
1373.557464
1488.123254
1619.042058
1739.538746
1865.015246
1987.161445
2081.246069
2168.051262
2245.997181
2312.348444
2369.174786
2416.046875
2442.537211
2458.019825
2477.936192
2487.001634
2497.13015
2504.437462
1451.281191
1558.995097
1647.402709
1763.540816
1863.003088
1946.571236
2023.942301
2095.62504
2159.397341
2214.338791
2250.361389
2287.639355
2329.731019
2353.647905
1603.896256
1705.211433
1777.700527
1850.987526
1925.747662
1996.251301
2058.790218
2099.252536
943.1367582
1102.768582
1335.953701
1705.408848
2033.242142
2391.812039
2773.070288
3172.788693
3573.225294
3968.880357
4328.927884
4643.411709
4906.667947
5096.224727
5215.152519
5262.419183
5247.234806
5178.512102
5072.30809
4938.465355
4789.747544
4636.122708
4484.193833
4339.189037
4201.663357
4074.822574
3957.753762
3850.005378
3750.931437
3661.33977
3579.801193
3504.169846
942.1619846
1099.399892
1332.60631
1702.257865
2034.148511
2395.358759
2781.071574
3188.303007
3592.184803
3986.417324
4349.08645
4667.111799
4923.937741
5112.413926
5228.439105
5275.284026
5257.32582
5188.152896
5078.400578
4942.824101
4793.343224
4639.404645
4487.019574
4340.588444
4203.453332
4075.799162
3957.59264
3849.259598
3750.01674
3658.602488
3576.946928
3501.806278
941.6687824
1097.219225
1326.471222
1683.961434
2008.250842
2367.633292
2749.792174
3147.387533
3551.891512
3938.19887
4301.72158
4620.180561
4878.780857
5071.335896
5189.876557
5240.851319
5226.507425
5160.874381
5055.381482
4923.73017
4778.004892
4625.127172
4474.286222
4329.560903
4192.065298
4064.234891
3947.088284
3838.934436
3741.052327
3651.616138
3568.627587
3492.465926
917.1029734
1071.393979
1294.95971
1639.692739
1954.398391
2301.085217
2670.457014
3058.527794
3449.751463
3831.054741
4189.22022
4506.126072
4771.383238
4970.054133
5100.405371
5160.505316
5158.146132
5102.897217
5005.506297
4880.68407
4739.772618
4594.045199
4446.722264
4304.493675
4169.487682
4044.716522
3928.284456
3822.054512
3723.928348
3634.093643
3552.203815
3477.541501
1018.37826
1257.124829
1582.679318
1890.905728
2229.540544
2591.366107
2974.746339
3361.721033
3743.789049
4098.272813
4417.95108
4682.132486
4885.676894
5022.054426
5088.476339
5091.916519
5043.249017
4953.939315
4836.428474
4701.504231
4559.068529
4416.658629
4276.809009
4144.480447
4020.8963
3905.768299
3799.956321
3703.200517
3614.019522
3532.377583
3457.278113
1000.660708
1214.251944
1478.23426
1829.725123
2168.07749
2525.618813
2902.993436
3285.647226
3663.475947
4019.159541
4337.946599
4602.938065
4808.885988
4946.005862
5018.415072
5027.676069
4986.261223
4902.268858
4789.532965
4659.038266
4521.72051
4382.192316
4245.584849
4115.092641
3992.462899
3879.011392
3774.702542
3677.526902
3588.23502
3506.347113
3431.336391
981.623074
1148.783116
1382.459613
1745.850126
2060.155026
2404.979402
2769.513246
3138.316546
3501.405226
3851.028077
4166.983155
4434.183285
4646.88214
4793.567494
4878.678451
4901.117178
4872.825018
4804.739528
4704.406375
4585.857367
4456.791689
4323.57537
4193.413628
4068.981059
3949.918414
3839.209963
3735.859082
3640.973322
3553.144217
3472.206302
3398.757738
935.6533189
1091.76137
1312.322876
1643.030149
1940.60142
2268.938714
2612.908587
2961.258735
3309.503771
3647.996708
3958.044264
4225.169802
4439.626258
4597.258618
4698.035488
4739.133215
4727.644468
4674.211206
4592.054078
4488.590085
4371.43898
4249.216091
4126.964824
4008.175211
3893.89354
3787.107184
3688.417006
3596.489501
3510.531696
3431.621835
3358.986218
1030.592832
1244.558051
1495.48034
1825.70753
2135.234095
2460.320986
2797.826339
3137.095497
3464.436141
3771.731407
4039.904695
4261.864545
4427.396504
4538.12113
4592.881496
4597.319277
4558.910725
4488.404111
4395.627187
4290.0688
4176.788941
4060.90677
3947.536199
3839.352995
3736.311229
3640.041773
3548.846696
3464.949972
3387.342475
3315.6055
973.149692
1146.736156
1376.0216
1714.476507
2006.895864
2321.215313
2644.7572
2972.64034
3285.612174
3582.905569
3844.865482
4064.942888
4236.064886
4355.247026
4421.167317
4439.677406
4418.709888
4363.807304
4286.507902
4193.142235
4090.859923
3985.15459
3878.811394
3774.905857
3676.127736
3582.96421
3495.907708
3414.298675
3337.889823
3268.228185
1060.445965
1278.711515
1529.612754
1851.273079
2143.762781
2447.782974
2759.892615
3065.344701
3352.161175
3616.588999
3838.584752
4017.170023
4147.076402
4229.340962
4265.241819
4260.501063
4223.754016
4162.674652
4082.674227
3993.269484
3897.223491
3798.681325
3702.816211
3608.691557
3519.186663
3434.770398
3355.509898
3281.824194
3212.340369
996.6989037
1160.694871
1379.940854
1696.753578
1969.919013
2253.00163
2543.497294
2833.65143
3108.312631
3363.44065
3586.854083
3770.034326
3909.918801
4006.350432
4059.685435
4073.691192
4056.518315
4013.918026
3952.870426
3876.541847
3792.794123
3705.496525
3617.622337
3531.281451
3447.541769
3367.761226
3291.55899
3220.03699
3153.01914
1071.658162
1275.298044
1501.08428
1785.134543
2046.789392
2314.589312
2584.34917
2842.899924
3091.190101
3310.258456
3498.513491
3648.643888
3759.975079
3831.144291
3865.926399
3869.04437
3845.218883
3801.487356
3743.404566
3673.716766
3598.389097
3520.751679
3442.612425
3365.832751
3291.048553
3220.321499
3152.785816
3088.261615
1006.164431
1160.134785
1348.03037
1582.437407
1877.095981
2129.235384
2384.357566
2630.072446
2864.5961
3077.877498
3262.445977
3414.873504
3533.37061
3615.005269
3663.059565
3680.145533
3674.088074
3645.365937
3600.725021
3545.544202
3482.894074
3415.354882
3345.713149
3275.439847
3206.796088
3140.399676
3076.840436
3015.866087
1069.832087
1215.182621
1400.648987
1630.437455
1906.762178
2134.71867
2362.108889
2578.05688
2781.871532
2966.067138
3121.449407
3248.366669
3344.562775
3410.105633
3449.013273
3461.500416
3454.058229
3428.939606
3391.115856
3342.719928
3288.688676
3230.5404
3170.919243
3110.125201
3049.829959
2990.911547
2934.800294
1085.922795
1238.029323
1418.070752
1639.003353
1890.553342
2098.7289
2304.861626
2496.984117
2673.749883
2830.941819
2965.795364
3072.445549
3153.535202
3210.272338
3241.835581
3251.608617
3244.839897
3224.18692
3191.223875
3151.125165
3105.213093
3055.558956
3003.511589
2951.456259
2899.004779
2847.484998
1125.827325
1279.854897
1457.901697
1663.840967
1902.740953
2095.645008
2275.504529
2444.812247
2594.624033
2729.001611
2837.89855
2923.640564
2988.17434
3030.684179
3052.556231
3059.877033
3053.365498
3034.709536
3005.574539
2971.954949
2931.826767
2888.217563
2843.592548
2779.142834
2734.932942
1147.283624
1287.935041
1446.20482
1609.43691
1787.108251
2011.402929
2171.090489
2318.962876
2451.334006
2568.234837
2661.533619
2737.354227
2794.646853
2833.819184
2854.719524
2862.828499
2859.611572
2845.356313
2823.255111
2795.468887
2762.626814
2708.574008
2665.02278
2632.743177
1157.306843
1291.478137
1411.937395
1560.552182
1715.58598
1875.335616
2075.451585
2204.920309
2320.004204
2419.594906
2500.752326
2565.940033
2614.830908
2648.348185
2668.782718
2676.953845
2675.471811
2665.342049
2622.522076
2598.751181
2579.222514
2551.453241
2539.04707
1154.495027
1250.313064
1378.124718
1494.194722
1626.923376