/*--------------------------------*- C++ -*----------------------------------*\
| =========                 |                                                 |
| \\      /  F ield         | OpenFOAM: The Open Source CFD Toolbox           |
|  \\    /   O peration     | Version:  v1706                                 |
|   \\  /    A nd           | Web:      www.OpenFOAM.com                      |
|    \\/     M anipulation  |                                                 |
\*---------------------------------------------------------------------------*/
FoamFile
{
    version     2.0;
    format      ascii;
    class       volScalarField;
    location    "3.2711";
    object      Tov_N2;
}
// * * * * * * * * * * * * * * * * * * * * * * * * * * * * * * * * * * * * * //

dimensions      [0 0 0 1 0 0 0];


internalField   nonuniform List<scalar> 
60268
(
2380.241248
2576.330877
2707.39094
2832.93651
2943.999591
3039.140478
3119.684275
3183.054626
3228.258894
3259.312975
3239.644735
2341.365728
2549.526346
2703.477791
2828.299568
2936.252509
3030.657434
3112.60257
3177.171827
3222.794622
3253.601921
3232.836977
2513.550729
2685.794432
2804.301393
2915.399878
3011.35321
3092.268034
3156.51262
3205.914106
3212.528405
3200.453965
2446.918961
2635.527611
2768.275545
2877.965916
2978.025086
3058.228324
3121.270757
3173.60562
3167.482473
2533.962953
2718.65038
2837.368164
2936.611687
3019.083639
3052.197973
3086.064272
3111.578962
2578.640521
2723.992433
2816.684815
2910.35811
2948.923015
1939.832065
2181.57386
2352.943699
2531.219343
2758.898034
3040.323804
3202.911059
3336.44533
3439.752578
3511.405978
3556.301587
3576.513184
3573.942359
3553.305283
3472.327737
3416.175349
3385.238673
3348.846533
3309.352837
3256.863286
1952.991194
2168.204627
2340.998055
2509.180239
2724.840753
2960.670645
3173.204775
3308.114607
3412.136161
3485.338795
3532.930764
3556.275946
3554.552836
3536.096484
3461.653531
3406.876282
3376.390088
3340.424442
3301.586382
3250.349774
1919.914714
2142.546953
2318.233236
2487.13017
2667.815006
2885.591726
3138.169106
3273.052637
3378.15186
3453.785231
3502.83801
3526.711296
3527.80465
3472.218268
3428.468346
3387.328652
3360.946247
3326.763098
3279.660619
3229.835417
1910.623917
2123.137419
2292.484593
2461.865984
2625.97071
2828.48552
3042.6928
3227.42677
3334.422556
3410.525754
3461.77791
3488.164352
3489.825882
3430.96742
3389.245177
3363.482431
3337.910217
3306.658976
3254.189347
1849.99597
2060.977802
2239.202975
2410.198087
2573.958464
2732.761639
2910.427492
3099.430003
3257.874076
3340.889505
3395.667799
3379.348872
3382.029689
3367.21864
3344.960924
3332.244578
3309.824502
3279.564811
3231.510498
1990.494318
2199.718027
2362.667912
2520.740427
2667.263349
2809.30842
2970.529154
3099.386371
3183.99564
3248.404558
3279.300659
3292.297862
3295.486561
3295.336771
3288.043492
3270.523051
3234.478942
3193.121234
1926.530785
2123.559718
2287.558877
2441.656036
2587.516956
2721.287564
2845.265974
2959.193063
3045.201081
3113.620645
3165.516882
3203.606564
3228.829836
3236.511837
3232.560913
3206.40006
3171.571959
2013.932772
2209.704424
2366.70978
2503.653211
2635.829459
2755.37716
2861.153846
2951.032162
3026.59214
3083.333786
3125.969904
3154.94031
3169.349628
3155.473553
3129.196808
2085.519091
2272.035282
2416.15428
2543.653651
2663.036442
2766.714897
2857.149355
2935.647176
2997.046258
3046.961963
3083.176509
3085.057435
3068.351951
2153.331138
2290.346663
2447.279946
2575.720991
2677.509326
2769.281795
2848.057322
2912.105803
2938.606062
2964.691274
2980.647351
2305.559813
2434.593764
2526.370168
2617.218331
2703.515117
2776.907928
2815.171051
1633.899545
1852.332052
2031.611954
2310.242447
2669.66111
2916.415213
3150.342178
3357.427839
3532.822729
3675.622954
3782.360997
3851.400557
3889.064581
3897.488507
3878.329872
3840.839349
3789.538235
3725.669925
3656.003323
3583.198459
3508.443522
3434.640129
3342.459475
3276.377713
1616.648249
1840.517659
2028.647665
2297.033961
2662.503101
2912.040979
3141.484159
3346.397681
3521.334024
3663.124791
3768.854037
3837.228712
3873.906602
3883.152537
3864.746557
3829.169632
3778.173273
3716.661457
3647.66427
3575.805122
3501.347593
3428.064334
3336.987789
3271.195815
1610.13091
1826.665845
2006.255918
2276.214603
2626.283501
2875.760657
3108.773169
3314.286552
3491.472936
3632.370453
3739.236404
3811.409939
3849.19996
3860.742201
3844.670527
3808.694897
3758.39805
3698.045133
3630.045287
3559.472986
3487.092192
3392.358138
3318.550629
3259.698886
1594.575201
1804.612421
1983.647398
2241.341432
2578.516819
2822.278212
3048.594056
3252.852418
3428.183047
3571.27649
3677.90686
3750.913752
3794.69919
3807.536285
3793.708083
3764.295119
3719.025328
3662.668339
3598.128679
3529.638579
3458.529432
3363.750389
3291.890158
3242.716203
1546.302539
1756.906965
1945.811809
2177.570531
2458.084199
2756.077632
2982.626749
3184.739472
3358.700621
3502.441884
3612.566707
3690.963798
3734.577342
3751.760626
3746.333754
3717.530777
3674.818503
3622.837088
3562.286261
3497.065413
3429.066346
3336.650174
3267.43226
3220.729866
1688.692097
1898.530917
2084.474584
2334.477623
2648.034312
2873.193836
3074.320124
3251.391768
3400.181624
3517.328583
3600.501691
3653.171156
3677.045493
3676.095368
3656.450115
3620.280467
3572.020998
3515.069106
3453.203148
3366.02966
3296.599724
3239.772474
3193.333874
1610.837017
1832.43191
2018.471631
2240.227937
2503.30963
2780.535048
2980.666114
3157.88254
3303.377039
3421.063219
3506.776935
3562.65562
3591.747091
3597.529824
3582.855601
3551.619372
3508.800038
3458.238504
3371.736892
3304.331976
3249.21217
3206.596158
3154.600477
1735.202357
1942.659244
2117.853386
2334.15537
2580.549428
2832.070329
3009.66954
3163.16706
3283.002392
3378.264972
3443.601666
3481.521232
3495.022523
3490.755397
3468.243791
3433.296279
3354.996372
3294.248341
3243.589646
3205.903956
3161.2772
3115.299904
1662.302385
1865.96156
2042.609742
2208.865617
2416.402278
2644.964153
2869.83228
3020.198985
3146.452243
3242.881759
3316.138126
3358.97222
3383.243271
3387.621426
3372.039774
3310.765366
3260.857968
3218.736923
3188.133949
3157.837301
3110.087534
1742.246032
1945.84497
2108.732824
2267.58731
2454.779421
2632.248087
2805.064041
2982.382022
3085.49269
3166.074553
3219.787882
3251.86244
3219.211471
3208.339642
3188.591061
3162.868311
3145.513118
3124.551399
3090.898143
3053.493689
1814.378425
2014.674803
2174.235087
2316.52098
2462.811574
2619.52647
2758.399199
2857.765984
2941.733191
3006.713937
3054.949148
3075.078728
3076.000274
3078.76342
3079.951
3072.432647
3049.211301
3019.174698
1875.280283
2050.363435
2194.348937
2322.274542
2445.913231
2562.602242
2658.361581
2745.874612
2817.872505
2877.412901
2921.731517
2956.845088
2979.604196
2974.730073
2968.742461
2962.48447
1896.820483
2038.875698
2186.220903
2320.724163
2427.180645
2530.714685
2618.253757
2694.406393
2760.402484
2811.275037
2830.934118
2848.119132
2857.984779
2039.885389
2161.590018
2257.00497
2352.352827
2440.24883
2522.843877
2596.754934
2661.466707
2691.173716
1315.409925
1497.482152
1674.86485
1951.177288
2354.515879
2652.965893
2943.705233
3222.919317
3478.864838
3707.314938
3895.30572
4043.24351
4146.973095
4208.570272
4228.903994
4218.57364
4179.819377
4120.801659
4046.833981
3963.576826
3875.785759
3786.918481
3698.462029
3611.474672
3528.998128
3449.979914
3375.355905
1296.457626
1490.31565
1665.115699
1939.987621
2326.2089
2625.540396
2918.172895
3201.367552
3461.953835
3691.887257
3886.193872
4035.948828
4142.639201
4206.061161
4228.126193
4216.442341
4178.825266
4119.389851
4046.668228
3962.575291
3875.014941
3785.105172
3695.5388
3609.820014
3526.26694
3446.779626
3372.417584
1278.867677
1473.716632
1660.76536
1930.408772
2315.947638
2609.765916
2900.636697
3176.255432
3434.221011
3660.134907
3848.626093
3997.0501
4102.733007
4166.85594
4191.649374
4185.836362
4150.098992
4094.410179
4022.294915
3942.113092
3856.774387
3769.147544
3680.615712
3594.770399
3513.442964
3435.590764
3361.425304
1413.447387
1625.468955
1880.056494
2229.593383
2513.87833
2798.559998
3069.579822
3322.705975
3551.148274
3744.867253
3900.296712
4014.223467
4084.538047
4117.847125
4119.351223
4091.099548
4041.602562
3977.048336
3902.382536
3820.287882
3737.064733
3652.461336
3569.995131
3489.400958
3413.025241
3339.57346
1390.062807
1594.881052
1824.754358
2114.565413
2451.370735
2730.21624
2998.408147
3250.695985
3477.914945
3672.900325
3827.143523
3945.506097
4021.946348
4058.763203
4062.572522
4041.098152
3995.870339
3932.917956
3863.240156
3786.584
3705.281342
3622.737481
3541.119423
3462.904891
3387.225765
3315.475604
1369.740309
1561.672825
1745.437446
2013.67679
2383.872938
2662.311027
2926.291781
3171.249042
3395.442759
3589.66877
3745.248271
3863.620237
3941.689447
3984.075749
3993.990764
3976.279189
3937.423328
3881.694573
3814.93978
3740.615389
3663.498197
3584.818259
3506.514572
3430.068317
3356.196947
3285.90362
1334.511145
1518.990444
1693.691543
1930.01372
2225.676597
2554.962141
2815.181898
3060.841949
3280.2334
3472.179518
3633.829215
3756.271902
3839.662766
3889.102711
3906.63054
3897.485439
3866.268264
3817.370582
3756.772793
3688.375932
3614.679178
3538.810502
3464.005516
3390.474972
3319.074187
3236.864076
1430.892808
1623.020232
1802.763198
2061.555263
2417.381808
2670.418641
2913.957774
3133.855428
3325.382835
3489.865877
3618.686224
3711.270166
3771.269674
3797.837431
3797.358064
3776.37641
3736.927115
3684.119626
3622.071331
3554.668505
3483.899183
3413.979576
3344.695805
3255.717561
3190.147912
1372.460151
1563.122106
1734.109987
1955.715438
2228.139115
2527.162002
2758.605558
2975.198985
3167.042931
3329.053447
3463.600418
3562.793839
3632.332613
3668.803339
3679.556933
3669.798765
3639.049518
3596.921144
3543.543361
3483.402042
3419.143028
3352.984594
3286.675988
3201.166101
3137.213435
1450.01236
1644.683789
1826.300692
2049.543011
2316.387925
2607.200409
2816.883211
3007.99408
3171.984578
3306.448849
3411.52113
3486.015152
3531.155577
3552.268878
3550.215565
3529.523227
3495.194002
3450.449238
3397.769655
3340.400994
3280.250253
3199.6998
3135.781221
3085.565304
1548.617723
1742.043367
1903.904624
2119.325742
2369.489539
2625.119196
2810.536264
2973.587591
3115.143022
3224.706075
3309.041924
3365.320864
3396.914873
3407.346954
3399.407131
3376.539842
3342.068717
3297.597333
3247.924499
3174.616919
3115.099314
3066.561805
3030.169425
1457.809625
1632.460724
1793.190295
1952.697909
2154.310967
2383.86264
2619.220282
2780.381214
2920.24299
3037.025134
3126.509721
3191.445247
3235.506996
3257.054667
3260.72072
3248.657265
3223.292725
3156.560175
3114.131295
3074.218483
3034.804767
2997.261539
2961.60136
1517.457513
1691.04692
1840.478262
1990.544339
2176.912415
2353.39752
2529.745425
2726.988917
2847.709798
2943.941517
3015.152055
3064.671629
3096.224743
3109.288358
3066.168813
3046.574523
3023.430966
2997.04948
2978.327034
2951.663407
2917.58548
1556.157507
1686.875511
1855.43588
2006.141886
2141.516671
2300.882504
2447.291772
2557.249747
2654.18726
2735.260408
2800.857997
2848.918429
2885.598092
2897.323648
2894.114728
2895.668442
2896.791482
2882.630419
2858.512511
1705.363533
1873.85939
2006.915312
2124.966392
2238.823511
2342.352644
2434.714098
2518.380387
2590.330691
2650.827773
2698.701449
2737.644469
2766.903281
2773.079905
2773.823097
2776.171858
1723.888329
1839.837562
1937.941854
2080.984588
2192.808924
2287.373164
2371.383318
2446.908281
2511.818444
2546.979249
2577.973539
2621.238714
2640.349891
1909.364801
2020.046613
2106.571256
2191.227476
2270.738236
2344.223763
2383.844811
1146.363697
1317.954034
1547.849586
1881.031085
2183.996475
2497.879178
2822.717713
3147.043036
3454.818811
3740.77011
3993.68905
4206.039309
4367.122696
4477.750751
4536.921907
4549.944681
4525.075817
4469.157427
4389.808091
4295.744992
4192.855271
4085.813253
3979.847544
3876.984697
3778.205426
3684.698073
3596.514632
3515.034599
3438.834366
1123.719541
1310.77061
1547.553104
1877.144084
2182.457584
2501.730571
2827.663683
3153.233445
3464.404273
3751.974449
4003.315146
4215.04494
4375.656748
4483.997612
4542.836286
4554.094742
4527.391598
4470.606291
4389.708184
4294.246107
4190.90243
4086.088878
3978.859139
3875.310028
3776.441163
3682.354244
3594.686491
3511.946584
3435.594307
1269.51197
1514.387443
1789.658213
2135.615641
2446.138627
2763.056917
3085.648535
3395.2806
3686.201548
3943.731039
4157.982443
4325.249901
4437.813623
4503.948273
4521.373955
4500.183265
4445.569347
4368.149867
4276.296274
4175.963832
4071.360533
3966.17834
3862.595844
3764.635213
3671.954074
3584.079661
3502.153269
3425.524699
1245.282494
1453.88117
1717.060607
2104.859148
2416.782177
2733.24047
3050.450147
3358.351926
3640.33472
3890.822136
4104.20517
4268.268461
4382.938702
4448.012389
4467.832177
4449.486893
4401.105265
4328.052686
4239.806151
4142.263478
4041.455517
3939.668844
3839.619602
3742.67742
3650.849081
3564.726662
3483.35163
3407.910119
1231.130802
1423.925123
1675.633444
2049.615636
2356.714839
2669.509383
2983.643166
3284.662857
3566.55023
3815.14201
4028.500172
4194.664686
4311.583588
4380.974822
4404.897178
4392.238051
4347.911777
4280.062875
4195.869852
4104.356572
4006.87416
3906.833564
3808.118857
3713.978788
3623.9597
3538.84487
3458.874572
3383.833001
1194.474461
1377.84385
1613.064523
1950.057437
2241.794063
2544.721267
2850.60628
3149.454808
3427.849343
3680.009545
3896.786126
4071.875397
4197.971997
4275.663252
4311.860592
4309.751093
4276.071315
4216.268175
4140.806355
4053.99934
3961.095944
3865.944718
3771.427404
3679.825786
3591.824908
3508.243948
3429.489592
3355.083452
1161.62227
1341.725124
1556.634849
1835.670104
2173.701799
2464.972843
2760.394975
3048.254243
3321.194884
3569.142043
3781.060729
3952.964122
4083.749867
4167.214069
4208.322403
4213.702541
4188.814503
4139.458505
4071.349484
3990.65956
3904.784567
3814.571046
3724.159396
3636.187153
3551.846033
3470.673597
3393.70155
3321.30675
1263.305396
1463.108919
1705.276298
2057.465982
2339.193181
2628.724987
2912.255293
3181.192212
3426.458687
3640.967215
3816.112941
3951.553288
4042.716973
4095.004808
4110.396359
4093.365582
4053.353809
3994.050227
3921.705388
3841.174527
3756.578221
3671.378943
3587.843078
3505.504921
3426.905297
3353.050532
3282.377533
1204.383887
1390.504659
1605.549305
1875.894045
2195.592647
2474.486291
2745.498372
3010.543796
3252.257394
3469.405664
3651.013038
3795.686844
3898.709768
3960.254854
3986.249952
3982.452843
3952.972606
3903.030627
3840.050062
3767.975093
3689.589686
3611.129643
3530.849285
3452.844885
3377.022252
3304.598788
3236.059125
1306.876477
1509.280236
1726.679835
2008.681158
2338.437526
2601.628262
2855.635027
3091.609723
3297.882006
3481.051153
3626.255081
3732.432678
3803.365971
3841.600479
3849.03948
3830.996896
3792.548356
3739.556086
3677.379096
3608.195099
3535.100123
3461.842266
3388.157433
3317.17636
3248.077452
3181.771021
1237.654704
1413.785803
1587.079761
1823.201602
2154.359079
2402.027145
2643.5072
2874.265418
3081.991389
3261.977792
3411.992035
3528.77401
3611.704222
3662.737119
3684.908287
3681.351377
3659.157592
3619.232847
3567.900914
3508.603711
3445.023645
3378.766834
3311.214208
3244.633598
3179.586328
3117.050274
1299.209808
1490.439966
1701.799011
1952.062025
2235.946072
2464.622585
2688.299273
2889.029669
3068.479918
3219.495452
3340.186369
3429.231522
3488.59947
3521.284916
3530.668756
3518.337114
3491.455547
3451.343271
3402.198362
3346.361681
3287.90021
3227.713826
3167.575841
3086.637691
3030.77717
1384.047012
1562.5043
1758.725019
1992.565872
2258.205337
2465.906062
2660.597682
2833.67668
2986.216238
3114.415919
3215.47621
3285.430514
3331.721163
3354.083371
3357.147385
3343.292299
3317.472803
3280.193122
3236.41291
3186.433717
3132.952234
3057.748657
2997.607132
2951.202586
1298.106625
1455.911434
1606.039661
1791.879272
1981.546304
2189.970853
2436.547858
2612.907428
2765.086142
2894.788538
2999.593123
3078.902153
3137.397412
3172.294119
3188.259058
3188.563303
3173.433792
3149.382616
3115.467363
3074.46811
3008.030315
2954.345536
2912.539177
2876.858964
1330.932175
1455.748892
1621.542184
1776.185703
1955.995747
2163.812896
2377.759062
2527.82371
2659.35199
2768.693186
2858.673431
2926.411118
2973.516104
3003.327932
3014.503127
3013.226231
3001.119905
2945.45274
2913.870577
2883.742754
2854.152878
2828.606041
2797.236298
1463.085176
1636.652144
1775.284555
1931.927102
2085.012308
2218.615951
2365.918486
2531.313609
2626.166782
2700.012683
2758.110199
2798.719393
2781.658606
2780.649114
2789.479677
2784.796952
2771.608104
2754.367709
2744.152122
2734.621482
1495.532933
1611.89529
1757.462751
1889.494112
1997.60467
2134.748594
2260.114725
2351.504814
2429.1958
2498.400233
2552.31827
2584.052086
2600.310502
2622.845322
2643.360608
2649.361722
2638.078389
1609.440076
1721.794026
1849.031959
1964.655591
2059.570947
2147.82688
2229.378049
2302.325308
2362.715162
2415.757655
2448.148479
2475.021286
2510.719088
2524.385064
1684.254969
1791.497044
1871.907435
1957.540848
2041.383093
2119.703401
2190.028579
2255.272412
2291.335696
1095.72529
1341.452432
1663.435709
1971.525905
2303.94338
2656.206622
3018.470555
3381.811209
3730.71349
4050.233438
4330.352303
4564.305293
4738.077608
4849.503552
4902.366424
4902.273803
4855.493655
4775.960547
4670.274633
4551.850438
4424.502362
4296.345348
4171.394921
4052.987273
3941.017374
3836.002428
3739.19559
3649.560789
3566.198376
3490.055664
1099.617751
1328.212767
1598.648042
1953.594181
2283.189732
2633.696118
2994.314707
3357.112583
3709.142435
4033.045937
4317.020206
4551.104487
4728.560763
4844.241601
4899.725535
4898.446634
4854.56636
4772.736071
4668.454628
4550.117449
4423.759014
4296.831334
4171.299443
4051.634804
3938.321606
3834.024926
3736.440749
3646.432163
3563.176542
3487.049918
1091.377343
1282.943719
1541.086122
1939.609863
2269.999226
2621.512447
2983.784538
3342.26458
3692.849279
4015.291058
4298.460526
4532.494897
4708.692745
4822.433044
4877.859156
4879.264807
4835.309017
4757.633714
4653.346547
4535.363773
4410.908269
4284.154236
4160.751064
4041.136641
3929.195689
3824.953811
3727.59997
3638.20516
3554.296598
3476.921779
1071.361141
1256.737938
1506.828635
1884.67789
2205.017495
2546.958743
2900.365875
3256.409727
3601.016124
3922.688778
4207.856336
4444.464418
4627.127903
4748.611734
4811.220937
4818.353465
4781.721663
4710.015819
4613.364119
4500.119392
4379.377437
4257.188925
4136.295323
4019.045136
3909.152078
3805.995857
3709.536027
3619.436592
3537.057427
3460.358909
1057.168982
1232.571666
1467.683561
1821.33606
2129.501452
2458.990734
2803.421756
3146.406357
3485.877711
3801.382837
4083.470689
4326.53864
4514.974066
4645.622872
4716.656468
4735.321656
4708.441313
4647.475351
4558.211622
4452.609852
4339.5663
4220.85497
4102.886551
3989.234615
3881.911786
3779.476594
3684.243072
3596.112968
3514.70809
3439.35262
1026.414648
1193.466794
1425.061601
1765.013948
2070.286717
2392.312913
2730.154799
3070.681328
3405.956144
3718.67585
3999.536316
4239.637688
4425.980388
4560.091393
4636.623618
4661.361776
4640.033265
4586.049771
4502.429723
4402.804452
4292.345634
4178.963002
4065.032409
3954.235659
3849.494607
3748.813698
3655.148428
3568.173833
3486.987617
3411.253132
1136.151701
1366.277522
1634.149744
1975.76986
2287.033195
2610.007738
2936.151932
3259.362928
3567.875832
3850.266078
4091.538405
4284.08945
4424.833041
4510.971611
4547.052491
4539.629762
4494.119591
4422.848808
4332.896416
4230.331356
4122.693647
4013.536991
3906.992324
3805.069759
3707.724377
3616.290337
3530.800613
3450.508238
3376.848422
1104.914793
1280.805152
1518.628081
1863.26725
2161.343487
2470.636557
2786.053967
3101.761124
3403.40128
3681.346179
3921.316902
4118.386088
4266.871315
4363.593102
4411.70028
4415.960043
4384.688292
4325.780166
4245.77254
4153.781977
4053.766175
3951.166656
3851.08991
3753.502205
3659.177785
3570.78331
3487.533713
3409.937573
3336.944097
1055.68626
1219.757951
1434.469229
1711.80799
2053.516825
2355.101285
2663.307993
2968.278756
3261.975077
3533.388152
3770.710791
3969.178728
4121.701145
4225.665186
4281.087428
4297.166554
4275.139768
4225.499488
4156.480679
4073.149702
3981.799028
3885.773247
3790.169777
3696.626981
3606.770256
3520.925788
3439.38539
3363.478843
3292.286668
1161.601092
1336.653948
1568.642385
1907.520322
2184.625594
2473.386511
2759.967232
3039.168791
3306.322661
3540.786321
3742.776214
3905.465171
4021.450601
4094.823251
4127.824535
4125.741181
4092.942287
4037.502131
3967.035253
3887.293767
3802.215475
3714.575222
3627.317863
3542.254666
3460.649369
3382.915588
3308.999742
3239.913342
1084.560101
1248.045631
1451.456146
1713.290866
2029.005175
2303.364774
2579.298957
2845.030814
3101.671721
3332.660844
3535.078084
3698.818595
3823.746763
3905.020329
3950.766995
3962.325286
3945.045992
3906.814912
3850.475018
3782.317724
3707.122847
3627.811591
3547.054384
3467.862498
3392.010873
3317.103095
3246.97487
3180.688115
1170.004903
1341.077283
1544.195796
1806.695034
2119.005566
2378.228977
2633.683013
2877.227296
3103.705438
3302.867595
3470.028555
3604.027355
3701.416495
3760.452785
3787.101585
3786.868288
3762.25063
3719.468534
3665.073854
3600.285613
3530.875281
3458.596378
3386.991758
3316.094936
3246.611063
3179.418347
3115.742457
1091.217262
1248.754114
1408.002763
1628.73546
1943.727126
2187.879158
2428.3235
2660.110038
2876.874289
3071.320074
3239.658479
3375.136704
3479.244123
3550.104849
3592.100106
3607.320875
3598.309539
3572.875097
3532.063697
3480.955739
3423.078199
3360.178462
3296.634125
3232.093542
3167.344438
3105.483478
3045.835562
1144.896385
1304.512187
1491.096305
1717.698154
1986.078644
2211.204924
2432.557963
2641.591956
2833.944406
3004.760057
3146.330819
3260.682347
3343.32451
3398.479288
3426.952909
3433.597734
3420.1558
3392.84018
3355.007105
3307.623621
3254.690864
3197.830676
3140.109023
3082.707219
3025.029418
2952.844644
1194.801142
1357.973903
1539.905602
1726.550297
1944.534869
2218.464253
2422.64839
2608.796148
2774.250952
2916.820818
3035.39481
3126.650307
3189.474776
3231.468276
3250.845887
3252.411666
3237.092748
3211.288409
3174.917515
3131.885402
3085.492299
3036.394495
2985.136522
2914.970048
2862.57249
1226.009728
1381.209289
1523.920635
1704.654085
1924.389372
2166.273398
2344.146685
2504.637141
2646.934343
2769.444314
2869.830418
2944.318551
2999.150376
3034.716574
3052.059165
3053.282614
3041.410176
3020.33824
2990.739888
2954.914367
2886.268566
2842.415541
2805.401958
2770.435097
1254.01589
1406.777874
1538.731441
1704.821373
1870.204763
2046.025665
2255.779986
2395.983708
2520.613856
2623.988793
2707.933345
2774.024259
2819.101202
2849.366589
2865.200586
2867.920231
2858.030141
2839.647636
2789.60747
2749.205315
2718.59563
2695.535451
2678.788038
1281.879928
1387.567025
1528.614843
1663.48739
1809.019994
1962.041883
2105.09324
2275.049353
2382.956335
2470.511038
2544.305205
2598.635832
2639.512296
2665.002231
2641.598964
2636.48776
2639.122989
2634.478175
2622.986198
2612.951172
2595.72224
1367.599383
1482.773735
1613.185178
1733.110275
1858.823768
1980.574427
2074.389437
2160.991558
2238.791468
2305.633516
2362.474315
2409.966444
2436.570412
2452.430755
2472.649459
2481.877051
2492.692754
2500.871197
1445.737163
1553.37509
1640.928231
1757.498654
1855.809804
1939.430023
2016.089534
2088.288938
2152.269657
2207.232176
2243.159379
2281.118622
2324.041546
2348.61365
1596.541575
1697.694829
1769.252186
1842.749383
1917.877411
1988.305159
2050.544664
2091.527027
940.2536552
1099.758293
1333.479221
1702.814772
2032.231598
2391.148719
2772.685987
3173.761132
3575.766161
3972.111476
4333.011914
4648.408316
4912.036742
5103.068625
5223.749098
5271.381728
5258.852245
5191.861928
5087.930842
4955.495155
4808.871021
4656.847804
4506.768529
4362.844286
4227.167001
4101.264632
3984.707324
3877.728631
3779.153629
3689.718736
3608.823862
3533.265755
939.4324161
1097.213242
1329.249587
1700.696721
2033.587286
2394.647776
2782.727908
3189.175858
3593.744416
3988.533963
4353.462739
4671.457451
4929.493557
5119.072812
5236.462892
5284.011349
5267.727564
5200.724691
5093.220484
4959.620372
4812.132379
4659.791164
4508.908442
4364.279501
4228.281922
4101.303632
3983.908436
3876.383564
3777.693809
3686.973957
3605.130485
3530.422977
938.9365724
1094.763105
1322.956733
1682.556923
2007.501997
2368.322843
2750.572781
3147.61363
3553.616818
3940.520149
4304.647792
4622.427323
4882.680163
5077.560579
5196.817927
5249.880376
5236.994079
5173.155413
5069.613303
4939.227841
4795.341781
4644.904773
4496.317553
4352.747266
4216.409129
4089.379719
3973.089544
3865.398017
3768.42397
3679.486803
3596.819262
3520.583993
914.8125905
1068.041695
1292.243376
1637.494243
1952.205327
2298.640228
2670.764782
3059.328483
3450.064901
3833.252488
4191.829547
4509.546978
4775.726029
4975.330345
5107.403052
5169.041048
5167.973736
5114.128308
5019.275029
4895.985414
4756.992009
4612.783894
4467.338596
4326.43659
4192.54486
4069.239465
3953.391729
3847.825536
3750.162973
3660.667931
3579.343301
3505.255201
1014.678337
1254.978664
1581.163069
1889.091535
2228.513203
2591.084479
2974.577988
3363.623067
3746.234527
4099.877218
4421.559093
4687.100514
4891.735434
5028.330736
5095.584142
5100.433362
5053.458422
4966.053768
4850.32661
4717.580612
4576.647631
4435.768473
4297.840532
4166.598392
4044.121733
3930.15799
3824.779969
3728.305394
3639.691281
3558.787441
3483.928768
998.3826772
1211.684615
1476.878898
1829.261311
2167.0731
2524.966012
2903.063631
3285.630143
3663.865123
4020.409648
4339.649881
4605.599881
4812.223258
4949.940649
5023.74657
5034.333905
4993.730843
4911.837582
4801.218655
4672.489934
4537.211609
4399.120609
4264.440069
4135.615158
4014.031577
3901.438176
3797.967604
3701.435585
3612.673004
3531.332664
3456.675507
979.1556192
1146.687996
1380.176965
1743.382631
2058.004153
2404.725024
2769.53821
3137.797426
3502.231029
3851.513537
4168.965746
4435.758042
4649.406282
4797.1204
4882.739678
4906.485198
4879.733087
4813.200611
4714.89086
4598.046445
4470.441541
4339.39618
4211.185553
4087.792035
3969.653646
3860.177631
3757.590853
3663.225117
3575.933122
3495.932792
3423.230205
932.5131961
1088.923268
1309.257016
1640.966914
1938.987492
2267.416542
2610.090671
2961.27986
3308.396654
3647.89084
3958.68909
4227.171661
4440.829462
4599.482681
4701.390971
4742.867671
4733.103191
4681.981617
4601.277943
4499.158497
4383.875978
4262.997399
4142.379582
4025.306698
3912.082304
3806.115502
3708.440374
3617.058767
3532.205053
3453.731213
3381.260428
1028.049656
1241.466594
1493.283137
1822.265323
2133.75183
2460.025206
2796.601365
3136.04924
3464.308276
3770.714938
4039.525047
4263.26019
4427.645596
4540.013006
4595.59181
4601.337773
4563.822788
4494.999311
4403.733102
4299.974733
4188.623543
4074.124748
3962.209049
3855.620788
3753.962277
3658.282836
3567.858965
3484.831329
3407.795817
3336.662272
970.8220622
1144.264283
1372.744353
1711.238545
2004.101146
2319.864853
2642.300188
2971.31186
3283.547129
3581.736633
3843.956575
4064.64749
4235.970031
4355.581676
4422.192663
4441.337914
4421.496354
4368.151196
4292.605383
4200.475191
4100.179207
3995.973862
3891.358964
3788.600674
3690.88381
3598.804034
3512.434847
3431.676886
3355.999276
3286.916254
1057.658564
1276.584686
1526.579408
1849.698375
2142.718372
2446.295414
2758.418824
3064.244854
3351.168713
3615.474347
3837.430309
4016.594074
4147.162791
4228.757719
4266.324621
4261.826269
4225.833444
4166.463522
4087.760374
4000.072681
3905.146184
3807.934345
3713.850123
3620.841331
3532.25922
3448.915081
3370.580993
3297.737632
3228.886396
995.1400883
1157.959469
1376.280755
1692.608716
1968.328161
2251.530714
2541.871703
2832.44627
3106.245849
3361.140485
3584.518817
3768.01393
3907.76116
4003.987784
4058.23973
4073.153661
4057.192584
4015.255866
3955.389771
3880.55353
3798.666772
3712.609149
3625.930502
3540.491841
3458.113368
3379.811014
3304.523579
3233.872233
3167.447273
1068.592683
1272.066147
1496.869086
1782.693425
2043.955204
2311.468744
2582.597742
2839.73389
3088.532197
3307.863997
3495.749862
3646.636309
3758.163931
3829.493565
3864.791518
3868.432371
3845.362185
3802.735002
3745.736119
3677.442292
3603.468623
3527.287638
3450.257358
3374.375491
3300.819483
3231.041577
3164.336268
3100.406236
1002.256828
1156.679186
1344.38012
1578.726826
1872.443771
2125.843476
2381.080072
2625.629099
2860.631368
3074.52623
3258.626365
3410.499474
3529.580686
3611.357922
3660.024832
3677.839563
3672.921598
3644.488386
3601.084342
3547.741158
3485.605484
3418.998179
3350.206496
3281.325729
3213.721045
3148.43356
3085.972151
3025.835469
1066.150505
1211.798066
1396.731594
1626.205527
1902.06453
2131.341737
2357.911305
2573.420797
2777.394063
2961.47622
3116.684536
3243.812173
3340.282049
3406.230129
3445.171532
3458.615528
3452.213359
3427.94198
3390.32122
3343.47291
3290.408289
3233.199919
3174.049349
3114.567599
3055.260479
2997.946357
2942.458347
1082.886854
1234.415185
1413.748094
1634.8567
1886.614913
2094.546711
2300.353705
2493.330253
2669.357339
2826.978762
2961.874636
3068.756045
3149.651333
3206.058869
3237.834371
3248.629306
3242.344211
3222.507673
3190.836775
3151.506013
3106.341823
3057.498055
3006.288913
2954.789709
2903.314139
2853.104144
1120.699384
1274.872223
1453.993408
1660.367568
1898.147325
2091.115696
2270.242253
2440.011219
2588.979971
2722.448156
2832.110936
2917.503286
2983.329961
3025.975425
3048.054314
3055.579136
3049.693462
3032.00679
3003.919026
2971.192367
2931.616887
2888.767276
2845.073715
2780.812815
2737.210704
1142.631615
1283.137769
1441.165227
1603.950437
1782.571521
2006.906374
2166.561589
2314.239253
2445.453319
2562.408157
2656.235891
2731.961347
2789.494992
2828.554291
2849.978381
2858.150619
2855.713494
2842.212981
2820.960561
2794.067285
2761.643507
2707.809971
2665.036121
2633.167949
1153.100735
1286.781607
1406.912003
1555.112277
1710.843458
1869.802793
2069.871748
2200.004324
2313.805331
2413.495994
2494.752127
2559.904556
2608.971896
2642.964983
2663.678868
2672.675164
2671.179455
2661.536535
2618.672171
2595.812745
2576.939517
2549.067103
2537.819178
1148.520172
1245.218797
1372.999338