/*--------------------------------*- C++ -*----------------------------------*\
| =========                 |                                                 |
| \\      /  F ield         | OpenFOAM: The Open Source CFD Toolbox           |
|  \\    /   O peration     | Version:  v1706                                 |
|   \\  /    A nd           | Web:      www.OpenFOAM.com                      |
|    \\/     M anipulation  |                                                 |
\*---------------------------------------------------------------------------*/
FoamFile
{
    version     2.0;
    format      ascii;
    class       volScalarField;
    location    "3.2711";
    object      Tov_O2;
}
// * * * * * * * * * * * * * * * * * * * * * * * * * * * * * * * * * * * * * //

dimensions      [0 0 0 1 0 0 0];


internalField   nonuniform List<scalar> 
60268
(
2416.998323
2608.920221
2739.864162
2869.368519
2980.336557
3073.502198
3154.245357
3213.87598
3257.305452
3280.114612
3260.62176
2376.479913
2581.507093
2740.38845
2864.033289
2970.963331
3064.449341
3145.661111
3207.93253
3251.513994
3278.9068
3257.837937
2551.13694
2722.374318
2839.035434
2949.291448
3050.208234
3129.630725
3191.390315
3232.718874
3237.890837
3224.549136
2481.355291
2666.3053
2805.372362
2917.114091
3011.211097
3093.645993
3153.351361
3201.361255
3191.03832
2574.665401
2760.467921
2876.817321
2973.655407
3056.231114
3089.029792
3119.373589
3146.920981
2623.510308
2769.361089
2864.175468
2951.044289
2991.549962
1962.914861
2208.797267
2380.998049
2552.043973
2782.263309
3055.787911
3222.893066
3357.953781
3457.159974
3528.565156
3571.518241
3587.082231
3581.536334
3557.115364
3475.011387
3415.519412
3378.601952
3334.955789
3289.115549
3229.501981
1972.875751
2192.848481
2365.047917
2532.545726
2746.349579
2984.892886
3195.237997
3327.533387
3428.679274
3501.687679
3548.976875
3566.614964
3561.809265
3539.339092
3462.931762
3405.241455
3366.948592
3326.23881
3281.472118
3227.580692
1947.347409
2175.442337
2343.37453
2513.617
2694.656953
2908.230488
3159.150319
3292.214899
3399.159132
3473.29677
3520.69839
3539.401382
3536.394939
3479.614965
3434.508176
3389.35296
3354.24368
3313.229017
3261.568476
3206.852001
1938.618785
2152.180983
2319.884218
2491.275058
2654.485863
2855.683162
3065.952586
3256.30121
3356.514347
3434.096811
3480.409502
3505.195783
3502.010597
3443.133497
3400.059616
3368.567848
3335.859374
3298.305386
3242.312146
1873.409161
2087.813768
2268.231482
2435.803019
2599.674777
2760.135559
2941.062748
3127.504996
3278.90376
3361.570363
3414.346245
3396.622384
3399.68916
3383.232834
3356.513575
3336.11023
3309.40396
3273.139837
3220.06556
2018.765785
2227.978381
2387.893347
2552.028993
2698.101104
2845.387284
2998.582235
3127.424303
3212.726219
3274.301576
3306.300579
3316.734546
3316.6757
3312.406685
3300.58571
3273.579805
3233.429531
3187.559812
1950.957974
2157.087879
2321.334266
2476.146768
2620.558311
2753.912986
2878.338541
2989.40693
3075.976353
3144.811843
3195.476361
3227.985048
3251.298187
3253.403676
3244.690621
3213.107069
3173.772704
2042.821304
2242.142233
2398.973126
2538.777631
2669.457608
2790.581531
2897.0194
2983.740587
3057.265904
3112.099598
3151.418281
3177.397547
3188.153143
3170.976218
3139.440924
2124.779845
2307.599543
2452.658237
2577.933354
2695.397397
2803.863395
2895.43835
2968.69996
3029.400692
3075.669018
3110.406179
3109.431259
3088.594456
2191.098799
2331.777877
2486.283866
2611.220863
2718.628197
2810.412423
2886.946996
2947.203977
2971.034101
2996.213858
3007.132643
2344.944572
2471.91359
2568.822797
2657.11743
2740.856296
2814.810509
2850.885405
1654.884732
1869.18242
2054.035857
2327.518308
2680.271508
2929.939912
3159.854332
3363.92792
3541.193499
3684.10858
3786.677478
3854.096832
3887.597322
3893.216093
3872.484383
3829.770587
3770.646558
3704.244107
3627.213591
3547.961567
3469.705691
3390.500866
3295.251395
3227.349218
1634.325004
1858.364647
2041.615506
2310.459147
2675.374125
2923.514181
3147.967879
3359.292034
3534.398405
3668.556009
3775.105988
3842.603836
3879.357724
3883.267497
3860.735667
3818.797348
3762.15312
3693.910296
3618.764226
3542.794038
3463.332265
3386.319242
3294.511107
3223.947098
1628.901274
1850.443668
2027.376958
2290.323309
2645.452306
2889.44966
3115.518678
3325.442994
3501.0132
3643.557071
3750.452699
3819.806528
3854.917886
3860.139293
3839.864268
3800.064024
3745.698549
3679.478584
3605.792792
3529.849983
3451.223783
3355.61556
3277.575978
3213.854585
1612.832521
1830.894826
2007.387245
2259.901181
2597.406462
2838.724411
3063.971841
3264.868787
3439.81765
3585.450887
3689.633348
3761.029604
3800.916405
3810.586355
3792.016301
3759.047278
3708.235256
3647.09744
3577.332002
3504.057177
3427.547287
3330.142823
3255.403145
3200.01038
1560.856332
1780.828401
1964.25064
2200.806642
2478.854218
2772.207124
3000.105025
3206.086427
3376.063391
3518.726219
3621.565129
3700.351238
3744.919607
3756.287584
3746.692831
3714.719958
3666.194707
3607.593642
3541.714128
3471.265277
3399.272416
3303.87452
3230.71565
3177.963967
1712.327459
1920.304989
2105.557624
2354.832081
2662.992709
2889.060626
3091.434839
3269.660326
3417.062286
3532.172642
3613.090093
3660.53935
3686.320838
3682.84024
3657.191911
3615.53236
3562.59132
3501.230313
3434.442054
3344.511994
3269.920456
3208.169494
3154.847761
1638.482992
1854.631438
2039.726151
2265.04567
2526.113362
2803.076717
3000.315153
3175.397583
3321.247034
3436.522404
3522.741661
3575.719792
3603.587916
3604.664172
3587.392199
3552.988289
3504.992986
3447.715559
3360.87523
3288.552544
3228.411603
3178.746882
3120.828984
1762.104027
1965.468281
2142.485208
2355.772891
2602.421219
2851.606867
3032.851356
3181.549439
3303.126162
3395.877177
3458.606677
3495.91838
3508.332457
3498.720878
3470.634985
3431.311862
3353.056123
3288.294924
3233.242909
3190.083962
3138.161083
3086.272206
1688.819478
1891.676947
2068.55787
2237.065877
2443.81683
2670.488739
2891.58319
3041.381383
3172.453162
3269.752795
3334.754035
3380.231756
3399.319245
3398.651822
3381.084237
3317.901148
3263.508788
3217.82351
3183.861062
3147.238787
3095.969692
1771.644749
1976.129936
2134.702181
2299.174171
2486.572592
2662.944758
2833.076287
3010.267591
3115.274436
3189.970657
3240.155255
3270.316979
3240.185757
3223.922611
3203.403927
3174.058129
3150.079643
3121.731248
3084.688081
3045.491467
1842.910104
2050.049158
2203.832305
2348.341476
2494.384162
2647.981126
2789.223719
2886.713167
2968.250761
3033.615934
3080.469549
3098.440233
3100.362325
3098.547336
3097.936942
3083.632185
3054.085384
3017.257057
1904.144211
2076.979513
2226.10227
2353.268034
2481.329374
2598.039741
2693.043782
2779.243329
2851.296891
2908.724884
2954.143747
2984.007012
3001.676347
2994.415108
2985.471275
2973.723167
1932.097776
2072.805909
2221.316118
2361.166009
2463.370723
2567.236386
2655.290087
2731.70978
2795.47347
2843.461267
2863.471398
2877.420694
2882.979828
2070.831024
2199.864371
2297.956247
2394.088309
2480.187913
2563.715491
2635.776008
2698.924991
2727.967838
1334.034587
1511.733608
1692.790481
1965.8971
2367.176544
2660.363884
2955.068915
3232.992254
3486.798444
3710.826178
3899.014824
4047.480539
4149.02591
4203.963192
4221.039572
4207.659331
4161.27163
4096.393519
4016.041401
3926.954421
3831.817801
3737.597716
3642.412467
3550.314683
3462.739231
3380.121663
3301.230047
1314.760575
1510.354239
1686.0387
1954.012444
2334.995252
2630.901237
2926.623462
3209.968734
3465.270812
3694.213042
3890.849734
4037.895108
4141.071463
4203.60419
4221.99602
4205.848749
4162.258629
4096.745034
4016.087512
3925.960417
3830.378188
3736.325133
3641.362717
3549.913684
3462.389406
3377.335363
3298.284183
1297.431942
1491.528626
1678.419809
1947.058657
2332.711039
2623.765138
2913.74691
3189.31705
3441.987126
3667.158793
3854.910952
4001.483226
4105.785677
4169.750743
4190.279422
4177.90058
4132.994945
4073.53371
3995.070155
3909.221301
3814.686126
3720.557899
3629.589315
3540.669851
3452.613035
3369.197857
3291.832901
1430.430354
1638.933196
1893.154955
2247.588802
2526.433432
2807.256613
3076.318429
3327.418575
3552.123349
3747.595641
3898.868251
4013.341748
4082.285122
4113.83517
4107.419797
4076.469647
4020.543734
3952.417423
3871.3251
3782.513659
3694.581945
3604.112557
3515.094436
3431.366769
3350.562737
3274.274351
1405.776756
1612.27706
1840.021225
2132.584313
2462.964142
2743.994047
3005.08567
3256.230962
3483.758009
3679.164216
3832.462761
3945.465022
4018.533007
4056.439685
4057.675976
4027.645506
3977.096643
3912.012598
3833.796158
3750.427936
3663.896445
3575.342484
3488.422831
3404.505545
3325.580879
3249.802119
1386.530213
1582.823883
1764.080336
2028.630347
2399.837645
2675.141377
2937.119055
3182.825288
3410.777695
3601.278532
3756.046211
3870.980399
3947.297612
3984.495716
3991.1479
3971.132592
3926.707259
3864.318273
3792.372459
3713.49104
3628.563817
3545.071323
3460.672688
3378.870519
3301.787928
3226.082625
1349.539771
1540.526418
1712.105199
1951.710553
2243.832912
2571.408681
2832.013881
3073.551832
3292.742026
3485.499156
3645.562419
3764.923723
3846.816491
3895.33657
3909.647758
3896.466052
3859.930462
3804.249379
3737.388994
3664.818936
3585.630426
3503.226833
3423.283788
3345.13205
3269.215911
3186.246567
1448.755659
1638.668814
1821.553403
2081.355787
2431.525587
2685.14617
2926.860723
3145.509507
3342.47171
3502.079642
3630.13072
3722.465937
3781.353175
3805.643081
3801.966353
3775.733063
3730.283868
3671.240661
3604.030374
3530.514611
3454.981474
3379.027371
3302.883889
3213.765431
3145.413507
1391.077709
1581.862644
1754.280851
1977.187654
2247.124977
2545.574847
2776.052174
2990.163591
3182.344617
3342.530573
3476.201263
3581.280451
3643.599844
3679.687794
3686.974655
3671.469374
3636.422491
3587.954277
3529.73282
3464.10039
3395.528942
3325.956584
3254.286725
3166.163436
3097.756533
1468.117997
1666.527601
1848.232678
2072.041239
2342.907185
2627.993867
2838.812798
3027.983157
3197.318406
3329.263338
3434.207716
3504.271357
3548.053828
3564.719122
3558.909483
3534.172871
3495.073123
3446.021606
3387.13515
3325.188266
3260.283713
3178.452662
3109.09283
3054.71975
1572.471737
1764.747564
1929.018719
2143.198022
2390.728149
2647.090793
2830.576846
2994.572807
3131.600099
3240.209389
3323.571911
3382.048161
3411.028344
3416.898145
3405.894661
3378.99569
3340.112399
3292.218782
3239.473747
3163.826108
3099.652456
3044.945182
3003.466746
1480.179142
1653.424184
1814.980372
1976.695223
2177.901092
2408.342884
2640.487034
2801.258826
2940.902579
3056.880018
3146.88882
3213.933097
3254.015998
3273.469921
3273.32743
3256.585076
3228.573877
3160.952027
3114.282374
3069.822401
3025.598913
2985.827074
2943.813421
1538.402627
1711.657471
1863.878734
2013.846023
2200.008714
2377.92859
2555.462403
2753.396179
2873.322304
2966.734405
3040.588122
3088.702297
3114.896426
3125.372805
3083.092828
3060.919435
3033.165575
3003.197744
2981.212493
2949.953698
2911.798462
1586.738952
1720.053498
1884.047393
2033.675586
2167.786167
2330.784142
2478.953371
2586.562598
2681.258335
2763.017647
2828.747865
2878.234697
2913.34165
2921.837092
2915.594341
2914.460522
2910.573827
2894.27116
2865.896976
1735.612997
1902.066921
2042.18159
2160.53474
2273.80323
2378.56792
2469.601914
2554.062744
2624.65977
2683.30136
2730.117239
2767.010453
2795.224043
2796.811173
2794.324652
2790.999506
1756.759338
1874.39276
1973.561884
2115.577274
2229.61461
2323.141253
2410.068102
2481.300653
2546.836267
2582.202116
2612.19997
2654.783153
2667.714232
1945.148771
2057.503863
2147.5834
2229.676748
2311.927902
2381.352302
2422.98311
1161.884811
1333.163041
1561.455459
1894.136604
2195.275565
2500.512248
2828.085484
3148.420988
3456.97727
3737.347371
3983.720185
4195.732032
4357.714775
4468.248983
4520.864361
4528.71892
4498.714825
4434.577282
4349.277078
4247.389154
4137.377228
4025.991192
3912.693801
3802.440182
3698.841448
3602.075888
3509.126371
3424.574055
3344.994927
1136.828106
1325.4358
1561.564367
1891.841014
2193.626552
2506.29902
2831.478662
3151.127124
3461.871138
3752.233658
4000.029214
4210.826644
4366.619199
4471.355587
4530.821103
4536.819447
4503.32377
4439.965155
4351.271653
4248.541991
4139.910862
4024.827019
3912.733825
3805.171273
3700.468111
3601.142125
3509.806958
3424.412342
3345.153422
1286.940917
1532.099195
1799.510632
2149.184379
2452.989366
2770.179432
3087.669452
3396.374378
3681.615417
3939.602469
4152.206506
4314.806846
4427.288774
4492.122823
4504.607583
4476.258804
4415.261278
4333.002655
4233.369144
4126.268019
4012.667221
3902.081835
3794.671508
3690.817291
3592.241299
3500.977214
3417.286009
3338.313553
1258.211496
1465.626691
1730.108883
2113.059571
2426.863491
2745.091936
3056.605916
3363.970984
3642.235011
3892.302651
4102.508259
4261.901155
4376.937591
4436.910783
4453.280656
4428.935953
4374.807727
4293.964196
4200.123433
4095.98629
3988.07359
3879.889206
3773.05329
3671.985664
3575.262329
3484.929203
3401.144894
3322.185892
1240.966876
1432.794021
1689.383019
2065.621743
2362.14293
2679.451658
2991.042987
3285.625584
3566.619664
3820.068878
4033.064838
4195.66222
4308.414131
4372.318336
4395.301303
4377.349136
4328.562272
4252.504507
4163.624339
4063.790816
3957.510359
3851.030725
3746.825597
3645.257425
3550.741191
3461.969356
3378.248685
3300.974497
1211.948157
1387.552632
1629.285729
1964.060197
2257.355824
2551.934183
2857.73221
3147.817317
3429.807535
3682.98503
3899.121185
4070.807751
4195.101366
4268.496709
4303.500227
4294.942713
4256.72897
4190.851826
4109.360003
4016.118405
3915.376938
3815.794448
3715.49891
3618.839083
3525.822691
3438.308809
3354.547455
3277.421929
1181.594857
1359.845217
1571.527908
1845.781779
2184.420012
2477.74733
2770.755646
3056.880568
3330.57725
3572.128029
3787.107917
3961.99646
4084.863794
4165.903208
4207.223981
4207.050868
4173.594042
4118.741301
4046.702599
3958.028024
3865.104086
3769.013377
3672.403343
3579.247726
3490.399343
3404.590344
3323.746085
3246.260085
1280.200724
1477.842588
1718.760254
2070.571836
2354.199458
2638.368036
2918.52359
3189.520094
3436.084993
3650.999362
3820.482532
3956.116512
4049.473418
4100.550922
4107.031255
4086.983411
4039.7047
3973.944751
3896.587773
3810.68818
3717.881923
3626.758493
3538.292572
3450.075342
3369.197228
3290.663023
3216.439259
1219.518991
1407.709738
1625.228664
1888.055613
2206.12178
2486.397913
2757.542033
3021.763996
3266.467553
3481.392299
3664.509502
3803.923997
3906.181612
3965.918958
3987.118315
3979.725534
3944.496361
3888.786773
3821.309502
3745.56621
3661.451835
3576.704715
3491.08707
3407.441295
3325.160003
3249.480039
3177.698152
1321.750559
1521.989815
1741.382074
2025.901438
2359.632369
2618.50496
2872.730396
3105.219089
3314.367142
3495.199224
3641.700679
3745.202967
3815.545502
3850.059847
3851.696884
3827.260698
3784.326423
3728.499129
3661.578684
3588.19668
3508.514531
3428.283986
3348.927825
3273.253247
3199.599049
3129.252872
1255.374901
1435.270984
1597.715673
1841.373291
2172.472439
2420.502494
2661.748578
2891.697451
3097.855298
3276.034703
3425.922304
3541.254558
3622.194779
3673.876248
3694.221058
3684.58098
3659.08205
3614.096708
3556.301853
3493.290931
3425.720987
3353.001923
3281.070661
3208.750554
3140.64431
3074.795268
1317.378253
1505.730674
1718.407286
1967.143452
2253.035213
2484.323882
2707.395332
2910.914148
3089.174093
3237.112696
3358.722954
3446.692771
3506.341016
3538.639765
3543.015677
3527.73638
3493.713939
3449.838882
3395.235012
3334.109281
3273.482315
3206.213903
3140.553491
3058.047773
2999.200516
1402.036108
1584.051178
1776.378713
2013.730849
2278.142586
2484.286491
2683.115488
2858.921334
3007.800521
3137.112599
3232.056921
3304.00774
3347.801774
3366.951351
3369.22553
3353.884428
3322.43062
3281.092558
3231.790799
3178.528274
3122.535277
3042.246028
2978.798458
2927.919839
1318.146245
1482.099878
1627.644798
1814.541035
2001.88283
2212.528543
2461.32401
2637.501536
2790.467852
2916.320275
3022.861412
3100.750616
3160.27781
3196.384256
3205.897405
3201.812548
3186.927328
3156.571511
3119.210818
3074.249256
3004.922128
2947.025321
2899.822134
2861.969182
1357.217566
1475.550594
1645.339455
1807.251714
1981.937959
2191.7188
2401.822938
2550.033642
2683.139225
2795.145895
2885.243735
2950.191731
2996.149061
3025.356765
3037.150959
3032.587351
3014.61989
2957.201043
2923.25034
2890.463545
2856.928791
2826.882982
2791.91441
1488.196684
1666.609944
1801.017407
1959.168893
2112.779864
2243.56268
2391.581719
2555.848384
2653.804848
2725.735825
2784.407854
2821.951211
2802.734157
2804.191135
2810.49736
2800.694226
2787.090455
2768.509156
2752.597398
2737.667115
1522.239167
1640.177311
1785.272595
1919.863877
2030.604136
2168.883319
2292.273413
2381.229524
2462.330761
2526.700123
2582.944316
2614.37387
2630.732634
2650.359683
2667.506737
2671.227771
2655.534731
1638.23988
1755.518261
1886.567264
1999.779215
2096.961915
2185.435807
2265.445467
2338.238102
2401.267877
2453.506109
2485.040328
2509.036968
2539.176332
2551.062185
1719.351296
1832.113403
1911.804655
1995.352116
2082.161253
2158.295486
2228.177018
2295.59973
2329.534371
1107.350393
1356.178211
1668.341936
1980.2517
2313.162292
2663.218854
3012.871378
3380.72382
3725.317952
4042.156734
4320.913769
4545.859908
4722.104189
4830.841053
4876.778156
4866.062322
4814.545003
4724.874668
4613.882237
4487.352578
4352.562127
4217.354431
4085.826273
3960.777202
3843.687838
3736.369543
3635.466438
3542.766538
3456.958192
3378.817365
1117.143244
1336.105255
1610.564552
1964.041332
2288.622062
2633.121039
2993.214701
3355.866997
3695.907902
4024.204863
4304.684374
4535.795711
4709.469881
4820.938757
4873.048556
4869.488766
4815.464813
4728.477686
4614.714228
4486.269387
4353.275798
4218.177768
4087.828592
3963.564389
3845.255384
3736.376729
3635.38438
3542.508284
3457.014432
3377.044658
1110.991323
1297.491474
1556.061092
1947.829599
2273.153556
2624.732758
2986.566638
3337.254135
3689.568754
4008.658901
4290.274483
4521.815756
4691.128607
4802.393518
4852.553448
4848.00607
4797.064461
4710.279788
4600.612884
4475.594027
4342.812598
4207.683316
4078.698459
3955.65473
3838.161564
3728.207392
3627.07453
3534.976969
3448.419204
3369.271823
1088.921761
1268.893849
1516.227026
1887.0263
2211.423224
2546.344904
2902.643367
3252.689383
3595.285057
3915.366981
4197.727579
4433.832368
4613.611011
4729.150984
4785.766398
4792.04823
4749.791756
4669.787976
4564.665706
4443.330026
4314.598555
4184.338271
4057.009874
3934.556274
3819.556746
3712.330054
3612.570331
3520.298096
3433.820587
3355.528173
1071.787939
1246.190023
1477.938352
1827.40515
2141.575038
2469.561941
2800.229065
3147.48346
3483.480096
3793.387441
4076.807846
4314.843665
4501.988815
4626.796338
4696.09079
4711.190963
4678.041064
4610.348571
4512.023571
4398.998207
4277.480338
4152.571163
4029.774047
3908.744602
3793.815539
3687.764946
3589.558799
3498.749893
3415.371227
3337.265201
1037.445505
1203.500401
1437.951811
1774.801551
2078.998392
2399.609689
2737.247412
3067.013705
3403.87364
3714.968439
3991.958606
4228.247457
4420.495213
4551.721816
4620.683353
4643.95374
4618.091179
4555.27825
4465.273375
4357.008894
4239.519651
4119.953244
3998.475069
3881.396669
3770.568762
3665.864632
3567.915336
3477.000583
3392.840973
3314.649912
1149.342418
1383.84676
1646.05405
1986.170508
2291.739642
2612.617335
2942.554577
3268.226137
3568.924114
3850.530097
4085.345983
4278.951422
4416.957298
4502.393349
4532.89949
4519.027314
4469.582398
4389.352738
4293.750987
4182.8557
4067.962592
3954.150152
3840.622058
3732.886568
3630.075779
3534.592646
3445.295758
3362.348991
3285.50282
1117.90723
1296.636219
1531.890546
1872.745175
2168.400201
2480.773002
2791.069127
3100.457991
3401.74756
3680.78659
3920.2001
4117.987954
4262.139362
4363.023026
4407.088544
4401.60985
4367.80131
4300.500378
4213.692657
4114.423436
4008.148527
3898.64476
3792.320267
3688.118309
3589.264127
3495.993286
3410.399759
3329.906375
3254.243389
1073.068286
1227.313192
1449.790233
1720.595364
2063.151092
2365.550122
2670.330983
2975.133331
3267.253028
3542.239244
3779.284732
3973.738882
4127.056899
4227.678256
4278.761388
4290.501302
4264.140191
4208.206661
4131.607511
4041.089818
3944.731557
3842.302654
3740.226795
3641.479242
3545.631532
3455.667186
3370.509982
3290.410895
3215.433953
1176.399479
1353.57227
1586.294326
1921.355109
2198.245249
2487.189476
2772.766207
3054.282232
3311.721685
3547.995075
3745.696511
3906.334308
4024.806483
4092.91558
4129.602806
4118.741288
4080.737459
4022.078874
3945.374278
3858.633004
3767.554572
3673.120455
3579.570742
3489.529482
3402.999906
3322.536886
3245.233658
3171.883019
1099.831499
1264.17123
1468.37725
1725.307107
2035.158849
2320.392307
2587.625602
2858.447242
3110.505661
3345.865817
3540.925971
3700.468981
3822.142161
3907.702532
3949.725199
3961.745754
3939.882601
3896.682095
3836.382544
3764.305573
3684.535538
3598.393427
3510.796342
3424.411074
3342.626061
3266.31041
3190.943183
3121.920702
1191.118096
1358.011867
1556.942525
1818.139681
2131.409041
2387.076186
2644.442748
2888.442559
3113.759759
3314.622326
3483.121997
3617.950454
3713.521345
3769.373849
3791.378561
3789.419182
3760.249994
3713.182994
3651.278778
3581.498371
3507.563383
3432.14678
3352.796082
3277.82373
3203.707443
3132.378361
3064.041489
1107.954619
1273.435818
1423.422926
1645.314242
1958.543187
2203.638165
2443.060299
2677.51365
2894.938111
3089.965797
3254.083147
3390.188896
3494.049459
3565.953644
3606.03639
3617.238959
3603.33136
3573.481418
3530.539761
3473.334343
3409.686764
3341.179456
3271.670073
3201.842353
3135.274923
3069.465017
3005.227309
1166.281494
1322.531206
1512.209779
1739.587617
2002.441457
2227.775782
2451.203187
2660.68762
2851.485725
3022.474339
3164.711768
3279.301596
3360.463408
3414.020549
3444.826045
3447.369341
3432.119958
3399.685237
3353.964662
3303.01378
3244.233517
3183.869398
3120.695088
3057.515217
2998.389906
2925.121322
1211.71114
1379.830442
1564.809608
1744.51023
1966.520698
2244.205843
2442.140565
2627.199927
2794.494686
2939.872054
3057.655039
3149.942076
3211.887344
3249.832028
3268.106806
3267.338387
3249.34551
3218.142046
3179.596532
3134.671642
3080.662387
3027.247829
2971.842989
2899.937262
2844.187591
1249.31877
1403.533466
1550.253662
1724.221275
1948.479915
2191.788423
2368.033095
2529.305884
2668.791331
2793.165894
2890.029445
2964.264854
3024.676559
3055.37083
3068.805378
3070.354757
3055.361462
3028.558977
2996.113795
2957.58734
2887.930341
2840.784208
2799.463912
2759.795284
1278.095651
1429.524952
1563.063212
1727.954622
1897.89386
2071.378996
2287.088253
2424.580465
2547.811416
2652.655112
2735.710846
2798.169701
2847.024286
2875.48438
2887.530394
2887.310298
2876.19437
2854.474243
2800.670085
2758.591638
2727.634407
2700.894838
2678.905217
1303.485532
1412.62914
1555.847314
1687.923082
1836.185633
1989.298737
2136.25945
2309.327686
2408.894172
2504.022104
2574.688358
2628.374481
2666.935897
2691.706611
2666.903624
2661.547699
2660.551571
2652.60605
2639.336305
2627.057053
2606.399603
1395.440714
1507.706566
1640.489679
1763.060264
1887.662332
2011.265079
2106.337872
2193.888052
2272.380647
2336.881307
2393.657868
2438.219963
2464.295692
2478.405736
2497.227285
2505.720377
2513.353457
2517.540147
1471.628804
1579.582793
1671.132446
1785.644658
1889.411926
1972.753687
2052.796046
2122.524905
2185.482518
2240.349752
2276.684849
2311.398335
2350.403393
2371.909153
1630.935258
1732.843953
1808.799136
1881.262169
1954.664089
2025.436085
2089.091927
2127.57555
953.6580593
1113.705827
1344.860591
1714.711587
2036.646566
2393.893596
2774.173217
3168.897536
3563.629825
3956.953992
4314.085933
4625.504635
4887.698797
5072.367713
5185.342687
5231.83189
5207.604504
5133.085451
5019.156735
4880.54858
4724.597949
4565.620566
4407.387494
4258.776837
4115.063487
3985.163903
3866.409303
3756.192146
3655.619124
3565.642535
3481.922997
3406.049539
952.0814514
1107.284336
1344.791792
1707.752052
2035.865166
2397.617876
2774.621332
3184.896562
3586.328212
3978.725595
4333.154618
4651.722669
4904.490058
5089.369429
5200.813217
5245.570877
5222.168885
5145.47285
5027.901244
4885.608305
4729.426484
4570.109189
4412.678574
4260.211662
4119.224018
3989.216682
3868.48158
3757.608071
3656.564831
3562.946231
3481.983631
3405.339583
951.6114066
1106.072518
1339.267393
1688.876348
2010.74783
2364.752121
2746.578155
3146.369622
3545.379927
3929.710924
4291.109012
4612.292823
4865.129606
5049.636029
5165.975525
5209.994608
5190.798059
5119.113031
5007.006364
4871.070492
4719.09182
4557.705708
4399.150152
4250.708671
4109.434412
3979.011224
3858.974512
3749.305103
3648.356926
3557.334549
3473.398068
3397.585689
925.3773872
1083.626229
1304.761381
1647.565141
1962.183301
2309.769773
2668.968892
3055.382643
3448.548921
3822.915654
4179.75282
4494.020032
4756.02192
4951.767661
5076.308894
5130.993636
5124.418591
5064.592378
4958.451231
4828.569341
4681.213793
4530.296954
4376.491039
4229.862378
4091.13871
3961.489922
3843.151098
3734.698785
3635.081421
3544.246272
3460.491857
3383.882489
1031.889031
1264.805873
1588.029029
1897.348591
2233.014651
2592.188815
2975.203651
3354.437463
3734.71638
4092.498571
4404.999184
4664.482148
4864.415873
5000.394912
5064.101844
5062.814297
5008.62122
4912.820117
4789.195088
4646.817686
4499.215057
4351.631242
4205.20679
4069.306177
3941.939448
3822.941337
3715.745173
3618.210673
3527.138932
3443.045826
3367.145838
1008.874282
1223.51947
1482.966017
1831.143421
2171.555862
2527.757712
2902.52182
3285.536849
3662.062849
4014.640338
4332.094626
4593.62856
4797.606306
4933.004567
5000.617137
5005.40972
4961.364416
4870.111656
4749.974024
4613.314919
4468.876988
4324.518052
4181.253061
4045.058298
3918.934186
3802.681637
3695.578408
3596.25751
3505.239926
3421.638395
3345.506547
990.5584203
1156.281107
1390.63639
1754.677647
2067.864912
2405.573656
2769.156638
3140.042057
3498.280283
3849.211219
4159.809194
4428.675959
4638.185785
4781.492947
4865.109108
4883.24118
4849.627821
4776.339197
4668.974109
4544.487896
4410.381974
4269.641088
4132.72248
4004.773354
3882.637074
3767.751844
3661.825318
3565.226227
3475.68984
3391.577836
3315.602516
947.1203139
1102.064663
1323.426296
1650.355934
1946.288753
2274.281926
2623.035262
2960.870684
3313.389142
3648.239654
3955.74842
4218.185552
4435.699069
4590.003447
4686.771548
4726.95815
4709.443356
4647.905602
4560.80344
4452.679982
4329.134696
4202.194709
4074.283361
3949.656063
3831.730099
3722.225324
3620.1251
3526.305615
3436.552816
3356.234552
3283.113018
1039.82071
1255.778233
1503.288541
1838.136734
2140.397392
2461.029845
2802.071336
3140.717942
3464.661053
3775.405562
4041.435591
4257.040962
4427.142553
4532.245173
4584.27753
4584.131229
4542.719808
4466.312108
4368.260121
4256.448367
4136.396416
4015.679679
3897.307691
3783.699579
3675.85746
3577.533325
3483.735612
3396.937272
3317.428502
3243.630047
981.6083999
1155.681756
1387.920582
1726.20635
2016.945583
2325.905989
2653.628033
2977.278596
3293.055666
3587.085997
3848.245251
4066.344227
4237.003754
4354.814975
4418.462669
4434.807631
4409.924885
4349.597695
4266.097245
4168.395549
4059.08319
3948.144634
3835.794987
3727.901403
3625.428638
3528.594578
3439.188445
3354.633873
3275.788543
3204.14194
1070.560592
1286.304939
1540.561344
1856.764292
2147.226753
2452.938232
2765.060337
3069.180693
3355.693635
3620.622652
3842.819104
4019.454696
4147.153266
4232.244772
4262.111959
4256.770271
4217.538248
4150.299405
4065.738024
3970.310246
3870.355913
3767.0975
3664.906469
3566.797529
3474.105104
3385.957097
3303.520322
3226.919489
3155.27251
1002.241876
1170.604871
1393.244339
1711.854852
1975.449238
2258.112732
2549.23481
2837.817601
3115.755406
3371.718966
3595.410612
3777.594569
3918.063038
4015.456603
4065.56377
4076.464723
4055.00543
4010.141857
3944.917444
3863.296595
3772.876864
3681.270912
3589.101023
3499.59599
3410.998184
3326.002661
3246.748539
3172.201461
3103.178295
1082.831648
1287.020948
1516.439469
1793.840522
2056.9087
2325.772947
2590.493695
2854.307154
3100.720424
3318.88271
3508.621845
3656.069202
3766.809023
3837.548952
3870.589975
3871.895559
3845.557976
3797.922953
3735.984356
3661.326634
3581.170028
3498.412927
3416.30138
3336.367658
3257.270437
3183.19209
3112.725886
3046.162699
1020.510825
1172.722636
1361.320732
1595.924864
1894.026705
2141.494599
2396.124999
2646.230604
2878.964461
3089.961566
3276.392249
3431.013352
3547.459354
3628.64521
3674.63847
3689.16108
3679.023509
3649.287257
3600.232604
3538.454893
3474.023588
3403.18845
3330.481133
3255.197091
3182.860364
3112.485797
3044.984483
2981.068399
1083.304744
1227.487744
1414.922439
1645.869025
1923.823756
2146.850944
2377.274012
2594.886837
2798.091945
2982.723049
3138.825469
3265.071629
3360.273437
3424.393774
3463.304808
3472.387036
3461.188673
3433.118702
3394.592399
3340.663847
3283.210815
3221.716116
3160.42074
3094.885429
3031.073176
2966.454032
2908.129958
1096.947083
1251.225552
1433.861937
1654.103744
1904.812603
2113.849366
2321.219398
2510.133961
2689.702834
2845.274777
2980.091326
3085.944167
3167.762396
3225.791191
3256.632599
3262.795113
3254.294054
3230.736522
3193.043538
3150.185654
3101.65106
3049.131975
2994.104171
2940.023751
2884.021346
2827.858776
1144.689167
1298.141806
1472.146728
1676.421337
1919.465596
2112.154726
2294.68951
2462.265331
2615.221871
2753.011885
2859.130367
2946.232183
3005.969376
3048.010406
3069.11481
3075.790701
3067.07432
3044.967925
3011.991234
2975.09902
2933.002936
2886.628966
2838.705577
2773.535202
2727.126138
1164.379696
1305.527971
1464.621513
1629.505528
1803.624792
2027.716064
2187.524144
2336.101845
2472.781202
2589.438771
2680.87186
2757.044299
2813.492431
2853.093695
2872.100227
2880.037037
2874.028891
2857.100854
2831.923771
2800.846878
2766.465177
2711.630907
2665.284589
2631.514254
1172.719044
1308.681
1430.339879
1580.481837
1732.880103
1895.54885
2095.809495
2222.781836
2342.646769
2441.849911
2522.736936
2588.0628
2636.288519
2668.051801
2687.470021
2692.634506
2691.254358
2679.372529
2636.730604
2609.643528
2587.705037
2560.348744
2543.714829
1176.580835
1269.049746
1396.901386
1513.228717