/*--------------------------------*- C++ -*----------------------------------*\
| =========                 |                                                 |
| \\      /  F ield         | OpenFOAM: The Open Source CFD Toolbox           |
|  \\    /   O peration     | Version:  v1706                                 |
|   \\  /    A nd           | Web:      www.OpenFOAM.com                      |
|    \\/     M anipulation  |                                                 |
\*---------------------------------------------------------------------------*/
FoamFile
{
    version     2.0;
    format      ascii;
    class       volScalarField;
    location    "3.2711";
    object      Trot_N2;
}
// * * * * * * * * * * * * * * * * * * * * * * * * * * * * * * * * * * * * * //

dimensions      [0 0 0 1 0 0 0];


internalField   nonuniform List<scalar> 
60268
(
936.9988933
1056.39324
1153.854697
1257.10762
1363.00517
1469.462653
1578.638646
1686.054666
1790.844393
1892.388097
1952.028938
919.6495134
1045.422283
1153.259534
1253.393962
1358.001757
1464.136943
1573.247651
1681.267926
1786.234368
1887.236938
1944.397801
1020.795846
1140.698688
1239.874559
1343.821218
1451.465003
1558.908818
1663.86797
1772.22864
1849.392003
1918.808982
990.8329872
1115.158231
1221.038246
1323.748839
1431.320353
1535.747593
1641.171505
1747.570593
1809.21013
1061.709432
1194.169687
1300.744487
1405.854205
1509.884141
1586.047142
1678.740945
1764.11081
1121.693922
1237.466839
1332.817229
1436.607002
1514.836531
703.4684267
811.4472127
898.6055988
995.7322977
1131.088422
1311.816388
1441.50192
1571.314954
1694.959603
1812.12518
1921.0526
2021.612347
2112.525555
2193.858966
2222.803819
2269.140564
2341.733896
2412.50302
2479.008261
2521.587823
702.5789466
805.3797707
892.9786338
986.6331905
1113.746596
1265.252708
1425.044321
1553.633419
1677.63819
1794.806069
1905.550763
2008.200545
2098.213451
2179.677759
2212.01761
2258.15952
2331.294088
2402.817954
2468.084349
2510.374818
692.9813004
796.056967
883.9907848
977.441894
1085.639968
1226.33949
1406.670841
1533.803823
1655.790854
1772.436488
1879.875158
1980.53687
2072.11806
2118.19883
2175.84709
2235.217383
2313.089561
2385.054805
2434.757315
2484.857821
687.6426686
786.4904113
873.2282538
967.0975673
1065.11086
1196.015459
1347.791629
1503.500973
1625.075307
1739.398642
1849.594603
1948.779337
2037.872805
2082.454379
2136.880252
2205.716525
2286.431835
2360.255807
2402.544298
667.0502251
765.0498616
853.1266709
945.3176461
1042.709652
1146.740175
1275.000755
1425.1734
1575.619187
1691.907243
1798.644324
1863.13885
1942.537436
2017.080013
2089.114701
2173.446551
2252.413079
2325.178827
2372.658936
732.9347613
835.5597859
922.8902548
1017.258522
1114.861587
1220.902692
1350.262765
1475.341985
1582.817593
1688.073146
1784.089724
1868.412473
1948.914071
2036.521278
2126.270211
2209.464819
2267.758393
2324.13506
706.6394116
804.1246876
892.0192422
982.577874
1077.216657
1176.760328
1281.229384
1390.623387
1493.269131
1594.623821
1694.43248
1793.820212
1893.242761
1985.42054
2073.043538
2136.723
2197.400728
756.6890035
859.5597415
950.0934228
1039.059996
1136.201273
1234.454965
1334.966093
1436.192483
1538.392953
1638.455336
1736.856566
1833.723525
1927.388341
1995.045699
2058.327762
805.6191917
909.5736252
1000.471168
1090.985308
1185.819742
1282.177108
1380.702384
1480.343262
1577.963893
1676.795142
1775.764713
1847.141017
1911.451802
849.843409
933.9894014
1037.141943
1136.351837
1229.66368
1323.665384
1419.446763
1514.964271
1588.984811
1675.368049
1756.637382
966.3234996
1059.34125
1141.237196
1231.572873
1327.178775
1421.640115
1498.270672
570.1727813
657.3914344
733.6942678
855.9179886
1027.793607
1164.389929
1307.518496
1452.63496
1597.832682
1742.837728
1880.88742
2012.394275
2132.571572
2241.933809
2339.977046
2425.014824
2498.282384
2559.123445
2609.573851
2651.422376
2684.876879
2712.763572
2709.622092
2728.431722
566.9486261
654.986773
733.5502955
854.4349312
1029.362525
1164.063081
1304.330674
1447.708596
1592.619021
1734.06991
1871.367465
2000.16759
2120.183388
2230.069988
2325.871582
2411.085386
2484.194244
2544.902263
2595.722503
2639.355202
2673.686832
2701.929607
2699.834657
2719.663609
564.0184841
649.2316478
725.4066943
844.6561715
1011.963806
1146.387116
1285.953897
1429.427577
1573.151086
1714.718208
1850.499738
1979.734625
2097.643961
2207.396863
2304.474629
2388.368678
2460.431309
2522.71647
2573.198774
2616.259078
2650.654954
2648.953581
2667.265772
2697.771574
559.2759432
641.3579909
716.5570163
831.3151784
991.7620187
1122.75584
1257.86825
1397.940408
1539.03485
1677.003062
1810.178769
1937.153784
2056.508375
2163.200048
2258.226875
2345.129818
2419.356793
2481.338196
2532.876585
2576.820938
2613.104947
2612.615168
2630.535555
2670.098745
540.711457
624.9163421
703.1095219
806.0400518
937.5012998
1091.292596
1226.06882
1362.045697
1499.067582
1635.856548
1768.260665
1895.110173
2009.41209
2115.904212
2212.387809
2297.344057
2369.849083
2433.673161
2487.896343
2533.42741
2570.422032
2572.227433
2593.889882
2640.054184
596.6204393
685.9535346
769.0650849
885.9614408
1045.236298
1174.033218
1306.270806
1441.668455
1576.724173
1706.748239
1829.29157
1945.974855
2053.419821
2148.581733
2234.141199
2308.516255
2373.161292
2428.259059
2473.762604
2484.114281
2510.324966
2547.570424
2596.407538
572.6529044
663.1776826
744.0102624
848.1909343
980.3610248
1131.993977
1261.317958
1391.784643
1519.959328
1646.938424
1765.131898
1879.026744
1983.059641
2076.17774
2160.56055
2236.04244
2301.673387
2357.930696
2371.743786
2402.950241
2444.85221
2495.799707
2534.570818
625.9019064
717.1324227
799.3612104
906.7785815
1040.406433
1190.246661
1317.08756
1443.46345
1564.156964
1683.773268
1794.546223
1896.990327
1991.476881
2078.176239
2154.83027
2220.521958
2242.767262
2280.845663
2326.398361
2382.920819
2430.673495
2467.486269
598.7385263
687.15664
768.4224283
851.3857721
962.5396305
1095.256805
1242.078922
1361.79629
1480.824267
1594.42452
1703.277958
1803.843151
1899.736692
1986.796963
2061.651777
2095.691074
2139.591554
2190.695376
2252.560548
2321.012666
2360.49821
639.8420729
732.2122931
812.2363251
897.3323329
1004.95111
1118.613876
1240.945492
1384.83494
1493.993647
1600.620015
1699.9507
1792.648245
1841.790823
1907.915195
1972.891044
2034.527637
2103.713587
2177.416452
2231.710814
2283.597419
675.5949073
771.8511023
856.3026383
940.4580883
1032.453782
1140.426485
1251.912612
1352.001282
1450.52162
1545.949562
1638.304373
1721.073144
1791.593864
1864.935281
1946.517096
2025.918986
2087.117456
2144.968278
713.6057684
806.3506482
888.8781436
969.2361301
1056.840488
1147.979791
1235.040743
1328.199691
1420.747315
1512.191211
1600.922336
1690.178726
1779.364418
1844.990496
1919.767759
1993.986675
737.4847688
814.2531424
903.7747253
992.9956947
1076.216742
1164.139728
1252.452679
1341.186556
1432.253103
1520.866206
1588.397192
1666.254716
1740.611284
834.3916884
913.3805036
983.9611805
1063.325673
1145.117912
1230.896504
1319.348797
1411.379135
1482.997952
459.9596147
524.472033
588.2781916
693.7387114
853.8420778
987.1831911
1127.600498
1280.493202
1440.167855
1602.599309
1764.181772
1923.940555
2077.769729
2220.76604
2350.116048
2466.437271
2568.568429
2655.205661
2727.423984
2786.804715
2835.053136
2873.573595
2903.06728
2924.723474
2940.675589
2951.274702
2958.852055
457.1839142
521.3700975
585.9204691
689.928337
846.9559082
977.6601277
1120.248784
1273.337854
1431.630828
1594.09395
1758.275117
1918.091609
2073.252718
2216.210741
2346.387751
2461.704419
2563.46581
2650.142458
2722.661858
2780.238848
2828.041609
2866.292836
2894.663501
2917.049451
2932.379501
2942.328597
2949.857549
448.6264047
515.1245842
582.4215169
684.8181976
839.5822989
968.6333809
1108.609896
1257.356178
1413.726667
1573.565627
1735.314354
1891.822606
2041.22661
2185.91773
2314.692158
2431.544699
2532.418523
2620.600956
2692.869858
2753.142293
2801.636816
2840.720022
2868.937346
2891.088953
2909.073934
2920.786141
2928.604433
495.3835765
573.012681
669.7067575
810.8814604
936.397287
1070.655722
1214.672939
1366.151578
1523.547386
1682.050111
1836.59822
1987.382475
2126.73575
2257.320644
2374.541889
2477.332057
2566.784284
2641.201578
2704.309186
2754.321216
2795.433186
2827.625486
2852.494099
2870.384546
2883.569087
2892.168032
487.5548351
560.7421029
647.7040634
765.424507
910.4480476
1042.872838
1185.065206
1332.446669
1483.54191
1638.40946
1790.607135
1940.293903
2079.88483
2205.801128
2323.114575
2428.078
2516.279099
2588.696225
2653.692946
2706.508264
2749.341948
2782.078299
2806.593792
2826.445593
2840.781816
2851.120507
480.2650973
550.517332
620.1996068
728.4605543
884.4885581
1014.290815
1150.925676
1292.705501
1441.331712
1591.613431
1740.83923
1885.291049
2020.776058
2147.38318
2261.448688
2362.411975
2450.813702
2526.602475
2591.073331
2643.642366
2687.458559
2722.822698
2751.028349
2771.487713
2786.87097
2799.346343
467.6055316
532.9628589
599.5358281
692.5685642
815.7590293
965.5593413
1098.582261
1238.832894
1381.060316
1527.065292
1672.296272
1812.901589
1945.98713
2070.910751
2183.000607
2284.959067
2374.861202
2453.357587
2518.666586
2573.374692
2618.46555
2654.533345
2683.858187
2706.455191
2725.1354
2714.626754
506.7976461
581.1210395
652.4698948
759.7166278
916.6570635
1043.008814
1177.322057
1315.935824
1453.123378
1594.503715
1731.004769
1861.542802
1985.1225
2097.221478
2198.789946
2290.118333
2367.889003
2432.616149
2490.265796
2537.394589
2575.438212
2608.242431
2633.66067
2624.980007
2637.211006
487.7141539
558.5017559
625.2868905
717.4180824
838.0445167
979.9397397
1105.222699
1236.648908
1370.060956
1502.96859
1636.755584
1763.197137
1882.586494
1992.573316
2094.410652
2187.009118
2265.413385
2334.819254
2393.032972
2442.678914
2483.727038
2518.338888
2546.305855
2543.424307
2557.40631
519.3438424
595.7326695
670.0215764
767.8200035
891.2056208
1038.921963
1163.964804
1289.27399
1415.867705
1541.140825
1663.636977
1779.293649
1886.15445
1985.312351
2074.886055
2153.842067
2221.931084
2282.447253
2334.63132
2378.237449
2414.283003
2421.018536
2442.406743
2475.050605
558.2058613
637.0198763
709.2911794
808.4265664
932.5693674
1073.22347
1191.251798
1311.248675
1432.346677
1546.791373
1659.820489
1764.535694
1861.793439
1950.51789
2029.244981
2100.54827
2163.560843
2216.888561
2263.082624
2278.560075
2307.076841
2344.453842
2392.480743
529.9462573
601.7015878
670.80192
743.0573241
841.8954389
963.7775283
1101.049859
1213.708698
1325.683191
1436.085541
1542.486416
1644.124443
1738.63226
1827.412729
1906.959533
1978.531073
2041.120687
2063.269256
2105.330939
2153.143026
2201.636099
2244.00206
2299.120749
557.4110111
630.6203821
700.9472302
774.1101686
870.6467017
972.6448637
1083.643959
1219.919646
1325.882399
1426.699352
1523.058057
1613.866518
1698.796972
1776.907674
1813.261153
1866.959864
1923.247166
1978.176226
2039.448917
2091.981845
2141.476974
579.424598
640.0393289
719.0517522
797.7368923
875.3727622
971.5302841
1071.712971
1162.212694
1251.888911
1340.962438
1428.803243
1512.53405
1595.146819
1667.00627
1729.381209
1796.991598
1871.517208
1932.134724
1986.583037
657.276809
742.7183226
816.1716022
888.8626504
966.0207685
1044.402302
1126.019925
1208.578406
1291.360164
1374.688306
1455.637913
1538.02567
1619.583939
1685.04305
1753.043454
1823.15766
678.7446099
742.2075863
801.0392408
890.7856305
971.5178734
1048.119359
1125.174723
1204.414117
1285.222562
1348.170059
1418.332519
1502.757852
1570.570263
809.3592228
884.4243381
949.9293992
1020.989124
1097.368602
1176.74396
1237.842803
406.6887997
463.5033103
541.1356252
658.1226417
770.990824
897.1959309
1038.727208
1193.722197
1359.804737
1536.098925
1718.162641
1900.305062
2080.436489
2252.027163
2412.303949
2556.679106
2684.446124
2794.453314
2886.69487
2960.824042
3018.949488
3062.729086
3096.212274
3119.729765
3136.263995
3146.450344
3151.443369
3153.966796
3152.619173
400.3503141
459.1122069
539.996926
655.4741446
769.7402366
897.7986428
1039.798955
1195.007508
1362.499222
1538.513779
1718.031643
1901.371964
2080.015974
2252.472816
2411.629974
2554.225426
2681.533916
2791.860132
2880.875872
2952.560163
3011.58143
3057.006997
3088.937014
3112.331742
3129.420918
3137.837812
3143.413937
3145.246443
3144.304472
445.6061663
528.4167763
624.409433
753.0403954
877.0969917
1014.561131
1168.009877
1330.996585
1506.712831
1686.148706
1867.365732
2045.77102
2215.281484
2377.894048
2524.636187
2651.584497
2758.843404
2850.359911
2924.613631
2983.477367
3029.926469
3064.123985
3086.629037
3103.399544
3114.424708
3120.790237
3123.824363
3122.512804
440.5975168
510.0947714
602.7239911
743.769872
867.4571818
1004.709488
1154.690794
1314.4286
1485.69795
1659.866517
1838.43611
2011.92132
2179.880035
2335.206931
2476.115858
2602.060121
2712.118695
2802.462803
2877.512558
2937.921296
2984.331139
3020.716226
3047.109948
3065.075564
3076.931467
3084.019366
3085.804793
3086.405755
434.4076049
499.6927268
587.4985634
722.0905638
843.5140327
978.6688901
1124.829553
1281.913244
1447.406493
1618.491882
1791.463756
1962.354258
2128.4695
2282.315448
2420.983539
2546.469432
2655.156406
2746.311514
2820.097895
2883.705811
2932.085371
2969.827622
2995.763998
3015.845502
3029.660618
3038.008104
3042.735671
3044.214588
425.9915244
486.6765185
568.7748743
692.953903
806.1673061
933.9533914
1074.231214
1225.511768
1384.376393
1551.297859
1721.057594
1890.530101
2053.02337
2203.534997
2344.00449
2469.829222
2579.184806
2671.352015
2749.895436
2814.187429
2865.360561
2903.964686
2933.604092
2955.516494
2970.059737
2980.588707
2987.803921
2990.274787
414.0189347
472.6465045
547.6136843
649.0814314
778.3268323
899.5072035
1034.143483
1179.036921
1333.443632
1493.637095
1655.23979
1815.232318
1972.437925
2122.173868
2257.014267
2380.078651
2491.260267
2585.52615
2664.857423
2729.778898
2784.193575
2826.024158
2857.979679
2882.835183
2901.859612
2915.035537
2923.032609
2928.182567
451.3450567
520.8743011
608.9752475
741.97031
857.4496331
987.287844
1126.702022
1273.356649
1427.322667
1584.033925
1740.214049
1892.198705
2036.304994
2172.475131
2294.018704
2401.414432
2496.850036
2576.510467
2642.694737
2698.001501
2741.199958
2776.663754
2804.786912
2823.31512
2839.05649
2849.938914
2856.652564
433.9059637
496.2052252
573.7157132
675.3982047
804.5350284
925.6497637
1057.846243
1197.716636
1342.447475
1494.047506
1645.058667
1794.687842
1936.750375
2065.947239
2185.772985
2295.30146
2390.450556
2470.738008
2540.10422
2598.26663
2643.626093
2682.158743
2710.854592
2734.311738
2751.69388
2765.058531
2773.946226
468.8421577
540.7583344
621.8955869
732.7122572
871.0897906
995.8569102
1127.888552
1265.557072
1404.431919
1548.631971
1688.760027
1822.959781
1949.272446
2069.380491
2176.478076
2271.614247
2352.551151
2421.549132
2482.043115
2531.515035
2570.890872
2604.129448
2631.360905
2652.310134
2668.28417
2680.384734
448.3138523
510.2425551
575.3805305
668.7117849
806.212363
918.6639563
1040.059867
1169.196982
1301.581286
1435.220022
1567.836523
1696.30728
1819.448109
1934.327452
2037.695337
2134.258413
2218.738664
2291.781662
2353.973012
2405.875922
2450.261263
2487.709281
2516.875463
2540.735857
2559.773347
2574.356642
472.7644609
541.7237319
623.8264805
726.4895642
852.6968712
965.7074569
1086.233576
1209.075051
1335.28037
1458.607809
1582.329243
1698.053055
1806.80627
1908.959729
2002.910575
2085.436066
2159.206862
2222.919648
2278.099289
2324.392413
2363.440986
2396.819734
2424.468249
2418.355004
2436.753771
503.7022709
575.1368402
654.8651959
756.3419463
880.4740791
989.4750834
1103.076986
1218.460618
1335.232911
1450.561342
1563.948663
1668.698502
1767.519019
1858.610935
1941.734555
2016.82649
2082.658255
2140.397488
2189.944622
2233.543742
2268.955373
2272.50752
2290.243957
2320.422529
477.465848
537.1054113
598.6411738
679.2800991
767.1955771
869.8703213
1003.197409
1111.728349
1220.324362
1328.280899
1432.961673
1533.194443
1629.245073
1717.53469
1799.466179
1873.702875
1939.477282
2000.176563
2053.054944
2097.970321
2111.4358
2136.75231
2172.357511
2206.785953
496.7173076
546.2255954
615.1753023
685.1613996
772.4350864
879.9885723
1001.631924
1101.298172
1200.848208
1299.083704
1395.443931
1486.543194
1572.881052
1652.981986
1725.900465
1793.099502
1853.202962
1875.045473
1917.433589
1964.689985
2011.945764
2056.263879
2094.340967
556.7284668
632.2301943
699.056307
779.5502327
866.5059937
950.4346592
1047.668305
1168.482543
1256.72392
1341.712407
1425.245744
1502.543282
1542.474368
1595.73531
1660.320709
1720.99787
1775.436612
1821.359914
1884.469897
1945.968377
576.6429791
632.4383871
704.7879601
776.0682701
842.6076938
929.4029422
1018.263791
1096.514727
1173.383518
1251.080422
1325.96471
1393.653488
1452.684525
1517.812665
1589.485917
1650.520609
1702.374815
638.8555764
700.064684
771.8427928
844.1822361
911.3708253
981.2888647
1053.396722
1126.030599
1198.146888
1270.140455
1332.101222
1399.792507
1476.704125
1538.264651
699.1439714
762.0601136
819.1645814
880.3314118
948.5615143
1018.457576
1090.589722
1165.522674
1225.523921
396.1766657
473.1600965
577.0417007
683.6782609
804.0568072
941.9946956
1097.328568
1269.484213
1455.699013
1649.604551
1851.941314
2056.71376
2259.132847
2450.049807
2626.726876
2786.12055
2923.383649
3038.904307
3131.632808
3205.788287
3259.245883
3297.616577
3324.624979
3343.065089
3352.450445
3355.413242
3355.144565
3350.74368
3340.406851
3331.014835
395.2736963
466.7279876
553.1163839
675.14754
796.2118274
933.0557434
1087.358807
1257.085501
1441.678516
1637.937305
1840.232659
2045.142189
2247.610756
2439.412223
2618.202074
2775.67282
2913.362721
3027.224427
3121.237483
3195.301253
3251.129822
3290.875727
3316.120814
3333.179249
3342.763991
3346.270054
3345.395346
3340.839864
3332.71468
3322.526999
394.629939
454.3433286
537.0973766
670.4809823
790.2602392
928.3190269
1079.896937
1248.732939
1433.084985
1627.193233
1828.18609
2030.103865
2230.320565
2418.039109
2594.994195
2752.589812
2889.924753
3004.936355
3096.429873
3169.003448
3224.451691
3264.361121
3292.863178
3309.167676
3319.925064
3323.978916
3322.916842
3318.97089
3310.572898
3301.016448
389.1492922
446.015239
526.6114125
654.8464978
770.4534701
902.0383715
1049.613565
1215.750096
1393.443213
1583.550329
1781.325478
1980.776695
2178.04588
2368.371801
2541.755646
2698.529829
2834.892627
2950.879097
3045.986974
3120.627693
3177.756628
3219.427314
3250.608424
3268.509099
3280.520448
3286.09346
3286.117079
3281.575423
3275.064496
3265.632659
385.138363
437.7899091
513.4902774
633.2406198
744.2634718
870.6221171
1014.339739
1172.829531
1344.602033
1526.200937
1716.11818
1912.482531
2105.739483
2293.085218
2466.974055
2624.554425
2761.585416
2880.691227
2976.314404
3054.1317
3116.20089
3159.849402
3191.311626
3214.186581
3228.386267
3235.317608
3237.145669
3235.485481
3231.14303
3225.033199
375.87497
427.6442625
502.5112739
614.8443213
723.1308225
846.6408672
984.6994025
1140.013986
1308.58554
1486.018852
1672.655148
1861.423078
2048.978367
2231.034703
2400.909652
2555.35904
2690.389233
2808.147588
2905.121884
2983.378562
3044.457581
3091.72691
3125.956506
3149.662027
3166.762095
3174.136437
3178.457444
3179.513204
3175.885232
3168.759237
409.5578878
482.279631
572.038344
690.9751445
809.0076162
939.7005308
1085.423976
1244.7056
1416.179341
1597.217431
1779.598682
1962.381008
2139.011813
2304.714996
2458.046321
2594.211864
2710.329436
2809.385298
2892.215844
2956.121012
3005.806531
3041.92798
3069.009357
3088.139801
3099.318411
3106.337346
3109.276661
3107.701623
3104.331618
400.772838
458.0561515
536.59635
656.53268
766.62868
892.1876526
1029.9204
1182.336668
1344.537324
1516.142774
1691.172947
1867.18763
2038.980358
2203.020211
2352.185336
2486.891502
2605.462944
2705.54638
2787.0892
2855.031761
2907.131078
2946.974714
2979.049213
3000.961251
3014.936139
3025.10175
3029.208347
3031.319806
3030.143078
387.976863
439.2563938
509.0422122
604.1191298
728.0970745
848.9682292
982.0026507
1126.338723
1281.428192
1443.264038
1610.953741
1779.834485
1944.813562
2101.245937
2246.608775
2379.469292
2494.202318
2593.94145
2678.998981
2747.907351
2804.027737
2846.513175
2878.731336
2903.728223
2922.174379
2933.711093
2940.693806
2945.281672
2945.701745
418.9675077
478.1151966
558.4575019
679.5642954
787.9379525
908.954586
1042.049918
1184.666729
1338.940176
1493.686322
1653.044457
1809.402808
1961.713201
2103.451225
2237.204825
2353.945152
2456.236485
2542.219196
2614.488379
2674.364087
2721.797015
2759.302613
2789.401271
2812.277959
2828.589154
2839.72812
2846.252534
2850.191931
399.3655136
452.7300273
522.9285488
616.9788118
736.3622642
848.5434029
973.0888537
1105.987939
1247.529349
1393.34436
1544.66618
1692.575211
1836.82789
1972.059167
2098.602098
2212.411895
2315.032993
2403.297199
2477.540392
2539.437667
2590.932864
2633.035767
2666.478868
2692.083967
2711.982502
2726.388802
2736.842857
2744.218217
426.2648267
486.1357491
558.9398479
656.2799707
781.0911546
893.9331097
1017.946926
1148.476612
1285.08967
1422.800624
1562.034944
1701.460982
1833.454935
1954.092577
2066.931038
2168.774337
2256.709194
2332.487975
2398.225504
2453.994356
2498.750983
2535.405585
2565.600001
2589.598459
2608.218156
2621.689021
2632.171118
407.0800587
458.4505813
514.5367771
597.0040747
720.1043462
825.3417602
937.6339131
1056.672731
1182.563006
1310.745582
1440.065237
1566.202045
1690.630355
1807.128027
1916.037052
2014.93723
2102.432358
2182.389239
2250.642201
2308.896402
2358.232745
2398.279833
2432.436559
2460.783631
2481.975331
2500.033783
2513.93505
426.0320352
481.2755236
550.2810018
638.5338698
748.4006392
852.3323653
961.8283983
1077.046685
1195.365797
1315.979917
1437.334622
1555.053513
1666.930478
1771.585643
1868.233034
1955.11367
2032.342738
2101.751829
2162.358538
2215.127725
2258.186912
2294.225455
2325.343025
2351.021908
2371.952871
2362.921695
445.6926049
505.0283339
575.3102014
652.1818612
746.8844063
872.908002
979.2337074
1089.562936
1200.254242
1310.443618
1420.945365
1525.519893
1623.328613
1716.663285
1802.070028
1879.361749
1947.481413
2008.633868
2062.347997
2109.061688
2148.715034
2183.385035
2212.225099
2211.484081
2226.703608
462.7217789
521.8747868
579.1231277
655.3942851
754.9731019
872.9214929
972.2145941
1072.601618
1173.645352
1275.124698
1372.98509
1466.719413
1556.599798
1638.745819
1714.727779
1783.829214
1846.790128
1902.610849
1951.692763
1994.441199
1999.014461
2025.745798
2062.626513
2100.102493
477.1026281
535.9978626
591.8806282
665.9209436
747.3030609
837.6106539
955.2436328
1047.337638
1140.071418
1230.466614
1318.635892
1402.900478
1482.591358
1556.654557
1625.32908
1687.448936
1743.367693
1793.746544
1814.484774
1842.875277
1879.715594
1920.512637
1976.195182
490.5779251
536.5080858
597.9184045
659.8669965
734.6925361
817.9823121
903.7007162
1012.829962
1096.688728
1177.461145
1255.298954
1330.622015
1403.137835
1468.14597
1499.784463
1546.340312
1602.496216
1658.271723
1708.804842
1756.845261
1803.024968
538.0955783
590.7257201
654.0762774
718.5126282
789.979162
867.4152645
935.4262884
1006.262742
1077.285619
1147.334364
1216.192259
1285.67064
1347.044363
1402.317079
1462.773176
1516.576463
1581.116934
1644.029853
586.9199813
641.6510595
691.9961096
761.055519
827.1462472
888.8312088
952.177442
1018.263304
1085.860495
1150.296534
1206.83183
1272.729779
1346.240167
1407.897873
686.3904376
748.0388312
799.9906186
856.902195
920.5160412
985.4199091
1049.644333
1105.942495
351.8599723
398.225135
468.6666918
584.9127654
694.2277276
822.1157886
967.1308033
1134.550976
1321.836042
1527.417833
1744.573521
1971.032373
2205.040049
2431.462793
2647.535798
2844.778057
3021.189479
3171.06031
3294.214923
3391.21412
3462.352475
3512.849976
3545.401097
3564.483338
3574.102878
3575.610881
3570.055196
3560.625143
3545.817764
3530.99982
3516.302692
3498.314666
351.4130143
397.2126088
466.2949996
583.2960213
692.4686439
820.4130037
968.7460681
1139.019294
1323.949265
1528.327569
1747.283001
1976.212845
2206.301154
2433.479779
2648.531055
2845.447278
3019.703367
3167.355306
3288.060407
3383.452508
3455.466521
3505.882883
3538.684042
3557.127846
3565.762463
3566.457492
3561.212593
3551.664839
3538.310808
3521.818443
3504.988432
3488.794091
350.561886
395.7218093
463.4416068
574.8172853
683.3888429
809.3121111
954.7238779
1117.221693
1300.642703
1503.552462
1719.434303
1944.310192
2172.311989
2397.549951
2609.694665
2808.16506
2982.503421
3130.937644
3252.915896
3348.885162
3422.190798
3473.389806
3507.927278
3529.447747
3537.281251
3538.415793
3534.723835
3524.786441
3513.670348
3501.368174
3485.044032
3467.632551
344.1121671
388.0749165
455.6831951
562.3439062
665.7259468
786.6810346
926.4756361
1086.17203
1265.116948
1458.592021
1665.519165
1885.635078
2110.136371
2331.214342
2544.82413
2742.236578
2918.324037
3069.609856
3192.156421
3290.490449
3365.365219
3420.881154
3457.681033
3479.773159
3490.206223
3495.939164
3492.962161
3485.985994
3475.860656
3461.679404
3447.654883
3433.167265
375.2403593
447.9723516
547.8202091
648.9521586
767.4330222
902.2530485
1057.034542
1233.617706
1425.814003
1628.072961
1841.932878
2062.397189
2279.294771
2486.791183
2678.989036
2852.947415
3001.013716
3125.638181
3224.698503
3301.139518
3358.287621
3396.405831
3422.441807
3437.581059
3442.724093
3441.365471
3436.113725
3426.392602
3416.102608
3403.911996
3389.191031
369.6094816
434.107571
514.5764219
628.0161135
744.7710633
876.9037763
1028.256065
1197.228184
1385.269035
1584.563351
1794.178879
2007.416004
2216.906454
2420.66401
2611.756883
2781.958527
2929.897708
3054.00365
3152.832402
3230.301716
3288.038124
3329.490538
3356.192301
3371.312087
3378.902778
3381.138744
3377.24926
3369.522767
3358.374595
3345.846834
3333.702718
364.1241538
414.5630337
486.8430587
602.6754542
708.9485684
835.7459281
980.6345701
1140.429826
1316.645924
1506.18854
1708.763701
1912.106502
2118.903616
2316.242966
2501.095689
2669.483219
2817.117848
2943.006525
3045.215763
3126.242205
3187.775684
3232.869252
3265.312446
3286.044429
3295.429155
3299.596708
3300.296654
3296.701714
3288.597009
3279.498821
3269.927373
352.7995174
398.9648388
467.4721266
573.4029822
675.4192775
793.9574203
927.496251
1078.978222
1243.049814
1422.699428
1612.863541
1806.896033
2000.324947
2191.679567
2376.493309
2541.24603
2687.111168
2813.533995
2918.808256
3004.71862
3070.625837
3119.727515
3156.183049
3181.713365
3196.305492
3205.470627
3210.11199
3209.107504
3204.342195
3198.001987
3189.921856
381.541428
447.4474759
526.7337885
636.5717429
748.1690985
875.3180124
1016.542222
1172.646471
1341.073696
1520.23623
1707.164966
1896.4984
2080.141747
2255.971356
2419.24724
2565.476928
2688.97364
2795.266738
2882.056382
2951.937052
3005.399243
3043.448745
3072.300499
3095.085859
3107.266792
3114.140348
3116.613365
3114.901588
3109.548253
3103.403635
366.5596626
417.4796317
490.6708425
603.1441965
707.0418202
824.8964008
957.8885598
1104.916952
1262.771851
1433.220272
1606.326736
1782.060504
1954.786288
2122.29385
2278.929345
2420.365225
2544.919932
2651.045829
2740.336581
2813.526032
2872.197979
2917.372571
2950.254287
2974.540074
2991.033883
3001.939118
3007.868833
3010.322757
3009.865368
3007.199505
392.2931248
461.6075193
543.900728
656.0000473
764.7650179
885.8666973
1022.110283
1171.248996
1328.935951
1492.719279
1659.558622
1824.527274
1984.357805
2135.691436
2274.008406
2396.106503
2502.950273
2594.579202
2669.762028
2732.206017
2780.101543
2816.760095
2846.628066
2867.730606
2881.888936
2892.20695
2897.698848
2900.063135
2900.030629
376.7327255
427.2351968
499.6098828
607.5612466
707.9906634
818.7597881
943.0690742
1079.656939
1223.327667
1375.446053
1531.221114
1684.945937
1836.231905
1981.507538
2114.27579
2235.63231
2343.396681
2434.835172
2514.272076
2579.270474
2633.389914
2674.068233
2707.196751
2732.746893
2753.940132
2768.530171
2777.5955
2783.441612
2785.769762
398.6462101
466.6173432
542.9566702
645.1842631
746.3493837
858.3449989
981.89426
1112.428689
1252.330641
1395.413173
1540.07865
1682.430494
1821.273357
1951.446242
2069.552936
2175.758258
2268.755637
2349.908374
2420.228843
2477.498551
2523.412916
2561.974412
2592.949213
2616.39309
2634.577192
2648.970433
2658.981492
2666.077946
380.9571336
430.3330559
493.8761882
576.9199481
686.6588348
790.0525535
902.6965721
1021.445242
1148.902051
1282.363557
1414.999889
1547.31403
1675.963471
1797.417629
1911.159116
2012.91051
2106.337277
2187.061271
2256.988105
2318.316655
2369.232946
2410.357288
2444.275904
2472.848703
2494.147096
2512.337378
2526.608381
2536.763528
401.2975175
451.0478739
515.8732867
600.889238
707.9637819
806.7369397
913.5988987
1025.484268
1143.857866
1266.580225
1388.265603
1507.28313
1621.900528
1730.627322
1833.240911
1924.329408
2008.341879
2081.130594
2144.508025
2199.212744
2246.494902
2285.471954
2317.429115
2344.870758
2366.504563
2385.266274
2399.301261
412.4799449
465.8702881
531.0146676
616.3858869
719.5010405
815.2200044
916.576386
1023.308007
1131.474605
1242.47578
1354.120795
1461.258979
1564.504276
1663.193137
1752.704426
1834.25284
1908.548069
1974.813988
2031.994431
2081.566157
2124.866604
2161.413423
2192.595637
2218.580175
2240.107777
2258.476817
427.1836086
483.6122318
550.4672812
633.7171008
736.134814
828.4850688
923.4768009
1022.502225
1122.391241
1222.476374
1321.117179
1416.40494
1507.411113
1593.283283
1671.740215
1742.90452
1808.914351
1867.624991
1919.160634
1965.583071
2004.358058
2037.329241
2067.830493
2067.49255
2087.322541
440.1175425
493.4405696
556.4520929
626.3066049
705.8351164
813.9415397
902.7688851
992.4044321
1083.551552
1175.516085
1264.05662
1350.415662
1432.4283
1508.606037
1578.259623
1644.009191
1704.926728
1756.660587
1803.898827
1846.515125
1882.997753
1894.956322
1917.026188
1948.202327
448.9414598
502.5154424
553.6646104
618.4977043
691.6455643
772.6513614
880.0373649
963.4705029
1045.354156
1127.718402
1208.077345
1284.073752
1355.710248
1423.506857
1487.060814
1545.03653
1599.751984
1647.955372
1667.524506
1702.107714
1743.794708
1775.907951
1826.397245
454.5051954
495.5089172
549.3110604
602.7856337