/*--------------------------------*- C++ -*----------------------------------*\
| =========                 |                                                 |
| \\      /  F ield         | OpenFOAM: The Open Source CFD Toolbox           |
|  \\    /   O peration     | Version:  v1706                                 |
|   \\  /    A nd           | Web:      www.OpenFOAM.com                      |
|    \\/     M anipulation  |                                                 |
\*---------------------------------------------------------------------------*/
FoamFile
{
    version     2.0;
    format      ascii;
    class       volScalarField;
    location    "3.2711";
    object      Trot_mixture;
}
// * * * * * * * * * * * * * * * * * * * * * * * * * * * * * * * * * * * * * //

dimensions      [0 0 0 1 0 0 0];


internalField   nonuniform List<scalar> 
60268
(
936.514385
1055.623305
1152.677992
1255.942869
1361.398679
1467.396284
1576.010305
1683.395027
1788.484743
1888.975668
1949.127933
918.9623391
1044.133995
1152.296138
1251.812546
1355.714923
1461.955239
1571.105034
1678.664743
1783.130172
1883.9484
1942.038634
1019.84258
1139.32036
1238.808655
1342.063284
1449.839791
1557.164229
1662.192107
1769.23262
1846.423164
1915.309698
991.2405277
1114.58905
1220.327421
1323.048854
1429.675172
1534.277056
1638.91084
1744.604523
1805.95922
1062.041025
1194.028641
1300.419346
1404.059779
1508.670183
1584.713132
1676.753756
1762.921966
1121.781419
1237.613842
1332.792872
1436.385351
1514.740425
702.3393717
810.4475735
897.3862747
993.6325407
1128.18995
1308.442037
1437.801497
1566.816752
1690.104321
1806.964971
1916.160474
2016.223957
2107.374084
2188.558148
2216.954066
2262.689272
2334.403788
2404.662388
2470.735656
2512.389378
701.42189
804.2118151
891.1652268
984.1140598
1110.95709
1262.13535
1421.214794
1549.093501
1672.905013
1790.025322
1900.329489
2001.805351
2091.653768
2173.416496
2206.269125
2251.626274
2323.967879
2394.97247
2460.301006
2502.135623
692.2311382
795.5580925
882.6528064
976.1608651
1083.576146
1223.521304
1403.448294
1529.451545
1651.037632
1767.67559
1874.873429
1975.244612
2066.703898
2112.595104
2170.271377
2229.180119
2306.445397
2377.36433
2426.998463
2475.926864
686.6333188
784.8093745
871.6122787
965.2500479
1063.213934
1194.089103
1344.69283
1500.166514
1621.092033
1735.213001
1844.479929
1944.247179
2032.706888
2077.520341
2131.676695
2200.088528
2280.16943
2353.438251
2395.589129
665.7078109
763.7495452
851.9907974
943.4034334
1040.111441
1144.609985
1272.951709
1422.266796
1571.396254
1687.61226
1794.672073
1859.067015
1938.464684
2012.962542
2084.157733
2167.217439
2246.321623
2318.658087
2365.275022
732.4491305
834.7820831
921.1142626
1015.726042
1113.310179
1218.920783
1347.525989
1472.481764
1580.016149
1684.793939
1781.141325
1865.463708
1945.518544
2032.703781
2122.188056
2204.055456
2261.801905
2317.76109
705.6044827
803.0194608
891.5625377
981.8550526
1076.389923
1175.428269
1279.259413
1388.334327
1490.687249
1592.030963
1691.375791
1790.333517
1889.993832
1981.85972
2068.608557
2131.427954
2191.169407
756.0104826
858.4239895
948.7800478
1037.960844
1134.703319
1232.924346
1333.680756
1434.166407
1536.171242
1635.632093
1734.018085
1830.541049
1923.567813
1990.695881
2053.340724
805.2186644
909.0478066
999.5551528
1089.832215
1184.605944
1280.675558
1379.008514
1478.264351
1576.104075
1674.759689
1772.879063
1843.985269
1907.884049
850.0306875
933.809694
1036.921426
1135.654535
1228.780575
1322.807724
1418.089719
1513.534905
1586.817749
1673.007822
1753.943853
966.5286953
1058.309427
1141.151387
1230.725675
1325.794901
1420.494833
1497.444928
569.3298409
656.0526267
732.2369588
853.5446482
1023.793801
1160.038905
1302.157956
1447.114059
1591.92993
1735.98019
1873.815975
2004.643938
2124.694847
2234.206352
2332.468611
2416.814956
2489.245457
2550.054857
2599.807884
2641.117553
2674.429435
2701.656907
2698.106878
2717.214763
566.0883234
653.5374863
731.0124044
851.7322151
1025.687025
1159.850345
1299.248008
1442.990205
1587.366794
1727.590138
1864.841068
1993.630048
2113.253522
2222.280355
2318.07401
2403.204136
2476.011766
2535.945818
2586.769627
2630.127161
2664.027696
2691.719213
2689.274947
2708.202273
562.588702
647.7648628
723.5902323
841.9880672
1009.125686
1142.668264
1281.455333
1424.639413
1567.948481
1708.745364
1844.182526
1973.649776
2091.581526
2200.810829
2297.156682
2380.950462
2452.864626
2514.389251
2564.751223
2607.155396
2641.176791
2639.141056
2656.859636
2686.723931
558.3018446
639.9296927
714.9261891
828.5459593
988.256764
1118.733289
1253.722314
1392.927465
1533.556726
1671.525095
1804.330068
1930.660828
2049.523457
2156.361892
2251.492442
2337.682396
2411.104067
2473.136029
2524.986079
2568.393643
2604.174777
2603.087891
2620.557277
2659.710714
539.8142081
624.004226
701.5413128
803.8465714
934.7702404
1087.620255
1222.093588
1358.146313
1494.756355
1630.647596
1761.959129
1889.138703
2003.854476
2109.576009
2204.89569
2289.572219
2361.740264
2425.254286
2479.120659
2524.377416
2561.351395
2562.864217
2583.795811
2628.873551
595.7968815
684.4239245
767.3547218
883.7813203
1041.168667
1170.551968
1302.376785
1436.953898
1571.985046
1701.741447
1824.167442
1940.312052
2047.416267
2142.589219
2227.175554
2301.092898
2365.869794
2421.519289
2466.464746
2476.473655
2502.123844
2538.360903
2586.186866
572.2144408
662.1671173
741.9877454
846.4773763
978.0726389
1129.078537
1257.571803
1387.946683
1515.278779
1641.60606
1759.722373
1873.298597
1977.687051
2070.475256
2155.18427
2230.156764
2294.806551
2350.62964
2364.981587
2395.557177
2436.65221
2486.927556
2524.935496
625.3819783
716.2827079
797.5362315
904.427265
1037.378456
1186.641957
1313.14035
1438.968687
1559.921744
1678.659273
1789.120523
1892.213212
1986.529973
2072.759425
2148.713351
2214.184215
2236.886975
2274.130628
2318.987275
2375.273955
2421.904079
2457.713102
598.3277726
686.5653146
767.113019
850.1975936
960.881029
1092.599187
1238.754795
1358.140132
1476.998802
1590.84874
1698.799975
1799.670328
1894.854927
1981.260053
2056.388012
2090.372379
2133.770501
2184.860365
2246.474143
2314.072042
2352.999646
639.316065
731.0703878
810.9704632
896.2676733
1003.334953
1116.711719
1238.548982
1381.827314
1491.2436
1597.218822
1696.206515
1788.594088
1837.67861
1903.472515
1968.540255
2029.991431
2098.337098
2171.229218
2225.183822
2276.962118
675.2380021
771.5523508
855.1870935
939.0279063
1030.990613
1138.106484
1249.580965
1349.201169
1447.446477
1542.896129
1634.968263
1717.459665
1788.245638
1861.3715
1942.735484
2021.435544
2082.003494
2139.259343
713.3775709
804.9307424
887.6488642
967.9363467
1055.968231
1146.499491
1233.687176
1326.587307
1418.455281
1510.119571
1598.880555
1687.68126
1776.406641
1841.853581
1916.186394
1989.45416
737.1186084
813.7373754
903.4866854
992.6010155
1075.331778
1163.050937
1251.0145
1339.772161
1430.318082
1518.688828
1586.30414
1664.172847
1737.925633
833.5445026
913.20175
983.9513543
1063.225838
1145.374961
1230.513974
1318.756003
1410.316329
1482.126577
458.9263915
523.0554198
586.7623599
691.5284101
851.1485608
982.3434834
1122.686968
1275.241434
1434.520374
1596.303834
1757.316874
1916.153961
2069.609408
2212.007763
2341.537058
2457.703692
2559.232053
2645.278672
2717.352415
2776.832108
2824.391256
2862.244864
2891.278571
2912.238824
2927.40572
2937.319198
2943.472417
455.9432284
520.5280179
584.561484
688.1741342
843.1471443
973.7694691
1115.984774
1268.349456
1425.835672
1587.488205
1751.8469
1910.622794
2065.335723
2208.752606
2338.15854
2453.175409
2554.795279
2641.314249
2712.853706
2769.601517
2817.053586
2855.086378
2882.704149
2904.290402
2919.166332
2928.104279
2935.002385
447.7147508
513.6415214
580.4566461
682.4824951
836.5833662
965.2722305
1104.870858
1252.713431
1408.331961
1568.131515
1728.741744
1884.942342
2033.878652
2177.745598
2306.916988
2423.698842
2523.692002
2612.065609
2684.008964
2743.943447
2791.389128
2829.202524
2857.419803
2879.08528
2895.94272
2906.917787
2914.179787
494.269997
570.711533
667.4811695
808.0081538
932.1864432
1066.169364
1209.624551
1360.172283
1516.655964
1674.962795
1829.015931
1979.341542
2118.671258
2249.184212
2365.839445
2468.828691
2557.572766
2632.051594
2694.624707
2744.234521
2785.005352
2816.476552
2840.392009
2858.275391
2870.56432
2878.307251
486.795534
559.58843
646.074072
763.0382726
907.0450841
1038.885012
1179.534569
1326.827465
1477.406753
1631.96838
1783.650464
1932.24113
2071.965225
2197.892403
2314.828114
2418.554513
2506.208551
2579.026563
2643.517117
2696.075661
2738.516341
2770.304501
2794.446673
2813.616529
2827.441442
2837.232191
479.4566863
549.2486908
618.8461927
725.7928788
881.002735
1010.353674
1145.806044
1287.989976
1436.726249
1585.654984
1734.760362
1879.133138
2013.631419
2140.015839
2253.672004
2354.655843
2442.668506
2518.046228
2582.230762
2634.978719
2677.543854
2712.478313
2739.745455
2759.63795
2774.789506
2785.894574
466.6207566
532.4313772
598.14873
691.0554492
813.2405587
962.1261327
1094.857105
1234.142379
1375.484305
1521.780389
1667.006173
1806.278849
1938.878074
2063.904671
2176.725125
2278.571943
2368.081793
2445.454384
2510.05019
2564.59696
2608.678909
2644.127554
2673.250256
2695.174364
2713.075599
2702.544951
506.0468531
579.2446443
650.6563739
757.804546
913.9277187
1038.964649
1172.757473
1310.589024
1448.24382
1587.811497
1724.478415
1854.78427
1978.92636
2090.938173
2192.324651
2282.925015
2360.489055
2425.134074
2482.027284
2528.683247
2566.122315
2598.256058
2622.649033
2613.948906
2625.946029
487.1422133
557.1137525
623.8476204
715.9711375
835.7142869
976.3730227
1101.845917
1232.433011
1365.166083
1497.620855
1631.148513
1757.970463
1876.865066
1986.960606
2087.928551
2179.749494
2258.478759
2326.70231
2384.991105
2434.254371
2475.201912
2509.456164
2536.832175
2533.273439
2546.602341
518.6175586
594.5741938
668.7153641
765.8907317
889.1416534
1035.863332
1159.901402
1284.916861
1412.017434
1537.155246
1659.167327
1774.288791
1880.747003
1979.694412
2068.954709
2147.577171
2215.596067
2275.904576
2327.267612
2370.887414
2406.612296
2412.742692
2433.254974
2465.698439
557.0908873
635.6544865
707.8524634
806.7241554
929.806567
1070.021563
1187.702339
1307.288264
1427.402346
1541.826333
1654.344522
1759.467953
1856.19319
1944.867931
2023.51548
2094.580044
2156.659153
2209.904098
2256.119325
2271.7109
2299.531211
2335.818888
2382.950296
529.2224622
600.5390238
669.0321416
741.3813093
840.046929
961.6297294
1097.944645
1209.872631
1321.511602
1432.111361
1538.153643
1639.456061
1734.351823
1822.849542
1902.04083
1973.127179
2035.802442
2057.645791
2099.414204
2147.014652
2194.856485
2236.802072
2291.052686
556.576788
629.3768936
699.3014046
772.5678621
868.5513589
970.6700414
1081.185993
1217.151128
1322.307185
1422.842601
1519.309264
1610.089342
1694.381879
1772.773929
1809.332169
1862.533142
1918.407261
1973.09513
2034.201328
2085.955677
2134.692235
579.1771263
639.9322593
718.4068884
796.3080524
873.1881905
969.4755949
1070.045952
1160.030807
1249.364551
1338.205012
1425.938995
1509.855554
1592.112972
1663.811778
1726.039081
1793.533737
1867.923989
1928.223009
1982.020999
657.1642373
741.6568525
815.8768976
888.0906014
965.0716333
1043.531568
1124.469223
1207.154337
1289.768014
1373.074275
1454.0795
1535.824256
1617.103422
1681.786865
1749.587363
1818.637316
678.4800023
741.8212053
800.9637008
890.0957795
970.7972634
1047.168427
1124.757916
1203.512582
1284.153451
1347.33057
1417.137461
1501.541233
1568.045927
809.1539924
884.2314318
950.0681693
1021.086074
1097.7263
1176.352138
1237.467229
406.2153138
462.0770917
539.2444177
655.1882048
767.8128198
892.5761023
1033.715219
1187.576864
1352.825476
1528.133514
1709.202137
1890.994301
2071.204863
2242.621076
2402.718616
2546.407927
2674.143586
2783.222457
2874.954681
2948.811239
3006.500052
3050.23937
3082.637758
3105.277383
3121.26423
3130.943407
3134.936935
3136.338929
3134.339318
399.9550455
457.9588407
538.1076082
653.1886585
766.9671982
893.1538847
1034.470937
1188.661521
1355.539943
1531.168819
1710.664788
1893.311715
2071.251992
2242.450096
2402.687581
2545.69139
2671.87577
2781.840352
2870.303755
2941.077181
2999.673455
3044.447422
3076.062036
3098.842326
3114.752581
3122.588689
3127.215118
3128.760544
3127.085524
444.5268246
526.8239222
622.0382868
749.4354117
872.4483557
1009.882079
1162.188389
1324.490858
1499.31362
1678.618527
1858.655961
2036.966846
2206.400135
2368.16166
2514.391055
2640.69525
2748.276552
2840.136485
2913.811243
2972.396616
3017.406837
3050.860787
3073.709143
3089.534989
3099.888669
3105.72197
3107.751161
3105.817259
439.8069051
508.7758332
600.4800576
740.9979863
864.3365958
1000.985545
1149.276115
1308.768611
1478.52471
1652.551382
1829.850471
2002.787698
2171.359725
2325.981175
2467.267341
2592.810255
2701.952565
2791.879531
2866.920998
2926.624251
2972.382218
3008.125158
3033.363228
3051.348805
3062.718043
3068.732228
3070.201073
3069.79772
433.3535461
497.915904
585.86153
719.7512846
839.8259108
974.0556491
1119.230707
1275.111711
1440.692636
1612.299726
1784.750148
1954.916961
2119.9895
2273.499778
2412.197477
2537.926981
2645.972838
2736.394006
2810.4252
2873.197278
2921.008084
2957.535718
2983.099809
3001.926653
3015.067887
3022.674654
3026.801868
3027.465796
425.1530047
485.5311062
567.5006047
690.4440906
803.7539914
929.8149021
1069.929569
1219.609451
1378.509452
1545.290376
1714.051803
1882.70942
2044.706908
2194.923835
2335.610388
2460.839839
2570.036331
2661.421526
2739.849875
2803.761505
2853.892786
2892.597481
2921.863963
2942.894376
2956.618372
2966.499305
2972.461218
2974.66173
413.6663484
471.9167159
546.2019908
646.7077534
775.2888255
895.9587597
1029.72864
1174.551571
1327.917957
1486.850656
1648.564798
1808.918299
1964.654789
2113.047167
2248.562365
2371.593922
2482.232491
2575.975145
2655.401756
2719.647069
2773.133022
2814.35487
2845.52315
2869.633269
2888.354313
2901.227551
2908.586226
2912.857624
450.9262693
519.6097899
606.9895731
738.9483225
854.5085396
982.8453455
1121.602765
1267.885648
1420.943082
1577.786423
1732.668926
1884.8044
2029.595131
2165.500283
2286.292363
2393.116026
2487.815837
2567.690335
2633.426001
2688.382211
2731.062263
2765.623084
2792.866078
2810.859327
2826.504
2837.022502
2843.236405
432.9328127
495.2380294
572.3449625
673.2362165
801.9166569
922.3595698
1053.074189
1192.768074
1338.026791
1488.351155
1638.968092
1787.973049
1930.373513
2059.542212
2178.390971
2287.071808
2382.116895
2462.588799
2531.742598
2589.774338
2635.22724
2673.024166
2701.166503
2723.931454
2739.810656
2752.551876
2761.121881
467.670288
538.8665702
619.897721
730.2935185
868.4110774
992.197862
1123.870447
1260.878638
1399.236143
1542.845015
1683.015181
1816.839215
1943.305139
2063.091018
2169.700022
2264.282123
2344.950122
2414.080884
2474.299568
2523.323922
2562.431404
2594.671798
2620.591448
2641.214978
2656.688595
2668.173849
447.926097
509.4027713
573.3685321
666.4194278
803.1989125
915.7552534
1036.295142
1165.100394
1297.091025
1429.534544
1562.00437
1690.528126
1812.978071
1928.411214
2032.304781
2127.543195
2211.663737
2284.353746
2346.274456
2397.867715
2441.663442
2478.467651
2507.198526
2530.308095
2548.867243
2563.169986
472.2731506
540.6615538
622.3250311
724.2718475
849.42666
962.2753235
1082.399918
1204.979373
1331.095812
1453.891649
1576.731464
1692.590962
1801.574535
1903.946725
1997.017839
2079.306759
2152.581072
2216.474696
2271.579401
2317.244744
2356.245128
2388.743187
2415.820366
2409.49934
2427.568717
502.9989022
574.2749707
653.3854977
754.8634897
878.0799702
986.157477
1100.04159
1215.324345
1331.521525
1446.548152
1558.947213
1663.560687
1762.243217
1853.372609
1936.943612
2011.737334
2076.655766
2134.124253
2183.651062
2226.2386
2261.854406
2264.951922
2282.494918
2312.008684
476.5875024
536.6596322
597.5394204
677.8243634
765.3944259
867.5210041
1000.444076
1108.387299
1217.1084
1324.512279
1429.192294
1529.172795
1624.9926
1714.104689
1795.08111
1868.860267
1934.655489
1994.64856
2047.662267
2092.065491
2105.150706
2130.032489
2164.895257
2199.368193
495.8799358
545.1482883
614.4647199
684.2627998
770.8485929
878.2318661
999.2533206
1098.21933
1197.622029
1296.147058
1392.409581
1483.085316
1569.209073
1649.302082
1722.091519
1788.938545
1848.524921
1870.402804
1912.690536
1960.048627
2007.061756
2050.838545
2088.24266
556.4285553
631.8840248
698.2291952
778.1951369
864.8454308
948.2075173
1045.510587
1165.455953
1253.962647
1338.630974
1422.117051
1498.918086
1538.755517
1592.675581
1656.932712
1716.90147
1771.366309
1817.076136
1879.807876
1940.75902
576.1161149
631.7221509
704.1999753
775.5436148
841.8066669
928.5134643
1017.539516
1095.045643
1172.001964
1248.764578
1323.952626
1391.625821
1450.762948
1515.514072
1586.975665
1647.809339
1699.050169
638.6899665
699.6521771
771.7898268
844.1819125
911.1820822
981.4210115
1052.705291
1125.255315
1197.285977
1269.378868
1331.072926
1398.695738
1474.819257
1536.263576
699.5974899
762.5839102
819.3210541
880.8884838
948.907913
1018.179508
1090.405487
1165.298723
1225.482822
395.4388223
472.3680284
574.6407481
680.7332578
800.5346732
937.8554531
1091.279511
1263.000226
1447.145653
1641.430259
1843.304327
2047.028406
2249.759357
2439.838965
2616.418731
2774.45622
2911.797467
3026.138661
3118.501265
3192.491435
3245.582853
3283.341418
3309.777004
3326.751226
3335.106692
3337.351623
3335.750116
3330.441004
3319.993694
3310.056325
394.6565481
465.3107555
551.2115531
672.3405378
792.2976408
926.9988919
1081.338155
1250.648574
1433.246943
1629.518582
1830.837267
2035.381956
2236.892919
2428.693927
2607.446763
2765.022621
2902.40536
3016.93221
3109.50655
3181.850987
3237.540095
3276.404991
3300.983205
3317.687737
3326.416553
3329.14242
3327.139511
3321.66854
3312.894794
3301.859043
394.0701516
452.9803605
535.5376553
667.6176043
786.5615814
923.3439149
1075.060333
1242.523026
1425.580966
1618.774773
1819.16678
2020.423831
2219.819685
2407.662678
2583.912027
2741.50623
2878.113231
2992.669959
3084.627407
3156.931509
3211.703869
3250.039179
3278.225371
3294.529142
3304.030582
3306.892929
3304.853734
3299.905777
3291.270077
3280.981167
388.391887
444.8391159
524.7896788
651.6867915
766.5877297
897.2052921
1044.075191
1209.087503
1385.818162
1575.270653
1771.989585
1971.112198
2167.584942
2358.084284
2530.777503
2687.352618
2823.934493
2939.409946
3033.971393
3108.039577
3164.94071
3205.829737
3236.053092
3253.393827
3264.304197
3268.928914
3268.126985
3263.328986
3255.436032
3246.269283
384.618093
437.0416434
511.9753433
630.9345681
741.302276
866.678297
1008.962308
1166.049238
1337.421952
1517.868434
1708.367562
1903.542883
2096.64311
2283.195344
2456.40849
2613.448834
2750.522817
2869.04849
2964.143749
3042.060827
3103.023577
3146.363033
3177.179522
3199.378693
3212.085589
3218.12145
3219.405585
3216.854741
3212.152799
3205.519798
375.0205411
426.5493554
500.9642998
612.4324669
720.1639265
842.3726053
980.2007363
1133.637794
1301.705193
1478.482402
1664.513387
1852.130929
2039.637199
2221.519206
2390.958306
2545.899661
2681.168596
2798.118617
2894.936849
2972.198881
3032.136927
3078.982418
3112.530903
3135.697971
3151.518077
3158.676478
3162.090089
3161.783175
3157.756482
3150.306198
408.7592185
481.2415556
569.953469
688.5184871
805.2145832
935.3400205
1080.465385
1239.494094
1409.546707
1589.455155
1771.007002
1953.637232
2129.969106
2295.586733
2448.575485
2584.233119
2700.708944
2799.217518
2881.465965
2944.468867
2993.712069
3029.6531
3054.730487
3073.341865
3084.400697
3090.471297
3092.735106
3090.561424
3086.448956
400.1983078
457.2231321
535.1736676
654.2574561
763.4522553
888.2180347
1025.027523
1175.771546
1337.546878
1509.172173
1683.801437
1858.889531
2030.216982
2194.705958
2343.949549
2477.608864
2596.130554
2695.592744
2777.243392
2844.439653
2895.895007
2935.193769
2966.198442
2987.437174
3001.039582
3010.416208
3014.10745
3015.591558
3013.50101
387.3516253
438.0646837
507.8597362
601.8585612
725.4401228
845.0972222
977.4145776
1120.800969
1275.373268
1437.580878
1603.907256
1772.399415
1937.769131
2093.994792
2238.649206
2370.918771
2484.956695
2584.815347
2669.481028
2738.442395
2793.645231
2835.548057
2867.167306
2891.365934
2908.733051
2919.931975
2926.77341
2930.592619
2930.159581
418.1357257
476.8405781
556.5344924
676.9603776
785.1953205
905.3549912
1037.229784
1179.572191
1331.877403
1486.860573
1644.936885
1801.547235
1954.177578
2095.68288
2229.888289
2346.164313
2448.032009
2533.613164
2605.35245
2664.563659
2711.336202
2748.326801
2777.748462
2799.345051
2815.30184
2825.730313
2831.775784
2834.946342
398.6746769
451.5976557
521.6966186
614.8508463
732.882471
845.2734392
968.9181631
1101.539156
1242.39602
1387.807856
1537.983995
1684.735464
1828.135846
1963.7343
2090.01419
2204.330306
2306.722712
2394.951791
2469.176551
2531.765742
2582.652656
2623.964329
2656.664144
2680.840871
2699.971532
2714.201759
2723.998196
2730.726888
425.5933789
485.2338363
557.5175872
654.3004738
778.5576904
890.4832383
1013.445006
1143.358635
1279.4019
1417.485519
1556.527053
1695.351302
1827.008421
1947.376956
2059.493941
2161.112921
2248.859326
2324.606758
2389.835834
2444.780189
2489.59615
2526.073925
2555.703838
2578.970837
2597.109037
2609.884494
2619.492892
406.9251785
458.2617855
513.8652104
595.4471849
717.8362701
823.1269717
934.5130436
1052.927519
1178.249703
1305.728213
1434.685156
1561.045579
1685.232474
1801.605976
1910.353435
2008.982495
2096.162536
2175.399466
2243.901341
2301.875712
2350.839107
2390.23718
2423.430101
2451.298875
2472.316387
2489.877555
2503.328951
425.4505134
480.608184
549.1167895
637.1590949
746.1069687
849.2289159
958.0425378
1073.643579
1190.792811
1310.827033
1432.842139
1550.564647
1662.249007
1766.373527
1863.563581
1950.142937
2026.902815
2096.046092
2155.67681
2208.443313
2251.297638
2287.321038
2317.442484
2342.52099
2363.093727
2354.099357
445.1536114
504.4555379
574.3421133
650.4132741
744.5734283
870.2891375
976.2324055
1086.128231
1196.442589
1306.737004
1416.846418
1521.216642
1619.221726
1711.717379
1796.983135
1874.763831
1942.60313
2003.23097
2056.599732
2103.371818
2142.321687
2176.804427
2205.077948
2204.291573
2218.500624
462.0975238
521.1335012
578.4994986
654.3978808
753.3975287
870.995859
969.59455
1069.954695
1170.264559
1271.455805
1368.90636
1462.329805
1552.409087
1634.29014
1710.193644
1779.532641
1842.109559
1897.316899
1946.290891
1989.002424
1993.791409
2020.06981
2056.612704
2093.590655
476.4375445
535.3346831
591.2161256
664.9349846
746.1712104
836.1035228
953.6082866
1045.247222
1137.589453
1227.920978
1315.717365
1399.370802
1479.233073
1553.3044
1621.763012
1683.793467
1739.672094
1789.542419
1809.832269
1838.338613
1875.021393
1915.564657
1970.209789
489.9186609
535.8874502
597.2691227
659.3449256
733.686454
817.0581014
902.7653563
1011.673626
1094.546189
1175.180704
1253.042933
1328.145658
1399.790923
1464.999266
1496.99372
1543.20706
1599.318926
1654.961659
1705.334023
1753.083381
1799.133303
537.6965562
590.1624497
653.7937124
717.9764102
789.1263327
866.5531791
934.6046259
1005.302728
1076.171946
1146.108405
1214.991009
1283.532052
1344.737242
1399.775993
1459.793967
1513.829385
1577.935174
1640.134383
587.1542431
641.5211072
692.0205816
760.9121203
827.3577614
889.0214764
952.6683409
1018.134539
1084.983994
1149.891299
1206.284372
1271.78493
1344.460055
1405.803035
687.3202927
748.6840046
800.7844902
857.6115391
920.8233018
985.6185372
1049.801758
1105.804613
351.5051606
397.0917761
467.2293961
582.8524042
691.4240354
817.4681139
961.5714872
1127.54334
1313.48603
1518.028129
1734.679523
1961.031185
2193.794011
2419.620364
2634.863006
2832.305902
3008.570422
3158.562716
3280.349729
3377.027737
3447.585651
3497.3823
3528.790792
3547.465091
3555.24173
3555.900073
3549.326955
3538.992828
3523.885617
3508.814045
3492.81887
3474.17771
350.4936408
396.1172934
465.0701075
580.514232
688.575534
815.7727624
962.5002712
1132.181626
1317.000275
1519.746653
1737.875215
1965.248672
2195.052541
2421.743892
2635.940556
2833.08256
3007.379486
3154.160115
3275.142256
3369.955406
3441.275045
3491.373767
3522.831163
3540.499736
3548.238482
3548.076797
3542.119918
3531.562018
3517.380799
3499.893317
3483.085376
3465.578163
349.7449604
394.52718
462.3869867
572.2275233
679.6432199
804.6057063
948.8645374
1111.237583
1293.529074
1495.416542
1709.949966
1934.961815
2162.528217
2386.186825
2598.310507
2796.095879
2969.524065
3117.822799
3239.926271
3335.657709
3408.790544
3458.34126
3491.577748
3512.003706
3519.458516
3519.9133
3514.87678
3504.597473
3492.26151
3479.164967
3462.04597
3444.16968
343.0433191
387.3140997
453.918815
560.1873777
662.5755032
782.4866731
921.0484353
1080.059805
1257.878958
1450.297812
1657.024776
1876.410956
2099.974697
2319.540978
2532.735096
2729.168107
2904.773958
3056.118419
3178.432909
3276.912369
3350.938343
3406.262688
3441.805114
3463.191818
3472.866542
3477.140976
3473.511508
3466.057218
3455.091756
3440.443267
3425.880018
3410.546444
374.46201
446.4281994
545.2857612
645.8496509
763.5367625
897.7163299
1051.372104
1226.163507
1417.589642
1619.479133
1832.701756
2051.773441
2268.093673
2474.792288
2667.236621
2839.991687
2988.188975
3113.080247
3211.759757
3287.544824
3344.005858
3381.761728
3406.328237
3420.315418
3424.95718
3422.787128
3416.699494
3407.213293
3395.897241
3382.393771
3367.176505
368.733716
432.6862419
512.6696492
625.0557047
740.9934394
872.1866386
1023.190548
1191.386531
1378.539459
1576.416603
1785.339669
1998.404969
2207.439931
2410.787494
2600.632068
2771.445049
2919.894789
3043.267665
3140.851017
3217.416374
3274.546554
3315.855918
3341.378172
3355.834957
3362.251804
3363.931056
3359.295417
3350.757852
3339.095251
3325.320018
3312.300073
363.5547136
413.3517955
485.2751944
600.5014708
706.1144488
831.0924684
974.7595224
1134.231777
1309.690532
1498.682959
1699.523962
1902.653618
2109.08453
2306.209995
2491.017901
2659.318494
2806.093069
2932.051139
3033.281986
3114.057997
3175.102804
3219.194189
3250.661624
3270.569771
3280.356446
3283.753998
3283.11212
3278.52887
3269.453905
3259.435278
3248.332281
351.9031999
398.1469239
466.0521175
571.2739028
672.6737226
790.5944127
923.40404
1072.963245
1237.013021
1416.062688
1605.450643
1798.552294
1991.628839
2182.731143
2366.375493
2531.243176
2677.309301
2802.561503
2907.353466
2992.659965
3058.410085
3106.855314
3142.221269
3166.924174
3181.103403
3189.818213
3194.034209
3192.138988
3186.495391
3179.376709
3170.774448
380.1199689
445.9481114
525.0082533
634.1658876
744.8223841
870.6920963
1011.528183
1166.829358
1334.52458
1513.643877
1699.148888
1887.472014
2071.39549
2246.632042
2409.728314
2555.650116
2678.793922
2784.512054
2871.253704
2940.683844
2993.14281
3031.093406
3059.325531
3080.326826
3091.5876
3098.342402
3099.977097
3097.307854
3091.582317
3084.688908
365.6046883
416.2474089
489.3962001
600.6722163
703.7618657
821.0958642
953.4339789
1099.665146
1257.046352
1426.431411
1598.92172
1774.441513
1946.535251
2113.980125
2270.308001
2411.688054
2536.007143
2641.902254
2730.090608
2803.190868
2861.092847
2905.25958
2937.597582
2961.235238
2976.969125
2987.406626
2992.636504
2994.893612
2993.598281
2990.187734
391.5035493
460.3063845
541.9586053
653.2813664
760.8161036
881.7552781
1016.963322
1165.036406
1322.04405
1485.725865
1652.364707
1816.989972
1976.751878
2127.928684
2265.418378
2388.173228
2495.01228
2586.339251
2660.733241
2722.375709
2770.367751
2806.410167
2834.726264
2855.133241
2868.931129
2878.588881
2882.824869
2884.773395
2884.24939
375.4722077
426.0490108
498.3704169
605.1827663
704.9023248
814.6552082
938.6959735
1074.682803
1218.046787
1369.692603
1525.241788
1678.525112
1829.784459
1974.863052
2107.347485
2228.361705
2335.672694
2427.097958
2506.830031
2570.715254
2623.811912
2664.439765
2696.972246
2722.324296
2742.011855
2755.59136
2764.056676
2769.341624
2771.517928
397.789972
465.7517282
541.763946
642.7339541
743.3287369
854.793329
977.7757595
1107.870239
1247.346981
1389.534164
1534.076569
1676.394484
1814.595921
1944.386537
2061.969566
2168.079687
2261.556969
2342.466673
2412.458553
2469.026025
2514.828693
2552.312163
2582.476027
2606.285787
2623.529241
2637.232869
2646.617696
2652.95174
380.5641558
429.6728995
492.7547591
575.1539578
684.4980241
786.7911354
898.8462287
1017.008875
1144.526651
1277.022493
1409.639538
1542.627459
1670.039576
1791.252264
1905.240661
2006.907422
2100.078764
2181.241309
2250.3545
2310.561478
2361.58551
2402.447471
2435.988456
2463.48401
2484.668621
2501.891046
2515.3821
2524.808039
400.6572924
449.6419978
514.6925886
599.1606366
705.7032996
803.2976446
910.2689131
1021.538553
1139.550521
1262.08574
1383.168172
1502.476073
1616.373008
1725.229258
1827.595936
1918.413153
2002.039535
2074.58503
2138.231015
2192.542872
2239.670696
2278.420582
2310.236452
2336.847799
2358.122011
2375.553275
2389.314442
411.5500225
464.9655384
530.1492734
614.6974925
717.5029998
812.3578964
913.3326942
1019.414669
1127.911129
1237.683282
1349.025785
1456.252501
1559.917864
1658.627542
1748.232966
1829.099196
1903.218326
1969.272541
2025.446731
2075.10523
2118.297848
2154.814315
2185.29646
2210.999407
2232.183128
2249.344215
427.0008473
483.1591535
549.6025885
632.4103654
734.2590509
826.0157542
920.5375502
1019.19735
1119.133192
1219.191648
1317.464851
1412.583577
1503.551315
1589.057468
1667.184831
1738.538887
1804.398248
1862.851081
1913.823677
1959.940124
1998.623138
2031.342544
2061.463459
2060.773887
2080.426351
439.4863765
492.9548359
555.9530192
625.6951082
704.4574085
811.9036881
900.0200935
989.6778298
1080.788935
1172.20875
1260.486683
1346.614427
1428.583636
1505.222232
1574.435023
1640.07138
1700.842238
1752.91794
1799.773153
1841.681061
1878.063981
1889.865826
1911.387449
1942.553306
448.4709784
502.1683251
552.9531058
617.7520204
690.7110358
771.4712756
878.5506673
961.6391758
1043.441682
1125.540276
1205.231045
1281.332876
1352.997451
1420.457745
1483.594394
1540.963735
1595.772416
1643.863833
1663.657076
1698.161408
1740.025181
1772.252619
1822.184035
454.9078922
495.2929447