/*--------------------------------*- C++ -*----------------------------------*\
| =========                 |                                                 |
| \\      /  F ield         | OpenFOAM: The Open Source CFD Toolbox           |
|  \\    /   O peration     | Version:  v1706                                 |
|   \\  /    A nd           | Web:      www.OpenFOAM.com                      |
|    \\/     M anipulation  |                                                 |
\*---------------------------------------------------------------------------*/
FoamFile
{
    version     2.0;
    format      ascii;
    class       volScalarField;
    location    "3.2711";
    object      Trot_O2;
}
// * * * * * * * * * * * * * * * * * * * * * * * * * * * * * * * * * * * * * //

dimensions      [0 0 0 1 0 0 0];


internalField   nonuniform List<scalar> 
60268
(
934.6751032
1052.69737
1148.202912
1251.511274
1355.283011
1459.530637
1566.00688
1673.271274
1779.510656
1876.001954
1938.114829
916.3550156
1039.23949
1148.634994
1245.797694
1347.008884
1453.649428
1562.948547
1668.755605
1771.3188
1871.443098
1933.073395
1016.222242
1134.081836
1234.754077
1335.372216
1443.653103
1550.522044
1655.810126
1757.828288
1835.130383
1902.017612
992.7893447
1112.424741
1217.625681
1320.387415
1423.418195
1528.684365
1630.311134
1733.324396
1793.596834
1063.300664
1193.492306
1299.182029
1397.2297
1504.049272
1579.634509
1669.195226
1758.407772
1122.11405
1238.172901
1332.700227
1435.541538
1514.374807
698.0679129
806.6604293
892.7621414
985.6610867
1117.177364
1295.597176
1423.707144
1549.674713
1671.589984
1787.288511
1897.511124
1995.693716
2087.7587
2168.400737
2194.739463
2238.232837
2306.661353
2375.037645
2439.562899
2477.800885
697.0431489
799.7883255
884.2924293
974.5581026
1100.363352
1250.287011
1406.642146
1531.804218
1654.871497
1771.81085
1880.444201
1977.451066
2066.688228
2149.612135
2184.439686
2226.85869
2296.249059
2365.353721
2430.973774
2471.172462
689.3929322
793.6687449
877.5793397
971.298783
1075.734275
1212.804344
1391.18224
1512.876236
1632.929967
1749.525262
1855.808581
1955.081364
2046.086851
2091.289319
2149.104707
2206.296721
2281.301194
2348.320534
2397.757306
2442.368193
682.8154665
778.4444293
865.4879615
958.2405867
1056.008604
1186.763247
1332.898403
1487.464537
1605.909137
1719.257873
1824.974104
1926.971676
2013.028752
2058.754245
2111.910101
2178.736035
2256.448963
2327.673746
2369.342574
660.6276053
758.8281447
847.6871252
936.1438223
1030.249543
1136.516865
1265.160341
1411.205546
1555.313579
1671.249981
1779.53845
1843.563497
1922.968728
1997.307672
2065.332449
2143.589715
2223.255563
2294.014331
2337.451452
730.6109547
831.8346937
914.3762553
1009.907269
1107.411848
1211.383952
1337.109456
1461.58663
1569.341836
1672.297574
1769.911973
1854.236374
1932.600268
2018.194784
2106.689004
2183.546371
2239.268512
2293.703952
701.685712
798.8316277
889.830965
979.1125938
1073.251099
1170.36537
1271.767118
1379.622537
1480.858535
1582.161762
1679.739739
1777.065731
1877.64152
1968.334019
2051.786214
2111.369053
2167.599064
753.4407665
854.1182815
943.7973005
1033.788441
1129.012275
1227.105531
1328.793607
1426.462738
1527.721542
1624.89809
1723.226648
1818.449024
1909.062392
1974.2011
2034.460034
803.7009543
907.0525546
996.0774701
1085.45207
1179.991275
1274.966389
1372.566769
1470.353876
1569.027735
1667.018064
1761.916868
1832.006809
1894.356557
850.7409975
933.1277456
1036.083865
1133.003269
1225.422195
1319.545618
1412.9271
1508.096537
1578.578337
1664.036945
1743.708346
967.3077012
1054.389346
1140.825432
1227.50583
1320.536043
1416.142167
1494.309085
566.1445756
650.9914911
726.7252683
844.5560144
1008.625057
1143.527251
1281.791319
1426.10911
1569.464143
1709.869346
1846.868335
1975.109758
2094.682953
2204.772713
2303.893183
2385.644321
2454.925224
2515.681756
2562.847756
2602.225659
2635.102441
2659.964241
2654.977611
2675.313095
562.8371143
648.056489
721.4050656
841.4926128
1011.740372
1143.84441
1279.912509
1425.032285
1567.360886
1702.881934
1839.942001
1968.686197
2086.831876
2192.588634
2288.381893
2373.229858
2444.943365
2502.010283
2552.913131
2595.305644
2627.653496
2653.368323
2649.713419
2665.363158
557.1876712
642.219593
716.7181131
831.8774788
998.359667
1128.543427
1264.339522
1406.412243
1548.122571
1685.968899
1820.089755
1950.439189
2068.456053
2175.697128
2269.276603
2352.721963
2424.120821
2482.81699
2532.776335
2572.781834
2605.46747
2602.256471
2617.84242
2645.410271
554.6218489
634.5316648
708.7566349
818.0554633
974.9586214
1103.454504
1237.958552
1373.8452
1512.687267
1650.650343
1782.023971
1905.893644
2022.880522
2130.296421
2225.845255
2309.346939
2379.740569
2442.028135
2495.128604
2536.568114
2570.52665
2567.27091
2583.129355
2620.85292
536.4254449
620.5566285
695.6067745
795.538453
924.4096953
1073.668644
1206.978449
1343.308817
1478.338116
1610.79799
1737.931094
1866.37152
1982.674748
2085.464464
2176.361201
2260.008982
2330.944652
2393.330004
2445.896019
2490.186694
2527.16185
2527.633769
2545.908679
2587.050394
592.6847367
678.6385838
760.8823239
875.5215012
1025.735593
1157.331072
1287.572633
1419.023978
1553.944457
1682.666933
1804.640112
1918.722057
2024.541187
2119.777235
2200.678831
2272.888911
2338.203013
2395.988642
2438.876303
2447.626573
2471.214333
2503.744559
2547.89383
570.5581276
658.3446926
734.3300629
839.9848357
969.3931678
1118.004567
1243.329509
1373.335205
1497.445973
1621.274138
1739.089265
1851.4489
1957.197557
2048.741224
2134.714332
2207.77443
2268.734514
2322.949357
2339.384161
2367.633474
2405.758225
2453.570446
2488.815198
623.415974
713.0676173
790.6271792
895.5161432
1025.891305
1172.952682
1298.140661
1421.871495
1543.806163
1659.183876
1768.449295
1874.01658
1967.700895
2052.15823
2125.461976
2190.108718
2214.587386
2248.705776
2290.980597
2346.434664
2388.908564
2421.004982
596.7746967
684.3276686
762.1525052
845.692822
954.5875594
1082.505114
1226.110549
1344.224186
1462.435891
1577.23352
1681.740047
1783.777908
1876.268619
1960.186399
2036.362214
2070.163244
2111.676233
2162.751161
2223.459456
2287.893949
2324.763722
637.3271987
726.7496759
806.1768574
892.2325619
997.2041392
1109.488551
1229.439113
1370.389521
1480.781182
1584.269957
1681.949597
1773.158268
1822.031998
1886.579581
1952.014468
2012.778387
2077.958188
2147.809023
2200.536999
2251.964755
673.8877286
770.4214888
850.9597141
933.6049518
1025.439038
1129.295347
1240.721306
1338.553121
1435.74654
1531.275395
1622.270957
1703.712602
1775.517308
1847.832318
1928.386831
2004.431242
2062.646124
2117.677057
712.5133678
799.549148
882.9864661
963.0020248
1052.655927
1140.875548
1228.541364
1320.454525
1409.739678
1502.243962
1591.122201
1678.193263
1765.171702
1829.947307
1902.610863
1972.292791
735.7325087
811.7838628
902.3944906
991.1035617
1071.970602
1158.9135
1245.54939
1334.39646
1422.962245
1510.40967
1578.347515
1656.261495
1727.731565
830.3327058
912.5238573
983.9140768
1062.846817
1146.350984
1229.061017
1316.503738
1406.279347
1478.81835
455.0262124
517.7055433
581.0357922
683.1698595
840.9437202
963.978602
1104.019657
1255.269629
1413.015312
1572.297831
1731.116316
1886.418882
2038.437253
2178.548944
2308.785355
2424.401257
2523.681239
2607.536577
2679.141115
2739.088516
2784.151683
2819.62242
2847.02338
2865.501158
2877.853852
2885.343129
2886.35165
451.2611652
517.3487342
579.427841
681.5391095
828.7172003
959.0083161
1099.794109
1249.381751
1403.760006
1562.302419
1727.309722
1882.092029
2035.078204
2180.249403
2306.720216
2420.624342
2521.760115
2607.747403
2675.619934
2729.321156
2775.523982
2812.858542
2837.770744
2856.491083
2869.788172
2875.096488
2879.77696
444.2750105
508.0430211
573.031663
673.6470712
825.2167904
952.5125125
1090.660865
1235.045298
1387.76645
1547.401646
1703.645909
1858.645984
2005.786441
2146.517749
2277.234655
2393.770342
2490.422617
2579.585329
2650.371785
2709.099313
2752.644003
2785.783751
2814.129931
2834.109487
2846.855071
2855.218563
2860.554367
490.0667364
562.0199947
659.0673953
797.1362998
916.2404617
1049.159255
1190.462275
1337.451556
1490.435288
1647.976556
1800.1178
1948.683343
2087.917958
2218.160543
2332.666217
2436.472239
2522.573291
2597.348827
2657.970142
2706.140541
2745.70404
2774.549848
2795.020089
2813.007599
2822.085101
2826.775102
483.9289172
555.2307701
639.9122182
754.0088216
894.1491005
1023.765157
1158.53548
1305.463413
1454.061236
1607.434253
1757.139909
1901.53164
2041.762703
2167.741649
2283.267336
2382.304226
2467.932396
2542.34319
2604.973302
2656.636008
2697.702848
2726.022024
2748.869919
2765.631338
2777.684572
2785.529228
476.4054991
544.4563611
613.7291996
715.6954412
867.7862503
995.4075825
1126.343781
1270.047341
1419.1819
1562.932945
1711.566577
1855.629407
1986.356049
2111.892965
2224.012063
2325.118807
2411.675056
2485.535764
2548.699529
2602.192601
2640.097106
2673.505413
2697.347934
2715.23175
2729.631206
2735.736172
462.9038831
530.4247915
592.9070904
685.3332812
803.7048615
949.1115412
1080.717255
1216.315862
1354.267715
1501.656764
1646.84571
1781.029987
1911.765153
2037.182462
2152.800904
2254.23483
2342.278117
2415.423526
2477.376415
2531.366145
2571.704428
2604.922346
2633.372946
2652.868425
2667.938303
2657.412627
503.2119513
572.1553335
643.8000206
750.5699264
903.5864859
1023.625266
1155.418781
1290.253442
1429.674115
1562.312812
1699.595186
1829.003617
1955.299172
2066.995643
2167.700917
2255.544373
2332.352148
2396.720201
2450.801286
2495.727249
2530.972539
2560.65283
2581.261693
2572.58163
2583.799784
484.9847173
551.8716016
618.4071675
710.497088
826.8873982
962.8490764
1089.028908
1216.414704
1346.552539
1477.269255
1609.80328
1738.079313
1855.071111
1965.577961
2063.251969
2152.132709
2232.1146
2295.885929
2354.507998
2402.383909
2443.019251
2475.989818
2501.196133
2495.164867
2506.139862
515.8753832
590.1971038
663.7742578
758.5867295
881.3215007
1024.24866
1144.45581
1268.333589
1397.358816
1521.969067
1642.131896
1755.208975
1860.141382
1958.288023
2046.363825
2123.744051
2191.52355
2251.062581
2299.346721
2343.066597
2377.641066
2381.561355
2398.846607
2430.61414
552.8793638
630.4933478
702.4107717
800.2774667
919.3346289
1057.87822
1174.228361
1292.24054
1408.597876
1522.93139
1633.5037
1740.185404
1834.892027
1923.387997
2001.742541
2071.913191
2130.473217
2183.441232
2229.78077
2245.837021
2271.081244
2303.336598
2347.186268
526.4905376
596.1454119
662.3377944
735.0383953
833.0444309
953.4852558
1086.155134
1195.3001
1305.655817
1416.990802
1521.671116
1621.700134
1718.063718
1805.491467
1883.338211
1952.591719
2015.613349
2036.323255
2077.005068
2123.835094
2169.262631
2209.689858
2260.739716
553.4228427
624.6746278
693.0758455
766.7288265
860.6112205
963.1795494
1071.856062
1206.634256
1308.717447
1408.16995
1505.044875
1595.717694
1677.583352
1757.05079
1794.401886
1845.726948
1900.049353
1953.848694
2014.348581
2063.189308
2109.105624
578.2411027
639.5271377
715.9658449
790.8964385
864.9062334
961.6835514
1063.719692
1151.746503
1239.773712
1327.723283
1415.048966
1499.670061
1580.576982
1651.666031
1713.339132
1780.403511
1854.297166
1913.4123
1964.771517
656.7382926
737.6368694
814.7600731
885.1631591
961.4704433
1040.226202
1118.580278
1201.743516
1283.718406
1366.94213
1448.159985
1527.465851
1607.688335
1669.434664
1736.486951
1801.517084
677.4788562
740.3590058
800.6775779
887.4806243
968.0632471
1043.558687
1123.175359
1200.087567
1280.091079
1344.142583
1412.600244
1496.927591
1558.481223
808.3768889
883.5006685
950.5941356
1021.453685
1099.082916
1174.865315
1236.041766
404.4300972
456.6969969
532.1040357
644.0989935
755.7926921
875.0813003
1014.7159
1164.257436
1326.311874
1497.837938
1675.059536
1855.484998
2035.975675
2206.71923
2366.130506
2507.238987
2634.906509
2740.522343
2830.426484
2903.35986
2959.533366
3003.273587
3031.731977
3051.228344
3065.348417
3073.289559
3073.733245
3071.178119
3066.92968
398.464043
453.6088125
530.9776576
644.5542669
756.4780338
875.5608232
1014.263787
1164.56511
1329.070907
1503.201938
1682.585641
1862.554392
2037.781485
2204.16471
2368.564742
2513.15816
2635.080968
2743.726609
2830.18
2897.598723
2954.723429
2997.162018
3027.74621
3048.37834
3060.017076
3065.852974
3067.117095
3067.747584
3063.511463
440.4535137
520.8093753
613.0744283
735.7970747
854.8445394
992.1492957
1140.104917
1299.787973
1471.171334
1649.950109
1825.463453
2003.386717
2172.510423
2331.017183
2475.309123
2599.19771
2708.060797
2801.322125
2872.899238
2930.527149
2970.220217
3001.020407
3025.319905
3037.776217
3045.766252
3049.789483
3048.252117
3044.167752
436.8245665
503.7969795
592.0018679
730.5101106
852.5150889
986.8631189
1128.710834
1287.236725
1451.202262
1624.644945
1797.073123
1967.892688
2138.795419
2290.720207
2433.482007
2557.532884
2663.265363
2751.663008
2826.762113
2883.923216
2927.348593
2960.811467
2981.86947
3000.087743
3009.772375
3011.929349
3012.375302
3008.398328
429.3797294
491.2090866
579.6791051
710.9106126
825.863199
956.5700187
1097.974541
1249.244596
1415.11434
1588.690105
1759.123518
1926.501619
2087.582348
2239.797239
2378.633852
2505.333733
2610.99614
2698.669586
2773.722344
2833.427796
2879.192441
2911.266032
2935.561648
2949.831118
2960.632335
2965.650043
2967.713026
2965.53998
421.9922285
481.2083084
562.6881641
680.956125
794.6243054
914.1374053
1053.614618
1197.187887
1356.207339
1522.423829
1687.355882
1852.898632
2012.988716
2162.070779
2303.592161
2426.567631
2535.197756
2623.6658
2701.739437
2764.284944
2810.578069
2849.787524
2877.773971
2895.6302
2906.395583
2913.99245
2915.44208
2916.788066
412.336075
469.162357
540.87035
637.7339948
763.7885812
882.5121532
1012.97743
1157.510372
1306.903705
1461.005291
1623.124301
1784.846806
1934.946425
2078.208942
2216.317428
2339.255336
2447.861725
2539.668969
2619.529341
2681.296428
2731.346612
2770.37843
2798.729044
2820.152589
2837.85603
2849.728346
2854.848274
2855.982079
449.3459065
514.8350981
599.4852879
727.5124445
843.3636295
965.989993
1102.222451
1247.067748
1396.64427
1553.966425
1703.872367
1856.585502
2003.990806
2138.897893
2256.820563
2361.499943
2453.443811
2534.171478
2598.267696
2651.986885
2692.792577
2724.034395
2748.062664
2764.17091
2779.593209
2788.865525
2793.348824
429.2611871
491.5875849
567.167257
665.0597827
792.0049306
909.8900938
1034.97053
1173.966815
1321.215985
1466.67313
1615.773432
1762.374319
1906.063556
2035.113034
2150.234268
2255.708257
2350.385127
2431.59983
2500.001175
2557.613898
2603.488217
2638.580882
2664.721992
2684.982515
2695.334489
2705.871447
2713.353601
463.2479916
531.7206346
612.3455681
721.1406045
858.2599054
978.309626
1108.606551
1243.085505
1379.457719
1520.79478
1661.110405
1793.482126
1920.539125
2039.108141
2143.859994
2236.349062
2316.020836
2385.708022
2444.920135
2492.322285
2530.485142
2559.042818
2580.110728
2599.58279
2613.286235
2622.590099
446.4631666
506.2331329
565.7685186
657.7553731
791.7992097
904.7432873
1022.021226
1149.550463
1280.028818
1407.907091
1539.794909
1668.503659
1788.321419
1905.871748
2011.774578
2101.978206
2184.751586
2256.122395
2317.059631
2367.541684
2409.176191
2443.605782
2470.780585
2491.148431
2507.989034
2521.336794
470.4197302
536.6503944
616.6491025
715.876835
837.0309666
949.2511087
1067.838271
1189.408487
1315.173284
1435.929385
1555.401955
1671.766744
1781.624829
1884.83903
1974.572541
2055.977316
2127.376152
2191.991463
2246.846459
2290.164125
2329.040446
2358.266564
2383.266437
2376.222584
2393.13815
500.3423782
571.018043
647.7893082
749.2671191
869.0064941
973.5717665
1088.517202
1203.409629
1317.404072
1431.277874
1539.899398
1643.996985
1742.150927
1833.429374
1918.71319
1992.385074
2053.858514
2110.320238
2159.792881
2198.589951
2235.029639
2236.44913
2253.311483
2280.388766
473.2723783
534.9761694
593.3764746
672.3210098
758.5781729
858.6208052
989.9999578
1095.70277
1204.889076
1310.177202
1414.851048
1513.865655
1608.807684
1701.049095
1778.390492
1850.434496
1916.328528
1973.655983
2027.206312
2069.693503
2081.370988
2104.645028
2136.746362
2171.441792
492.7182995
541.0768723
611.7784754
680.8639357
764.8413194
871.5744641
990.22798
1086.527194
1185.364202
1284.98197
1380.870021
1469.933926
1555.242384
1635.300975
1707.603365
1773.115329
1830.736037
1852.773888
1894.699649
1942.46461
1988.583795
2030.34137
2065.235979
555.2958414
630.5760438
695.1020692
773.0686304
858.5592727
939.7695515
1037.326642
1153.967837
1243.476713
1326.924042
1410.232603
1485.150205
1524.628586
1581.05983
1644.073022
1701.358815
1755.939808
1800.85662
1862.174573
1921.098936
574.1251447
629.014016
701.9751027
773.556644
838.7714756
925.1412174
1014.791907
1089.467781
1166.756947
1239.967759
1316.309208
1383.925189
1443.46524
1506.786924
1577.449643
1637.530599
1686.458027
638.0629524
698.0902151
771.5891947
844.1806859
910.4661505
981.9225598
1050.079926
1122.310288
1194.015676
1266.485946
1327.167513
1394.532218
1467.670382
1528.683027
701.3141793
764.5665048
819.9138014
882.9999353
950.2216478
1017.123984
1089.706092
1164.448775
1225.326864
392.6561382
469.3799209
565.5712831
669.600707
787.2040325
922.1714038
1068.316743
1238.3566
1414.577886
1610.253001
1810.332159
2010.00766
2213.925308
2400.813711
2577.045476
2729.936085
2867.66714
2977.650774
3068.767612
3142.261684
3194.149543
3229.796352
3254.290717
3265.997913
3270.722065
3270.505112
3264.186973
3255.749548
3245.11051
3233.34277
392.3298542
459.9635642
544.0180017
661.7314831
777.4847702
904.04921
1058.493891
1226.198362
1401.163702
1597.456538
1795.000657
1998.110482
2195.945974
2387.719104
2566.353251
2724.3676
2860.630115
2977.80616
3065.04212
3131.01576
3186.354452
3222.074417
3244.359465
3259.943827
3265.675779
3265.687572
3259.7255
3251.068535
3240.087792
3226.12487
391.9608745
447.8392278
529.6498185
656.7922276
772.5654329
904.4909414
1056.708179
1218.914115
1397.00177
1586.657359
1784.720542
1983.411022
2179.635556
2367.970646
2541.545903
2699.194976
2833.099917
2946.025432
3039.874275
3111.262215
3163.652452
3196.236615
3223.43385
3239.962502
3244.975452
3243.588322
3238.092837
3229.642638
3220.28823
3207.495588
385.5357558
440.4031021
517.9135793
639.7462237
751.9635342
878.8961353
1023.069211
1183.785687
1356.821543
1543.725588
1736.367431
1934.206395
2127.60736
2318.756732
2488.821211
2644.684913
2782.148207
2895.755712
2988.361798
3060.425609
3116.628951
3154.721678
3181.54105
3196.97349
3203.96596
3205.265436
3201.627809
3196.061554
3183.236156
3175.207667
382.6582461
434.2202202
506.2578213
622.2234116
730.1074022
851.752541
988.5794707
1140.320098
1310.143939
1486.17134
1678.854814
1869.453487
2061.946693
2245.467292
2416.102511
2571.113288
2708.412424
2824.809885
2917.983858
2996.409678
3053.329202
3095.663798
3124.209206
3144.065367
3151.387933
3154.315938
3153.775845
3148.126021
3142.239209
3133.864383
371.8022112
422.4200846
495.1272275
603.3193296
708.942867
826.2155294
963.1527899
1109.433949
1275.558246
1449.810282
1633.488611
1816.679279
2003.99102
2185.182495
2352.93951
2509.782939
2646.004811
2759.936956
2856.249053
2929.847594
2985.586023
3030.976909
3062.12869
3083.462409
3094.658099
3101.175305
3101.412617
3096.203368
3090.857218
3082.374646
405.7471167
477.3242495
562.0806529
679.2295681
790.8555526
918.815177
1061.653934
1219.707347
1384.325708
1559.908122
1738.257844
1920.283575
2095.457905
2260.77182
2412.466211
2546.21621
2664.128007
2760.611868
2840.744132
2900.431338
2948.130073
2983.523172
3001.25637
3018.069123
3028.860095
3031.553149
3031.465667
3027.25034
3020.56385
398.0308251
454.0794026
529.8000274
645.6560539
751.4293261
873.1848955
1006.477047
1150.83569
1310.967116
1482.641838
1655.720308
1827.249527
1996.774478
2162.980731
2312.546179
2442.222698
2560.605063
2657.756459
2739.872886
2804.349607
2853.45962
2890.824216
2917.943345
2936.799221
2949.153685
2955.742317
2958.057769
2957.368194
2952.053371
384.9957364
433.5714594
503.3993358
593.3199374
715.392457
830.4443549
960.0190631
1099.784006
1252.360959
1415.961769
1577.072535
1744.06098
1910.911911
2066.346603
2208.28595
2338.303813
2449.724035
2550.081579
2633.319995
2702.560428
2754.381995
2794.185577
2823.636974
2844.978626
2858.433811
2868.516245
2874.955535
2876.048095
2872.605976
414.9981339
472.0315804
549.2725219
667.1132793
774.814991
891.7190142
1018.956159
1160.245223
1305.049645
1460.90521
1614.06937
1771.621814
1925.479862
2066.088881
2202.041144
2316.549244
2416.828423
2500.936407
2570.719826
2627.47786
2671.839565
2706.979184
2733.949999
2750.878894
2765.622302
2773.539996
2777.920871
2778.355334
396.069122
447.3253558
517.0471102
606.8111216
719.7190669
832.8981311
953.1135929
1084.669023
1222.906569
1366.779991
1512.565123
1654.887306
1795.01795
1932.028272
2057.299707
2173.561513
2275.105896
2363.219647
2437.42481
2502.70416
2551.344369
2589.739815
2619.722017
2638.62034
2654.956632
2668.629437
2676.093853
2680.519712
423.0614427
481.8311167
552.1464313
646.817714
768.9730273
877.4212756
996.386038
1123.957575
1257.814911
1397.292279
1535.587434
1672.113628
1802.482944
1921.821723
2031.200288
2131.98121
2219.032639
2294.688862
2358.014122
2409.888181
2454.997751
2490.885852
2518.454431
2539.060995
2555.488302
2565.750432
2572.184543
406.3413192
457.5496212
511.3298135
589.5648029
709.2544111
814.73705
922.6787495
1038.711547
1161.860668
1286.650987
1414.208477
1541.409459
1664.668063
1780.570903
1888.710344
1986.305826
2072.299222
2148.830056
2218.317979
2275.256177
2322.853548
2359.862272
2389.471222
2415.596795
2436.035293
2451.793325
2463.642231
423.257125
478.0899082
544.7212977
631.9655299
737.4317224
837.4769363
943.6970785
1060.733428
1173.425118
1291.244136
1415.757497
1533.483878
1644.426371
1746.512365
1845.775671
1931.217114
2006.204599
2074.355594
2130.302717
2183.094632
2225.203336
2261.211146
2287.625027
2310.491884
2329.791992
2320.990045
443.12077
502.293554
570.6866289
643.727038
735.8297713
860.3745616
964.8564712
1073.088553
1181.957798
1292.643241
1401.247284
1504.834
1603.587373
1692.878027
1777.603332
1857.25467
1924.046107
1982.689868
2034.774301
2081.799292
2118.110439
2151.914688
2178.083106
2177.16137
2187.623307
459.742328
518.3349832
576.1439938
650.6314443
747.4356951
863.7018749
959.6620818
1059.909977
1157.425203
1257.52069
1353.404913
1445.642519
1536.483898
1617.348093
1692.944556
1763.195497
1824.327185
1877.212815
1925.804304
1968.401634
1974.026897
1998.617256
2033.9096
2069.042339
473.9282234
532.8297289
588.7044257
661.2049007
741.8875982
830.3959532
947.4114224
1037.319614
1128.167346
1218.250966
1304.627709
1385.947893
1466.464629
1540.570465
1608.206552
1669.898465
1725.632974
1773.5844
1792.180822
1821.146253
1857.259509
1896.868632
1947.633725
487.4286461
533.5415627
594.8146758
657.3697586
729.8780389
813.5578385
899.2207279
1007.288341
1086.412237
1166.521104
1244.467727
1318.731826
1387.064178
1453.03452
1486.387768
1531.30656
1587.251277
1642.394994
1692.171869
1738.835425
1784.408152
536.1895558
588.0342439
652.7253052
715.947833
785.8980478
863.2884607
931.492372
1001.664759
1071.950333
1141.459359
1210.434353
1275.417138
1335.981135
1390.131651
1448.491577
1503.415355
1565.878286
1625.370875
588.0399949
641.0296331
692.113188
760.3691293
828.1588534
889.742469
954.5289962
1017.646362
1081.661961
1148.355223
1204.210247
1268.205558
1337.715879
1397.869072
690.840332
751.1270226
803.7908498
860.298816
921.9878499
986.3720116
1050.399152
1105.281649
350.1679211
392.8194055
461.8068841
575.0679655
680.818696
799.8685673
940.4968409
1100.936623
1281.731105
1482.269805
1696.943664
1922.834546
2150.810399
2374.335758
2586.395557
2784.645193
2960.414965
3110.982295
3227.727173
3323.389012
3391.951743
3439.353217
3466.706493
3484.092284
3485.224244
3482.992361
3472.953689
3459.549351
3443.55802
3427.743702
3407.160444
3386.292941
347.0288369
391.9881884
460.4500914
570.0066927
673.8524063
798.2017
938.811127
1106.21618
1290.57011
1487.063662
1701.979779
1923.365852
2152.024003
2376.828491
2587.741454
2785.779919
2960.311031
3103.895837
3226.062632
3318.848062
3387.727393
3436.840434
3463.530574
3478.551969
3483.198936
3480.096127
3471.712774
3457.664849
3440.654708
3419.734768
3403.195633
3381.051803
346.6679895
390.0241583
458.4096835
562.452162
665.4928692
786.7973631
926.6638246
1088.53289
1266.495488
1464.442813
1673.785687
1899.273802
2125.131242
2342.725355
2554.760856
2749.966657
2919.983603
3067.852127
3190.552023
3285.564418
3358.240804
3401.783798
3430.340188
3446.988975
3453.301363
3451.438202
3441.672072
3430.349446
3413.713038
3397.902834
3378.089371
3358.685427
339.0163131
384.4469547
447.2654485
552.0432684
650.66453
766.6156823
900.4799593
1056.862336
1230.380805
1418.739023
1624.668606
1841.241899
2061.18656
2274.967084
2486.562886
2679.244587
2853.072996
3004.769023
3126.32689
3225.53046
3296.550497
3351.358732
3382.405462
3401.374076
3408.448638
3407.557337
3401.72146
3392.702037
3378.862804
3362.719929
3346.34776
3328.066347
371.528792
440.6051441
535.7195649
634.1293942
748.8036046
880.5425603
1029.909663
1197.860699
1386.309189
1586.761064
1797.514175
2011.225098
2225.304315
2428.930467
2622.329243
2790.548962
2939.351726
3065.38174
3162.756517
3236.20648
3290.297431
3326.888834
3346.169555
3356.121805
3359.102607
3354.124658
3345.149237
3336.736906
3321.842326
3303.710678
3286.820147
365.4323648
427.3265492
505.4719271
613.867117
726.7006867
854.3101813
1003.962526
1169.169957
1352.917367
1545.348368
1751.588408
1963.948731
2171.227763
2372.99736
2558.061354
2731.243395
2881.711519
3002.385426
3095.344438
3168.651645
3223.644583
3264.62462
3285.931881
3298.118292
3300.362854
3300.177116
3292.967582
3281.631876
3268.293823
3250.155342
3234.076578
361.407244
408.7822652
479.3566728
592.2879224
695.3986516
813.4707305
952.4874106
1110.714674
1283.259061
1470.117512
1664.304257
1866.575794
2071.567889
2267.863334
2452.526646
2620.5114
2764.037518
2890.369647
2987.983766
3067.94176
3127.318344
3167.788613
3195.758817
3212.789381
3224.254114
3224.995939
3219.581987
3211.53667
3199.067907
3185.807454
3169.241226
348.5244057
395.0631994
460.6943978
563.2321374
662.2913641
777.8648283
907.8977392
1050.126168
1214.064164
1390.796293
1577.209136
1766.725294
1958.448555
2148.578223
2327.744069
2493.08599
2639.96841
2760.806687
2863.854293
2946.998577
3012.281817
3058.392884
3089.854283
3111.622117
3124.441917
3131.687595
3134.483832
3129.436207
3120.687161
3110.875866
3100.511029
374.7605017
440.2944329
518.494949
625.076169
732.1636143
853.1697929
992.5181189
1144.746066
1309.626732
1488.560445
1668.618365
1853.046058
2038.031013
2210.98568
2373.404117
2518.16468
2640.033849
2743.64706
2830.31007
2898.13969
2946.92613
2984.626812
3010.675485
3025.186301
3033.183029
3039.662364
3038.37028
3032.333954
3025.38374
3015.819465
362.0026643
411.5998998
484.5853814
591.3306478
691.3533999
806.7025468
936.5478984
1079.728375
1235.282485
1400.573897
1570.683167
1745.354293
1915.025039
2082.213415
2237.369105
2378.58008
2502.036335
2607.102296
2691.184641
2764.048691
2819.149174
2859.64455
2890.057377
2911.410497
2924.427262
2933.278254
2936.056525
2937.715948
2933.483905
2927.474716
388.5272918
455.3994251
534.630444
643.0078192
745.8767859
866.1880895
997.4467945
1141.450913
1295.849528
1459.109172
1624.946513
1788.229235
1947.711594
2098.309519
2232.630225
2357.933295
2464.800437
2555.020467
2626.486471
2685.165704
2733.618278
2767.441197
2790.017182
2807.92205
2820.501843
2827.828221
2827.52497
2828.045233
2825.819315
370.7199189
421.5745267
493.6925166
596.1967632
693.215461
799.108597
922.1121097
1055.794966
1197.977223
1347.797261
1502.458104
1654.040736
1805.191761
1949.517804
2080.917564
2200.641388
2306.240565
2397.660728
2478.556267
2538.288023
2587.593011
2628.118878
2658.474286
2683.170747
2697.305067
2707.21841
2713.597784
2716.899703
2718.637345
394.5612761
462.4857678
537.2616516
633.4756203
731.9050113
841.3501542
962.1674742
1090.57829
1228.414608
1367.185813
1511.253283
1653.41356
1789.158151
1917.48828
2033.089649
2138.85004
2234.173037
2314.18784
2382.970245
2436.933398
2482.372569
2515.857608
2543.037884
2568.319552
2582.141091
2593.351225
2600.502153
2604.100743
379.0815538
427.1832186
488.5222144
568.4819943
676.3298369
774.447086
884.2557325
1000.178663
1127.906748
1256.705494
1389.235776
1524.773724
1647.452127
1767.733172
1882.664395
1984.022244
2076.242418
2159.101971
2225.156527
2281.138547
2332.6278
2372.543175
2404.70248
2428.195487
2449.031318
2462.703159
2473.355208
2480.14554
398.2431362
444.3396541
510.2351788
592.6292377
697.154634
790.2763438
897.6496503
1006.576252
1123.205364
1245.017004
1363.801228
1484.206015
1595.348375
1704.686152
1806.113253
1895.892491
1978.064594
2049.705836
2114.396261
2167.241089
2213.829155
2251.763093
2283.092703
2306.611051
2326.58868
2339.084933
2351.903961
408.043003
461.5532924
526.8837615
608.3214597
709.9518453
801.5339556
901.054815
1004.663397
1114.400848
1219.499959
1329.684628
1437.245042
1542.496307
1641.276484
1731.238559
1809.51592
1882.973096
1948.238807
2000.607225
2050.613065
2093.428916
2129.867881
2157.749351
2182.438123
2202.368677
2215.032438
426.3117235
481.4494123
546.3356711
627.4697618
727.1624091
816.6638513
909.394804
1006.659071
1106.764739
1206.710077
1303.577946
1398.051804
1488.861036
1572.978787
1649.852075
1721.936954
1787.228218
1844.710117
1893.554482
1938.525412
1976.893952
2008.683723
2037.401636
2035.424728
2054.446941
437.1056524
491.122141
554.0687995
623.3853703
699.249585
804.194274
889.6125556
979.347681
1070.316499
1159.661979
1246.930019
1332.168343
1413.968667
1492.354663
1559.888692
1625.101407
1685.322068
1738.704262
1784.11816
1823.347856
1859.372412
1870.606588
1890.080826
1921.240765
446.6950082
500.8576255
550.2652515
614.9328777
687.1748691
767.0030419
872.9142563
954.6918349
1036.182786
1117.267019
1194.416653
1270.919375
1342.688446
1408.867519
1470.410414
1525.469096
1580.642152
1628.316814
1648.971888
1683.183362
1725.73001
1758.410119
1806.246114
456.4281779
494.4775859
548.6034904
602.2125324
666.8125985
735.7412178
801.7410914
881.1447798