/*--------------------------------*- C++ -*----------------------------------*\
| =========                 |                                                 |
| \\      /  F ield         | OpenFOAM: The Open Source CFD Toolbox           |
|  \\    /   O peration     | Version:  v1706                                 |
|   \\  /    A nd           | Web:      www.OpenFOAM.com                      |
|    \\/     M anipulation  |                                                 |
\*---------------------------------------------------------------------------*/
FoamFile
{
    version     2.0;
    format      ascii;
    class       volScalarField;
    location    "3.2711";
    object      Ttra_O2;
}
// * * * * * * * * * * * * * * * * * * * * * * * * * * * * * * * * * * * * * //

dimensions      [0 0 0 1 0 0 0];


internalField   nonuniform List<scalar> 
60268
(
3487.073382
3744.727969
3911.096198
4069.118325
4195.88533
4293.005825
4368.246142
4405.151049
4415.480014
4395.239562
4322.777421
3429.615425
3704.560899
3909.156371
4063.799671
4186.247036
4281.593765
4355.350863
4398.331627
4410.031097
4395.174683
4321.206528
3665.884962
3889.405754
4028.151027
4156.579183
4264.501857
4335.442597
4376.080833
4385.808037
4347.44682
4281.626572
3561.55321
3806.130758
3979.702172
4108.671183
4207.42955
4283.701163
4324.664387
4346.300926
4289.891566
3677.082184
3916.550677
4050.593829
4157.692666
4234.722271
4244.18494
4241.998191
4232.808724
3723.912772
3903.436379
4007.688918
4092.766088
4114.852311
2858.35261
3212.314938
3454.055197
3691.657489
4006.948506
4370.788814
4580.763566
4736.953568
4835.858194
4890.478421
4897.061661
4864.149049
4796.799
4703.823407
4543.453824
4411.143815
4304.584614
4188.277994
4069.916796
3942.758929
2876.113335
3188.762168
3432.182451
3664.116328
3954.921352
4274.22503
4543.900015
4696.591069
4796.2966
4852.278171
4867.065097
4837.501335
4775.349616
4685.733765
4529.484741
4401.903773
4292.55052
4178.693953
4061.217935
3941.789604
2837.915432
3163.077002
3398.708837
3633.512692
3879.324259
4165.529542
4491.085003
4647.032572
4759.410583
4814.758736
4832.284424
4804.115025
4742.323622
4615.072734
4499.749344
4386.162077
4279.96255
4166.977943
4046.615706
3923.23504
2826.631343
3132.018655
3365.579106
3602.300355
3822.816684
4088.873427
4362.236667
4599.06648
4699.645891
4764.961086
4779.545645
4761.305926
4702.027085
4569.652376
4461.115016
4365.457358
4261.175269
4152.980976
4029.90336
2729.115852
3033.638157
3287.182175
3521.232499
3744.661696
3954.5219
4187.243139
4420.864652
4595.244145
4667.21117
4692.288878
4620.837513
4576.348894
4502.484653
4413.526073
4329.72854
4234.591534
4128.173107
4009.167939
2932.759696
3228.639304
3451.803745
3673.758688
3864.889521
4054.241202
4241.930304
4386.948772
4468.363954
4513.004164
4506.93715
4473.495487
4425.476643
4364.595112
4290.012099
4196.310046
4092.472516
3979.294758
2835.60431
3127.341957
3351.398898
3561.994233
3752.152409
3920.796379
4072.089349
4198.289588
4284.675815
4340.823337
4368.387054
4365.423527
4343.253152
4291.433247
4224.945616
4132.655577
4030.134637
2958.588987
3237.18523
3450.220179
3634.859924
3800.966617
3947.564384
4066.896564
4158.116627
4223.154983
4257.760985
4264.345233
4250.239815
4213.76515
4144.892235
4051.41787
3066.353289
3315.25635
3509.777664
3668.928189
3812.931652
3940.429197
4037.948781
4104.330837
4148.830318
4168.774057
4170.008266
4123.235079
4047.339771
3151.148873
3341.647678
3542.563555
3697.415238
3825.246782
3923.173271
3996.191869
4041.967287
4038.980185
4028.904312
3999.12966
3341.192987
3503.893858
3617.00379
3713.928178
3801.537351
3870.229604
3882.654294
2416.518858
2729.174268
2997.527496
3394.439335
3902.283399
4251.894964
4564.82236
4832.064151
5052.471022
5215.512459
5311.486438
5351.632355
5336.054133
5278.765307
5181.551189
5056.079557
4910.603721
4756.284907
4592.918656
4430.930971
4272.598821
4118.125942
3953.447872
3821.853837
2384.045883
2712.729848
2980.062912
3367.167469
3891.496892
4239.923248
4545.73355
4823.247656
5042.528388
5193.755837
5296.098906
5335.887072
5325.974062
5267.785363
5170.560692
5044.791707
4901.215268
4747.371311
4584.324534
4424.866575
4265.951106
4114.73196
3954.868623
3821.60668
2378.586321
2703.055835
2959.544012
3339.693772
3849.054696
4189.472366
4495.381982
4775.404838
4994.826926
5159.115019
5264.132488
5305.472484
5294.469145
5238.638255
5145.006377
5025.144969
4884.775531
4732.895835
4572.84005
4415.003244
4256.573212
4089.71084
3943.79019
3816.283294
2352.135429
2673.711339
2929.621754
3294.475163
3777.721649
4116.500643
4425.003296
4690.646466
4909.673563
5078.979619
5180.797893
5228.542401
5226.178685
5177.556828
5088.160557
4977.509158
4844.200566
4699.29717
4543.823949
4389.890848
4235.170345
4065.638632
3924.529521
3804.853585
2275.921143
2597.203736
2864.087699
3207.50727
3604.767107
4019.654232
4331.737641
4602.581448
4816.898562
4984.848478
5086.389659
5146.461457
5152.008532
5107.716901
5034.52233
4928.533731
4799.830544
4659.852756
4511.789528
4360.68302
4211.966711
4043.758262
3904.601072
3787.550775
2497.724264
2798.896794
3063.969715
3421.170911
3859.925594
4168.915607
4439.344191
4666.460309
4840.85777
4962.371172
5029.547052
5042.863611
5022.962515
4958.362309
4862.361887
4744.902549
4613.28937
4471.52232
4328.254175
4163.561862
4018.343942
3890.256859
3770.691517
2385.92745
2699.242284
2967.986629
3288.642662
3657.355807
4044.805037
4309.432971
4532.116019
4707.995951
4833.919677
4911.622151
4933.906922
4917.280133
4863.552284
4780.067282
4673.746582
4553.161876
4418.074362
4255.254223
4111.911466
3984.129106
3868.880199
3747.945562
2561.879256
2853.648808
3107.60135
3408.793619
3752.329055
4093.172922
4329.256811
4510.382402
4646.165777
4737.077869
4778.491502
4779.137531
4741.600164
4673.016113
4579.583854
4469.867059
4317.412284
4183.022467
4060.336488
3951.64151
3836.670268
3726.434632
2453.475981
2745.427002
2999.928812
3235.894398
3523.208889
3834.949265
4128.050435
4313.604948
4467.398771
4566.338731
4615.562774
4630.177069
4607.111074
4554.451136
4475.672122
4344.180665
4223.034539
4111.5504
4015.237263
3912.014398
3799.138311
2570.060239
2862.357062
3083.6467
3311.484585
3568.233748
3802.634557
4022.497337
4241.204624
4353.690892
4420.731062
4448.729372
4444.071218
4359.399442
4291.848796
4215.548124
4126.599947
4044.800515
3952.834633
3856.122007
3755.650374
2667.250559
2960.969769
3173.146936
3370.107599
3564.024524
3763.725151
3938.860172
4044.861849
4125.908547
4179.677287
4203.090895
4184.127581
4143.808799
4095.221786
4043.32869
3972.862997
3886.791019
3789.07861
2747.448946
2987.362203
3190.078985
3358.928708
3522.163839
3667.283613
3776.029367
3868.391705
3937.629664
3978.897956
4001.649779
3999.994366
3977.131027
3923.784917
3862.509497
3800.558665
2779.31876
2971.936601
3169.3103
3354.528896
3479.058179
3602.985625
3699.607998
3776.804438
3831.352471
3860.00696
3850.204544
3826.186746
3792.273679
2956.499844
3125.895965
3248.021331
3363.691996
3459.411772
3550.659614
3619.935418
3672.309688
3676.084973
1942.386924
2204.251038
2472.253027
2876.353595
3467.526347
3897.796042
4322.415768
4713.396116
5060.193706
5354.566001
5588.538782
5752.254653
5836.614761
5849.153894
5800.752134
5706.849669
5565.857419
5398.903171
5213.66984
5020.210805
4825.21961
4637.946295
4453.840898
4280.622978
4118.877505
3968.235687
3829.073646
1911.774143
2202.253539
2462.685438
2856.952243
3419.640969
3849.974617
4275.912949
4676.955018
5026.870659
5332.200493
5576.251596
5740.243649
5828.626505
5850.484918
5804.385853
5708.305809
5568.897429
5401.32684
5216.410666
5024.765827
4828.215333
4640.06325
4456.904062
4284.147292
4121.911206
3969.715547
3828.243449
1886.88736
2176.059728
2454.306906
2850.096892
3419.065152
3842.938103
4260.176506
4648.062713
4994.447298
5292.404934
5525.545148
5688.862594
5782.755514
5808.46905
5764.077892
5672.673097
5535.005533
5374.995917
5193.418959
5006.180026
4813.236614
4627.044942
4448.290346
4278.640934
4116.813935
3965.861165
3826.147915
2083.846852
2392.895339
2766.987078
3288.996684
3695.990153
4098.919734
4479.972696
4826.925013
5125.202363
5370.759769
5542.057978
5653.554585
5688.524771
5665.019571
5584.355952
5466.786831
5314.967516
5148.00802
4969.500418
4783.211288
4604.281378
4427.135472
4258.549262
4100.050484
3951.917106
3815.600443
2045.452967
2351.99654
2687.534725
3118.300354
3600.275238
4004.854281
4374.988495
4721.19713
5025.915644
5273.588322
5451.654384
5561.035608
5604.415674
5593.346309
5524.881459
5411.86143
5269.741179
5110.845252
4936.14788
4756.489941
4578.204295
4405.058775
4238.98651
4081.647352
3936.086438
3797.697791
2017.142419
2308.367157
2574.03369
2962.960699
3506.906805
3902.316038
4275.550083
4614.315535
4919.403534
5163.268047
5343.68076
5457.370105
5510.874539
5499.876948
5441.009503
5344.866712
5214.610367
5060.102106
4895.047056
4722.8133
4550.431142
4382.414314
4219.543496
4065.631293
3920.694176
3783.524264
1963.32761
2245.187763
2498.562636
2849.765612
3276.853497
3751.833607
4121.287058
4457.473109
4752.893988
5000.176576
5188.734839
5316.041955
5377.713653
5386.26434
5341.472609
5256.163364
5137.182304
4994.742263
4839.820734
4678.373319
4514.161229
4350.345234
4192.884503
4042.785118
3900.362766
3760.682496
2105.656436
2384.974597
2652.674218
3030.39158
3537.504674
3900.222125
4239.415002
4533.902058
4790.114271
4987.105805
5126.58753
5209.077133
5235.277702
5209.23814
5140.381023
5041.241825
4913.274035
4769.849128
4620.151297
4463.793354
4309.907491
4158.696799
4012.358475
3860.371186
3733.314844
2019.406273
2300.88671
2553.094072
2876.423738
3266.587788
3696.636828
4016.387057
4309.422873
4563.247361
4758.800563
4910.598505
5016.41504
5053.31905
5046.292031
5000.43361
4918.983287
4809.325584
4684.320809
4545.447562
4401.539669
4256.277601
4113.723041
3973.012184
3821.80128
3695.988529
2130.293393
2420.968577
2684.703484
3008.028282
3395.931458
3797.602651
4089.103089
4339.674266
4554.340917
4705.938419
4814.951442
4868.247665
4879.674764
4848.31497
4783.992092
4693.334176
4582.969636
4460.782101
4328.222717
4192.451582
4056.83399
3910.821804
3779.124424
3665.284726
2283.855496
2562.182865
2797.185837
3103.220178
3454.50777
3810.675262
4056.019436
4265.981869
4432.263247
4548.72322
4626.365631
4661.157711
4652.514882
4610.442248
4543.186634
4451.490414
4348.163929
4232.304453
4110.105724
3967.63699
3839.964925
3725.513814
3625.81025
2143.039249
2394.127236
2628.054578
2858.445653
3141.723227
3462.342534
3781.267998
3990.812574
4162.982763
4294.402825
4385.93657
4439.915462
4449.130414
4428.85073
4381.368094
4309.27456
4221.100664
4090.673324
3983.985571
3876.786616
3771.166732
3677.353051
3573.815601
2224.618942
2474.688664
2690.82233
2901.340851
3160.900815
3401.587922
3640.283499
3897.878527
4042.772833
4141.071935
4208.88586
4236.717394
4231.708448
4200.246653
4101.940347
4031.252524
3949.111892
3863.726835
3787.829876
3704.773156
3608.675893
2291.317182
2478.953091
2710.879947
2919.292548
3101.413839
3320.46107
3510.955736
3641.200238
3749.705391
3835.650057
3894.11832
3926.006146
3937.073051
3908.169171
3859.203166
3815.74865
3763.27782
3697.979446
3617.065818
2494.261055
2726.741676
2917.607391
3075.011543
3221.924201
3351.785414
3458.145373
3550.876143
3622.208324
3671.250114
3701.623772
3715.863111
3713.591608
3677.686728
3631.660843
3586.145795
2517.504922
2678.668737
2808.443706
2996.014347
3140.019638
3253.250606
3352.002384
3426.237265
3489.786353
3509.775359
3517.891868
3539.542685
3521.992506
2752.911875
2897.097972
3009.940043
3105.421889
3197.884122
3268.925078
3301.610578
1681.934238
1939.820558
2280.987656
2778.338634
3227.106117
3679.672751
4159.258907
4625.30696
5064.894356
5452.715647
5777.433779
6041.607389
6217.593502
6308.734171
6306.18616
6236.288348
6104.481252
5927.913459
5720.945416
5495.597596
5266.614037
5042.56938
4825.791034
4619.845127
4427.599391
4250.770984
4086.379272
3939.427511
3801.6563
1644.216903
1928.760086
2281.824329
2775.097946
3224.094554
3690.134417
4167.98065
4632.099008
5071.713979
5471.77283
5800.207579
6063.841244
6232.507122
6316.819082
6323.444194
6247.227153
6113.816262
5934.045827
5725.37997
5501.549304
5275.250376
5046.037354
4827.970126
4623.576689
4432.230311
4253.744184
4091.78958
3940.617481
3802.79563
1871.480782
2237.942616
2636.089123
3160.008508
3610.745708
4074.451977
4535.655328
4974.01605
5367.539993
5713.447327
5979.994031
6160.291764
6257.381501
6274.451468
6208.159577
6084.417641
5911.44248
5708.192314
5488.216607
5263.938178
5039.80408
4825.267605
4619.535516
4428.228531
4250.045112
4086.979155
3939.022262
3802.029678
1825.535917
2135.687865
2531.076495
3101.08323
3567.722119
4034.469888
4487.988778
4925.22646
5313.04664
5644.612963
5909.607151
6087.074212
6186.279775
6200.747314
6144.054332
6024.456126
5864.99934
5668.584309
5457.107314
5238.663469
5019.617293
4807.5528
4605.73927
4415.52862
4239.246283
4078.978091
3930.84465
3793.645587
1800.453128
2087.878917
2469.002907
3031.166308
3470.879762
3938.06444
4391.51599
4812.493133
5200.78855
5538.22093
5810.531529
5995.68272
6097.221904
6116.929534
6072.568004
5963.864417
5814.323807
5626.036021
5423.789469
5210.30294
4994.146252
4786.624558
4587.628928
4400.589163
4227.445046
4067.522492
3918.714111
3783.185121
1756.34789
2017.224519
2376.491521
2875.607606
3308.669487
3742.581149
4185.853175
4602.388646
4997.242003
5336.828574
5616.190458
5817.747106
5938.425381
5977.396715
5954.868177
5863.269097
5730.625418
5560.270166
5369.22164
5166.682143
4959.988993
4759.614433
4565.708334
4384.091009
4212.8222
4054.125472
3905.397441
3768.944177
1710.866122
1977.44772
2292.616426
2699.995964
3201.722786
3634.275054
4059.685467
4468.382942
4853.081182
5180.101052
5457.423499
5664.058587
5790.938984
5845.493182
5833.990181
5759.859122
5634.658698
5482.805754
5305.01745
5111.232086
4915.887829
4722.238605
4535.383048
4358.068057
4190.903929
4032.841858
3887.616884
3751.396484
1854.405116
2148.797311
2505.659029
3028.520204
3443.748406
3858.836957
4260.193357
4640.97888
4979.90715
5258.488326
5464.571331
5609.663659
5684.508671
5691.897086
5632.503868
5532.537803
5392.794096
5227.03671
5051.585779
4867.550767
4679.279806
4499.667936
4329.090919
4164.264829
4012.264778
3867.958164
3734.476701
1763.72517
2043.784931
2366.535761
2754.512435
3220.284318
3629.905269
4021.020356
4393.237323
4727.975224
5013.1741
5241.18118
5396.770581
5489.043984
5514.989306
5482.042664
5406.573337
5285.912698
5137.869974
4976.480596
4807.402415
4631.756806
4460.625629
4294.185442
4134.477
3983.763427
3844.894927
3713.719868
1915.552075
2212.559028
2535.420229
2954.3988
3442.172372
3814.678336
4174.923916
4495.191992
4775.054497
5003.296394
5174.456029
5274.090617
5318.906895
5306.856729
5246.127886
5147.642947
5023.205644
4881.297001
4724.760385
4565.91835
4402.60574
4245.550505
4094.708318
3949.619817
3812.177108
3683.273908
1813.692698
2080.039185
2319.743844
2677.677449
3160.455329
3517.560284
3860.994807
4180.085703
4457.095521
4687.512508
4868.453057
4990.120144
5059.41178
5076.06979
5045.918843
4976.006625
4878.852728
4755.153064
4617.08067
4474.936547
4328.598549
4181.051766
4038.581861
3900.548572
3770.02699
3645.919134
1902.758007
2180.496536
2492.669487
2856.585375
3271.266341
3598.652037
3911.499408
4187.009464
4419.05474
4600.954482
4739.061125
4819.717062
4855.665865
4848.317326
4800.650445
4723.253364
4619.961827
4503.65286
4375.042187
4240.930749
4109.806852
3975.175716
3845.996055
3705.203212
3591.202764
2026.831595
2292.098876
2571.697225
2913.933083
3292.126952
3581.643074
3853.684031
4086.868753
4272.935269
4427.849345
4525.009587
4585.169407
4601.479744
4578.931823
4530.072365
4456.201012
4364.058572
4256.275722
4139.314259
4021.614664
3900.709024
3759.787555
3638.854094
3534.336399
1902.602619
2141.75809
2351.785264
2621.208067
2886.662025
3185.410127
3531.168004
3768.800427
3965.237689
4116.398932
4236.459967
4309.95645
4354.268637
4359.71143
4328.687153
4278.716577
4209.917305
4120.855918
4022.621433
3917.342175
3789.171196
3673.84985
3572.209097
3484.846597
1955.936113
2125.781063
2370.324471
2602.272818
2847.03495
3139.307188
3426.133458
3621.607937
3789.517765
3919.499646
4015.955012
4073.208488
4100.965762
4101.370245
4075.029756
4026.567058
3958.890448
3844.059592
3759.23138
3672.528902
3586.055826
3509.018933
3425.733449
2137.680997
2393.39131
2581.863142
2802.721291
3010.397648
3183.635693
3376.517682
3586.341223
3698.594397
3771.562433
3820.792944
3838.616066
3780.123655
3746.726351
3717.782478
3665.753528
3608.076885
3548.010082
3482.291765
3419.348292
2183.591465
2349.217594
2549.365416
2734.22144
2882.092874
3064.317796
3219.599318
3325.095731
3415.727976
3480.359486
3529.163896
3540.568192
3531.748747
3526.059829
3511.739958
3480.622849
3422.480127
2339.030295
2499.572214
2677.282041
2824.552214
2948.762622
3054.368709
3149.059986
3228.385104
3291.028731
3335.03442
3350.473585
3350.050664
3357.462466
3339.848988
2435.951324
2587.647433
2688.346556
2791.656247
2897.299438
2984.844093
3057.518106
3126.318257
3146.258388
1597.92471
1971.219524
2444.254546
2911.914184
3411.020426
3934.457149
4450.803421
4988.612535
5485.450499
5925.337124
6299.342859
6576.775144
6766.525965
6845.791237
6823.987488
6713.554058
6537.209474
6312.604547
6057.750384
5787.579468
5516.835987
5255.809218
5007.25637
4778.258253
4567.067173
4375.855084
4200.6217
4041.802893
3896.89927
3766.425655
1615.143857
1944.153248
2358.378988
2889.310189
3376.876118
3894.008114
4424.020125
4954.264731
5443.160876
5901.719064
6277.887725
6564.084112
6753.372362
6836.669566
6822.597679
6722.47265
6542.182572
6317.486661
6062.919569
5793.398635
5525.320105
5262.010668
5016.018816
4785.765429
4572.689293
4379.795481
4205.034851
4045.09174
3899.395603
3767.078213
1604.542272
1886.117127
2274.386676
2865.200452
3352.512341
3877.931389
4413.56177
4927.481846
5435.198353
5879.206827
6257.718448
6548.998124
6730.158342
6814.550749
6799.176658
6696.084819
6527.229207
6305.263334
6053.086635
5784.976764
5517.459515
5258.184372
5011.644859
4782.863635
4570.902587
4377.101339
4201.346727
4042.599213
3895.617755
3764.300341
1571.421102
1841.953099
2213.65145
2771.278179
3258.756386
3759.414712
4287.813328
4800.338113
5293.133503
5741.743629
6121.92202
6419.637268
6621.690987
6711.790653
6711.738968
6630.159731
6469.195036
6259.782591
6015.745679
5758.501826
5494.329378
5239.339952
4997.839954
4771.486271
4563.153048
4370.985528
4196.189273
4036.320042
3891.100888
3758.329
1544.108093
1807.144195
2155.879807
2679.939028
3152.14994
3643.167169
4130.569609
4640.649075
5123.490278
5559.059285
5941.772178
6249.488514
6464.714592
6574.20665
6591.88164
6525.014896
6384.124566
6193.855137
5963.014372
5716.476748
5465.767966
5217.281316
4981.054118
4756.186886
4548.505579
4359.831363
4185.906316
4027.811253
3883.839014
3750.729038
1493.112275
1742.183473
2094.582887
2601.414033
3056.777209
3536.904092
4036.147343
4519.167219
5005.741814
5444.855784
5819.288994
6124.320742
6351.322402
6473.672863
6496.66956
6443.944848
6314.318099
6134.357736
5915.858431
5679.498001
5435.66243
5195.815519
4962.167654
4742.468976
4538.233381
4348.601279
4175.390053
4017.967447
3873.170163
3740.881957
1660.377321
2013.594938
2407.465619
2915.652122
3371.660399
3847.969624
4332.174522
4802.036794
5225.978852
5613.603118
5916.221669
6148.965875
6287.121668
6338.162817
6300.78711
6195.870857
6036.821984
5835.809968
5616.415887
5383.242368
5150.98487
4928.062745
4716.095581
4514.517323
4327.725114
4158.014717
4000.110388
3856.681296
3725.310807
1612.247758
1878.892299
2231.88006
2742.361224
3183.639736
3646.058078
4102.066938
4549.951329
4976.052564
5359.766025
5675.806094
5919.721311
6071.712229
6146.654138
6134.474018
6048.62931
5916.580062
5738.217224
5532.916359
5319.325119
5101.234732
4884.997723
4680.939502
4485.062768
4302.491768
4134.350366
3980.792262
3839.351322
3709.987462
1544.620876
1774.325945
2107.77883
2513.897812
3023.824534
3472.715496
3918.497467
4360.990755
4775.374236
5156.429863
5471.702476
5712.895838
5882.377587
5967.263731
5970.573807
5911.083399
5794.745132
5637.190868
5451.336964
5248.533362
5045.358674
4840.485585
4642.216289
4455.955567
4279.103981
4113.552646
3959.349926
3817.168256
3687.519579
1699.760225
1964.426217
2311.416036
2810.403376
3218.801425
3643.139839
4059.327789
4460.136629
4820.08252
5136.453402
5390.241613
5577.84336
5691.87458
5725.574024
5705.807647
5618.33656
5488.974544
5332.401977
5154.967689
4965.535091
4779.266603
4592.207314
4412.006883
4242.666259
4080.909884
3933.963438
3795.882666
3667.102828
1582.740996
1828.428197
2130.974738
2512.268043
2972.788048
3391.848102
3780.074624
4166.796795
4520.510901
4841.375804
5090.48469
5283.807342
5411.1702
5478.033743
5474.481375
5423.883173
5324.507194
5193.461558
5040.324454
4873.848725
4701.711436
4527.517517
4357.013273
4194.283239
4040.565648
3896.077376
3759.871636
3635.847893
1719.6679
1965.598058
2258.634694
2645.805701
3107.093096
3478.963335
3847.33617
4193.369889
4501.273072
4763.947007
4972.554822
5123.52859
5210.260328
5233.605002
5207.854048
5142.713307
5036.547557
4907.303512
4761.290518
4606.667671
4448.134165
4292.919362
4137.176828
3993.322448
3854.202134
3722.986125
3599.277492
1589.47764
1837.113764
2057.587781
2386.135188
2846.295597
3201.039783
3545.082884
3877.856776
4178.527169
4440.191867
4647.389712
4805.65707
4910.131161
4963.386755
4967.343336
4926.748425
4849.781191
4749.806543
4630.434619
4495.149416
4354.270264
4212.454849
4071.887139
3933.195004
3803.890782
3679.79689
3560.515176
1677.043594
1907.442618
2187.096979
2519.858486
2903.348744
3226.77861
3544.796133
3833.571721
4092.954297
4316.846779
4487.173045
4612.736922
4686.12608
4716.253941
4708.931898
4660.493928
4587.01379
4487.874789
4372.798539
4250.782487
4122.690116
3995.502234
3869.172569
3744.720001
3628.818596
3505.08342
1741.080933
1988.552891
2259.64941
2520.024853
2841.124955
3239.373366
3515.031063
3765.821573
3986.366544
4169.048018
4306.252844
4402.056415
4450.436946
4462.009689
4439.421404
4386.648111
4314.302925
4223.758232
4123.416838
4016.398865
3900.702423
3786.120415
3673.037735
3547.882609
3444.718494
1794.100734
2018.096354
2230.478384
2480.20774
2802.043907
3145.926681
3388.713729
3604.516413
3783.81347
3935.95136
4044.212315
4114.234566
4160.749708
4164.636181
4141.36653
4099.836849
4035.436026
3956.699905
3869.615298
3775.74132
3650.212542
3553.631153
3460.503148
3369.83333
1833.514459
2053.038367
2244.44349
2478.811695
2718.098503
2958.93665
3255.412199
3434.841144
3589.751221
3715.069499
3804.177131
3860.289214
3895.244234
3897.780554
3876.06155
3837.023259
3782.697231
3715.332161
3609.882773
3518.593761
3441.993233
3371.707414
3301.74827
1867.751126
2023.180587
2227.137628
2412.182055
2618.775093
2827.921304
3024.992373
3254.403439
3375.222026
3488.595719
3560.643318
3605.983151
3629.060367
3631.109101
3566.677464
3529.707285
3493.279115
3444.961972
3391.405746
3340.892921
3276.945478
1991.411383
2149.039005
2334.060703
2501.492523
2670.228492
2832.052126
2951.783438
3057.388721
3147.305054
3214.200499
3267.861409
3302.996123
3309.750445
3300.428934
3295.552127
3275.765498
3250.081359
3220.755592
2087.641316
2237.281628
2359.405853
2511.506929
2645.083901
2748.25493
2844.283607
2923.848469
2990.768407
3042.527422
3068.968424
3087.634299
3111.148264
3110.091367
2290.63164
2426.304198
2522.216734
2609.693413
2696.15404
2775.633007
2843.559903
2874.519935
1365.723055
1608.764933
1957.699432
2517.315804
3003.921907
3543.825396
4116.88367
4705.767437
5286.987749
5857.659303
6360.289015
6777.411456
7106.474592
7303.652043
7379.332757
7344.012814
7198.708407
6974.475286
6700.971417
6393.470516
6072.883539
5760.267262
5461.198933
5184.937028
4929.636639
4699.389212
4492.130912
4304.368633
4135.839139
3985.65694
3849.014891
3726.455036
1364.927971
1598.902291
1958.701598
2509.090179
3006.636698
3551.7967
4119.32446
4731.864734
5323.259809
5896.228924
6390.892664
6823.845226
7138.725676
7334.143765
7406.583377
7368.306795
7225.304863
7000.067002
6715.747594
6405.589869
6086.829869
5772.369557
5473.506402
5192.70275
4936.952531
4704.657672
4496.674893
4308.707936
4139.045628
3986.025132
3851.346514
3727.700527
1364.307239
1597.566914
1950.529044
2481.686357
2969.819444
3504.491415
4078.805157
4676.069995
5265.358808
5822.264081
6332.538644
6764.227232
7080.192787
7281.083004
7362.10012
7327.135505
7188.779952
6973.880561
6700.446874
6398.106643
6081.920649
5766.544534
5467.061792
5192.255702
4937.16135
4706.209833
4497.45166
4308.488096
4138.789571
3987.012813
3850.033021
3726.922013
1324.515619
1563.490622
1898.774025
2417.534897
2894.205265
3419.790694
3959.520374
4536.600439
5118.285248
5659.436103
6163.883235
6592.015851
6922.653409
7145.322412
7242.543284
7223.291341
7107.248562
6908.536842
6646.714537
6356.339668
6051.142326
5747.037182
5453.390759
5181.534077
4929.684261
4699.618844
4492.454875
4304.111535
4135.320524
3984.127979
3845.346499
3720.517838
1483.728592
1834.92265
2326.294668
2793.740501
3299.367044
3840.332774
4413.62329
4970.302913
5523.545681
6032.232173
6458.226255
6791.188071
7019.044798
7138.236368
7134.737039
7030.813624
6847.976932
6601.724437
6321.2333
6023.70142
5727.185985
5441.282191
5169.071134
4921.631659
4692.115807
4484.082105
4298.860773
4130.396136
3977.600645
3839.559132
3714.792704
1448.993765
1773.353986
2165.343703
2693.114421
3208.039382
3743.040122
4301.901254
4867.808842
5416.815883
5918.896012
6356.820771
6690.57261
6930.984131
7051.863585
7060.533371
6965.523562
6794.762964
6559.917786
6289.812688
6000.705499
5708.797739
5427.421054
5158.840784
4909.790488
4684.28963
4478.129084
4292.125828
4122.523216
3969.26252
3832.452033
3707.771259
1420.516855
1670.701855
2023.973741
2574.52857
3048.357992
3556.927902
4100.882424
4649.071839
5171.215701
5671.755729
6100.756478
6453.32206
6701.250316
6840.066133
6876.34195
6808.894737
6662.014381
6456.427042
6207.311873
5936.547892
5660.619902
5386.952846
5126.860356
4888.276508
4664.161347
4459.77598
4274.600546
4108.082551
3957.519702
3817.263191
3692.683568
1355.658996
1587.783267
1921.101956
2413.530868
2859.671911
3351.544723
3872.519992
4371.038116
4886.262569
5363.491777
5791.977828
6143.292729
6408.869051
6570.010819
6630.13906
6603.812515
6484.279658
6304.392433
6086.793839
5841.977946
5584.746195
5329.038878
5083.069917
4849.469844
4632.366952
4433.487453
4251.043475
4087.291143
3933.803134
3797.788817
3674.682292
1495.295225
1819.100276
2190.005685
2695.413781
3148.866816
3626.145317
4131.380579
4626.644384
5090.013836
5525.761675
5884.894727
6153.930726
6342.834541
6427.521273
6421.607173
6332.122539
6182.87037
5985.682828
5758.474061
5519.560555
5277.059464
5039.614307
4814.914635
4605.475482
4408.955278
4229.576584
4064.671558
3915.772686
3779.684099
3655.390092
1405.019959
1668.001279
2015.858897
2525.286024
2960.969177
3421.125144
3907.633594
4379.669365
4833.258322
5247.89884
5602.358472
5881.851928
6080.949447
6186.71151
6205.056015
6146.936823
6027.45782
5857.552134
5657.209913
5439.174821
5212.20486
4991.719267
4775.936125
4571.777889
4382.736829
4206.671209
4046.417412
3895.509725
3759.448298
3636.061924
1538.361264
1861.19203
2243.606461
2715.682598
3149.450904
3602.121867
4061.372698
4502.161911
4906.375312
5269.006369
5555.908512
5767.140876
5895.64765
5955.559479
5925.013968
5840.041469
5705.672687
5530.864958
5337.225978
5133.480626
4927.492833
4724.881395
4529.938064
4345.284291
4174.500427
4014.6362
3869.343554
3734.119831
3609.740968
1434.085928
1686.191588
2018.362201
2497.083468
2887.566114
3308.098083
3734.211765
4150.004699
4545.443758
4897.632043
5195.474255
5422.530668
5574.644876
5657.878529
5664.901253
5612.381006
5510.174674
5373.995304
5209.571557
5029.757433
4839.151796
4653.333969
4472.271358
4299.264536
4135.042211
3979.715014
3837.341077
3704.317705
3582.619231
1554.908071
1857.240663
2200.448019
2613.346393
3001.169014
3395.460044
3777.612251
4154.969501
4497.431056
4791.460587
5035.025374
5205.303977
5316.107646
5361.170658
5348.462161
5285.117618
5181.207821
5047.802527
4895.995366
4731.870574
4562.888873
4398.013086
4236.934122
4080.226538
3933.373025
3796.472242
3667.971206
3549.098003
1459.018909
1685.393508
1966.721105
2315.722114
2757.028191
3120.382213
3488.949614
3849.631313
4172.134419
4459.066011
4701.370144
4888.768903
5016.041952
5083.364934
5094.930353
5057.594421
4983.021518
4877.583575
4751.606204
4609.016942
4464.275144
4315.762898
4167.422769
4020.847991
3880.787244
3748.750278
3623.676073
3508.005474
1552.984286
1767.410566
2043.709304
2385.022674
2793.531146
3118.238999
3446.663059
3754.818328
4032.707231
4276.589558
4474.845347
4621.198987
4716.816022
4759.833565
4765.308233
4726.264368
4654.721492
4562.232369
4454.115862
4328.210674
4199.275831
4068.038982
3940.709678
3811.546888
3688.260807
3568.664821
3458.901941
1569.551046
1796.852087
2065.355056
2388.527632
2752.668739
3053.135539
3346.966759
3607.718999
3849.417034
4052.151119
4218.720886
4335.644831
4410.985395
4449.708133
4447.062123
4411.179897
4350.059222
4268.969011
4169.909264
4063.418254
3952.987039
3839.073431
3726.29666
3615.495441
3505.076252
3400.545148
1638.52594
1863.148377
2117.693209
2414.050193
2766.129635
3040.599448
3294.832489
3522.280332
3722.213547
3897.956044
4022.289523
4113.993704
4160.826063
4180.61656
4168.177429
4134.621282
4079.339637
4006.908487
3918.720902
3825.78169
3728.587587
3627.621643
3527.120895
3414.158556
3321.653662
1664.934707
1869.365824
2098.669624
2335.108177
2584.26146
2901.736129
3122.457834
3320.627039
3497.946724
3642.591572
3746.77469
3823.933429
3870.151472
3888.049648
3879.058233
3851.557521
3804.177082
3742.487321
3670.678996
3591.29541
3509.096558
3406.789248
3314.780832
3236.610096
1672.290323
1867.648293
2042.50902
2256.651334
2470.851757
2697.458113
2972.719646
3138.999239
3293.129014
3412.275133
3503.84359
3567.977648
3605.202152
3618.430336
3612.599772
3587.25827
3550.23606
3499.898647
3412.711795
3344.56534
3279.818382
3212.314922
3153.979211
1672.471328
1804.618875
1986.349532