/*--------------------------------*- C++ -*----------------------------------*\
| =========                 |                                                 |
| \\      /  F ield         | OpenFOAM: The Open Source CFD Toolbox           |
|  \\    /   O peration     | Version:  v1706                                 |
|   \\  /    A nd           | Web:      www.OpenFOAM.com                      |
|    \\/     M anipulation  |                                                 |
\*---------------------------------------------------------------------------*/
FoamFile
{
    version     2.0;
    format      ascii;
    class       volScalarField;
    location    "3.2711";
    object      Ttra_mixture;
}
// * * * * * * * * * * * * * * * * * * * * * * * * * * * * * * * * * * * * * //

dimensions      [0 0 0 1 0 0 0];


internalField   nonuniform List<scalar> 
60268
(
3383.87649
3635.904136
3793.698552
3939.595027
4058.508701
4149.960025
4216.022461
4252.450545
4260.510314
4245.360786
4173.544395
3329.362218
3597.624844
3788.404869
3934.294764
4048.902735
4139.318651
4206.94631
4245.692335
4254.599373
4240.069134
4167.48315
3554.334607
3767.188291
3902.158194
4022.294978
4116.491381
4183.239712
4222.666213
4234.338224
4195.36661
4129.652671
3459.851078
3696.224067
3853.52865
3972.965119
4070.363237
4138.809159
4176.673565
4195.682125
4143.666137
3562.334355
3788.828844
3918.941908
4018.514468
4089.673499
4096.231904
4093.367917
4080.97593
3600.218196
3770.293585
3865.540708
3953.879082
3968.968968
2790.874431
3128.905446
3361.150934
3596.69618
3894.382149
4250.501378
4443.029619
4586.057753
4680.345617
4726.446591
4731.097432
4699.193628
4635.104464
4546.326069
4389.806906
4263.823537
4163.216638
4054.340717
3943.011748
3824.803317
2812.548391
3109.335037
3343.727446
3566.579348
3847.44356
4148.543758
4404.58358
4549.292531
4644.079225
4692.653335
4701.872539
4673.80498
4611.924856
4526.810225
4378.154088
4254.750874
4153.884355
4045.861002
3936.164162
3821.271797
2765.695983
3074.937711
3311.230177
3535.611432
3770.5181
4046.06623
4356.420748
4502.354776
4602.598413
4654.321167
4667.601864
4641.384622
4582.747962
4458.580377
4346.503288
4237.367169
4140.085689
4034.071546
3920.818987
3803.408859
2753.925973
3047.628404
3275.718326
3500.93781
3713.786621
3970.15089
4233.015239
4447.134393
4547.484845
4603.127065
4617.468529
4597.37243
4541.395148
4412.431943
4306.254676
4216.644916
4119.371774
4017.050633
3899.755898
2663.654569
2955.778617
3199.105433
3426.797625
3639.932312
3840.263695
4058.324689
4280.456311
4449.364938
4514.585434
4537.455631
4467.721613
4420.749574
4347.191037
4261.732446
4183.805214
4093.705685
3994.034407
3880.727606
2858.15054
3143.71569
3360.941819
3567.545869
3751.108073
3924.185768
4110.200061
4246.760516
4320.587275
4361.221317
4351.271489
4317.848491
4270.444855
4212.383473
4140.980962
4055.584064
3956.021649
3848.413169
2766.598359
3037.844947
3256.165503
3457.310165
3641.153542
3802.114904
3944.266146
4065.151119
4143.977332
4194.11102
4217.272793
4215.859459
4193.27234
4145.287861
4080.87489
3994.083317
3895.32362
2881.954881
3145.869752
3351.172229
3525.206794
3684.848338
3823.014168
3936.108267
4021.865663
4083.003733
4113.660333
4120.845387
4106.202555
4069.658939
4002.209766
3914.94651
2973.768423
3218.734272
3403.215217
3558.445567
3697.319381
3811.446097
3900.697395
3967.407409
4007.625859
4026.702481
4023.94543
3979.837873
3908.726745
3058.126209
3235.616201
3431.745662
3582.868867
3696.171565
3789.492553
3859.67195
3904.71049
3900.886437
3888.830882
3861.881149
3238.641408
3395.450954
3498.184115
3591.671071
3674.83317
3737.596265
3751.042207
2363.306553
2672.348927
2926.124634
3314.724757
3808.587764
4138.418252
4440.20343
4696.380157
4900.586896
5050.151614
5140.933751
5173.495701
5158.273369
5101.222944
5005.227336
4885.385858
4749.106604
4600.664262
4447.946374
4295.581149
4145.713412
4001.034584
3845.382934
3720.435439
2335.335435
2654.403049
2918.579637
3292.361325
3795.855519
4130.053077
4426.276743
4682.253936
4885.726273
5033.179862
5124.521948
5157.398346
5142.49028
5086.448393
4992.074399
4874.628271
4739.006691
4593.789778
4441.861336
4290.347712
4140.559247
3996.957606
3843.397939
3718.183659
2327.143338
2636.959717
2888.82846
3264.107005
3748.030969
4080.504601
4381.767519
4638.869835
4846.000203
4994.803768
5088.674108
5126.807553
5114.378025
5061.309885
4970.797281
4854.728183
4721.190466
4577.249825
4427.369838
4278.29626
4131.215742
3971.156136
3833.113768
3712.688135
2303.267655
2605.675256
2857.189025
3215.32541
3680.171317
4006.263244
4301.251433
4556.132174
4761.902399
4916.172743
5010.680659
5052.132638
5048.245126
5000.124113
4914.574351
4807.677692
4681.489338
4544.195662
4399.442377
4253.598071
4108.236869
3946.730858
3812.450136
3701.788155
2233.157873
2535.184596
2800.366157
3125.681537
3512.357073
3914.880749
4210.788549
4465.303763
4670.464926
4825.832055
4925.436711
4976.814837
4977.013756
4935.6536
4863.138507
4759.180882
4638.384282
4507.082172
4367.72
4226.118451
4085.47176
3926.434016
3794.148001
3684.169518
2438.876536
2733.056004
2991.424118
3336.720524
3761.591563
4058.160032
4313.369688
4526.211386
4690.248071
4803.981484
4865.50768
4878.064666
4850.428236
4786.936079
4696.428577
4585.113339
4460.488095
4326.820554
4191.06151
4035.35592
3899.257815
3777.844725
3666.281188
2324.906612
2636.544976
2897.004968
3203.559593
3560.840616
3930.709663
4184.880863
4399.233625
4563.187774
4680.331925
4749.43744
4769.440414
4750.871473
4699.334194
4618.762548
4516.366328
4400.151265
4275.659171
4119.594534
3983.955772
3862.560634
3755.979136
3641.705502
2498.269486
2786.698759
3028.916782
3322.51976
3651.667651
3978.8265
4198.46607
4374.810348
4499.899347
4583.697477
4621.973712
4619.312039
4580.696696
4516.189365
4427.375212
4323.961116
4176.31469
4047.950686
3931.51172
3829.890842
3722.069436
3618.924717
2393.499454
2678.01619
2922.682885
3149.149853
3426.398006
3725.895779
4009.395765
4185.533089
4323.595903
4413.72407
4465.0912
4473.252813
4450.821238
4400.919819
4325.310355
4198.700116
4083.993137
3978.533161
3885.926467
3789.040475
3681.985655
2502.103493
2784.547478
3004.764685
3218.654609
3464.501883
3689.578267
3901.556229
4108.114212
4211.882433
4277.589848
4303.45495
4297.202032
4210.696961
4147.839828
4072.03219
3987.53301
3911.617519
3826.940338
3734.307252
3636.961514
2599.142106
2875.578514
3087.17779
3273.318399
3459.925122
3653.314226
3816.203776
3918.046597
3995.22172
4043.413052
4064.531726
4044.522294
4000.798177
3956.532603
3905.303578
3839.608459
3759.184406
3669.144001
2676.469667
2910.199272
3100.304697
3263.272494
3415.747878
3553.409641
3657.868282
3744.767296
3806.775522
3847.042981
3864.83793
3864.81542
3844.042794
3792.465158
3733.268514
3674.079183
2699.15828
2887.461562
3077.355222
3247.684383
3371.614782
3488.950434
3579.288264
3650.527589
3702.235957
3729.738779
3718.933601
3696.488217
3663.609679
2875.010595
3030.339962
3145.507593
3254.565943
3348.420644
3432.53191
3499.201239
3548.268414
3551.087341
1900.457153
2162.247254
2419.818876
2815.431155
3390.230727
3807.255829
4209.215026
4582.667511
4912.968357
5194.871054
5410.660963
5559.612057
5636.626401
5647.812893
5597.994529
5504.820241
5371.729769
5213.499416
5039.468269
4857.641854
4675.205568
4497.994374
4326.561211
4163.536512
4011.809294
3869.831039
3737.553742
1870.399617
2153.970416
2406.129374
2798.403065
3346.51562
3765.651316
4168.997663
4550.19188
4888.254906
5173.95253
5398.776538
5550.199517
5631.656371
5646.928892
5600.233167
5505.356236
5373.427967
5214.775088
5042.001416
4860.511902
4678.15268
4499.604846
4327.780751
4166.057619
4013.193916
3870.569019
3738.158634
1846.422244
2129.85134
2400.422087
2786.876685
3336.228711
3747.798398
4148.652521
4519.155501
4853.682722
5134.009564
5349.963735
5501.090861
5584.595706
5601.169173
5558.702698
5471.582642
5343.898854
5191.020879
5019.88235
4843.465959
4664.475039
4488.756333
4319.132858
4158.22211
4006.806172
3865.45364
3733.543226
2041.170063
2345.744886
2710.625217
3209.724938
3606.458843
3999.088556
4363.688346
4694.217427
4979.506002
5206.6907
5369.886414
5467.246241
5496.828009
5469.051025
5393.56204
5278.799868
5135.25936
4976.555962
4807.646401
4633.646458
4464.24255
4298.263917
4140.521986
3990.904723
3851.356368
3720.822385
2006.250107
2303.151367
2632.215659
3044.963187
3517.108823
3902.890763
4262.808775
4594.075592
4881.54341
5112.935893
5276.655375
5380.558703
5419.300754
5401.394405
5332.159334
5226.176058
5090.737624
4936.291088
4773.728727
4607.211102
4439.898374
4277.086395
4121.380346
3973.928054
3835.380341
3705.730349
1977.2859
2255.481515
2517.908785
2898.138193
3421.429568
3805.908418
4163.711229
4486.264857
4771.616484
5003.546273
5171.04849
5277.654507
5322.989714
5311.859366
5254.282703
5158.668999
5034.210082
4888.590297
4732.387929
4570.685778
4409.472043
4251.857026
4099.239945
3954.797371
3818.335496
3689.575333
1925.972343
2194.99699
2444.260665
2782.040228
3199.093954
3657.273292
4011.003051
4334.798891
4614.480506
4845.904028
5025.514106
5142.44844
5197.606827
5200.821446
5156.875316
5074.658118
4961.560046
4826.955334
4680.359588
4527.62758
4372.196156
4218.568164
4071.001544
3930.268579
3795.880264
3662.423343
2062.624045
2336.480042
2593.04734
2959.247587
3455.378036
3801.113345
4125.611339
4407.644103
4644.981304
4831.65715
4961.469269
5034.499379
5056.173553
5028.545613
4961.022045
4865.554641
4746.336825
4612.662654
4469.486019
4323.119079
4176.871033
4035.265669
3899.217371
3753.732158
3633.617313
1977.358902
2251.444913
2495.586812
2808.450985
3188.295976
3600.973802
3910.18055
4190.732211
4429.359343
4616.800096
4758.328206
4847.359877
4885.662254
4876.118378
4828.066018
4750.799701
4646.419655
4528.519896
4398.416794
4263.067637
4126.321284
3990.757539
3858.922588
3714.646644
3595.985289
2086.575807
2364.881196
2621.828344
2934.054881
3304.509013
3697.672993
3971.921776
4212.895136
4410.142786
4555.307339
4654.545863
4704.997785
4712.459336
4682.698776
4620.420159
4533.313502
4429.363864
4313.246813
4188.864338
4061.983996
3934.946792
3793.824266
3670.416278
3563.11254
2228.79046
2501.85208
2727.463606
3025.144376
3365.784578
3706.084252
3942.385709
4140.289033
4300.352557
4411.043807
4480.740093
4508.578278
4498.632224
4458.069758
4392.58687
4306.403872
4206.528056
4095.533238
3980.289677
3844.963901
3724.388987
3616.812341
3522.962662
2093.792205
2340.001076
2565.525049
2787.141464
3061.889723
3369.867485
3677.433414
3876.48171
4040.167947
4165.078557
4248.183352
4293.408223
4304.882733
4283.348078
4237.16097
4168.990261
4084.393763
3956.978889
3856.671963
3756.646641
3657.251364
3566.176248
3468.786138
2175.446298
2419.172351
2625.425864
2829.977937
3080.846706
3311.972439
3537.789445
3782.686962
3918.20563
4013.837073
4072.99541
4097.720596
4094.491551
4064.839506
3967.977097
3899.346629
3822.157582
3741.115566
3668.967768
3589.030684
3498.078473
2229.004515
2409.403748
2639.714568
2841.706683
3018.825217
3225.696062
3407.338767
3533.130598
3637.828577
3716.996377
3770.822324
3797.940504
3805.966144
3778.307714
3731.489324
3689.632246
3641.599293
3577.749724
3500.894329
2428.018076
2655.056957
2832.803843
2984.127217
3125.511777
3249.103357
3351.122605
3438.633577
3505.870604
3553.060344
3580.990581
3592.951534
3588.91212
3555.893023
3512.279975
3469.397787
2446.194104
2600.183578
2726.371216
2908.211977
3044.380368
3153.41867
3245.356037
3319.810762
3377.143402
3395.129951
3401.336971
3419.390114
3406.027875
2672.358327
2810.023679
2913.768527
3008.838622
3094.002358
3164.923179
3192.305004
1650.410952
1901.537403
2236.364351
2720.690594
3157.42466
3602.961558
4061.084514
4509.486365
4924.700556
5295.33323
5606.486177
5850.538909
6009.589163
6088.928067
6084.966468
6013.55585
5887.920601
5720.177634
5523.847724
5313.263042
5098.529702
4886.699386
4683.147196
4491.073915
4310.716665
4143.928441
3989.712503
3849.270046
3719.613378
1615.892726
1892.032866
2236.850364
2716.324937
3155.463516
3609.788935
4068.753842
4518.348569
4937.304243
5313.040388
5624.103559
5866.657576
6024.860529
6098.981437
6096.476842
6022.738549
5894.086063
5724.060597
5526.847472
5316.774954
5101.766238
4890.848942
4685.94847
4493.085854
4312.874153
4146.00808
3992.604135
3849.665744
3719.910824
1832.455581
2189.819845
2587.469769
3088.568981
3529.958047
3976.157629
4421.977632
4841.178642
5219.793402
5542.820561
5790.869898
5959.254822
6043.072541
6051.898531
5985.520464
5866.183149
5702.928914
5510.601898
5303.977477
5093.110993
4882.95602
4680.575405
4488.212477
4309.155493
4142.748074
3988.521648
3847.0798
3716.971721
1793.53219
2097.961343
2480.64179
3039.988113
3487.076573
3933.424611
4371.89194
4790.295206
5157.850138
5471.049916
5718.878069
5885.350341
5972.422835
5982.919107
5925.441741
5811.415792
5657.255653
5472.641458
5272.833022
5066.594282
4862.255597
4663.446741
4474.620981
4296.569473
4131.113558
3979.326024
3839.268688
3709.850466
1772.714155
2053.688525
2420.791462
2963.778347
3399.615925
3842.232749
4278.462797
4685.267572
5055.710719
5368.620294
5620.756907
5792.966943
5884.937273
5903.033459
5854.469729
5750.769608
5604.871631
5428.350979
5236.130686
5036.921333
4837.419668
4641.802158
4455.272776
4280.253499
4116.978462
3966.042891
3826.057913
3696.875136
1719.422563
1984.742706
2328.224338
2814.242925
3232.688753
3658.793894
4084.804636
4490.388266
4860.988344
5181.774829
5441.216441
5629.33643
5739.098642
5773.377059
5745.20066
5658.248321
5529.153904
5366.837879
5186.188805
4995.594394
4802.823427
4614.292815
4432.866221
4261.474509
4100.864966
3950.969622
3811.212218
3682.480323
1672.664397
1935.96361
2247.100067
2648.816514
3134.307757
3548.079143
3959.119215
4351.921395
4715.400603
5030.920983
5287.5362
5477.544607
5596.631628
5642.397292
5625.655497
5554.497877
5438.158651
5291.928407
5123.885455
4942.55494
4759.231868
4577.343701
4401.336192
4234.562229
4077.569684
3929.875444
3792.894308
3665.546863
1817.687148
2107.066261
2456.166272
2962.863639
3363.121933
3766.886469
4154.826937
4515.853617
4833.433358
5095.820174
5291.578788
5423.765858
5486.844594
5487.999519
5433.699105
5334.861935
5203.521991
5049.107358
4882.061482
4708.188423
4533.744124
4364.468124
4203.025015
4049.644007
3905.480573
3771.262701
3645.700599
1729.884145
2002.032248
2313.519698
2699.621389
3153.376882
3545.942948
3918.678212
4276.284382
4592.673843
4862.618756
5073.593226
5221.607615
5304.334996
5325.149388
5291.557464
5214.331609
5101.166677
4962.349438
4809.482438
4648.48898
4484.216428
4323.995108
4167.502355
4018.527395
3877.038464
3744.817193
3621.876325
1878.84194
2171.071837
2483.932318
2887.345887
3354.418148
3716.575704
4060.45497
4369.428556
4630.459233
4847.189552
5003.767315
5096.614397
5135.036887
5121.429274
5063.409947
4970.422013
4851.524318
4715.775231
4569.417379
4418.841844
4267.138908
4119.529178
3976.036133
3840.671317
3711.867502
3590.586936
1776.669022
2032.906867
2278.201294
2616.996845
3085.099499
3429.573888
3759.081285
4064.649023
4329.923177
4547.991766
4716.687185
4831.269771
4892.698184
4904.566062
4874.355065
4805.3163
4711.787838
4595.483298
4466.234932
4330.714042
4193.006404
4054.837868
3920.231657
3790.447614
3666.872988
3550.42531
1863.843162
2138.813331
2440.938132
2794.981509
3192.064589
3504.865412
3804.529573
4064.911782
4286.136806
4460.995549
4586.326884
4661.836502
4692.338671
4681.329766
4635.206116
4560.185746
4464.712163
4354.263074
4233.742985
4107.901083
3982.685677
3857.245975
3735.980544
3601.844681
3494.2927
1985.782359
2240.065242
2516.533992
2844.736809
3211.228824
3490.402162
3746.657716
3965.322821
4146.126073
4288.664697
4384.590951
4436.143104
4450.050887
4428.040012
4378.834017
4306.525939
4218.70956
4116.894086
4008.646609
3895.334739
3780.553342
3649.219083
3534.851752
3435.99722
1859.907643
2087.417269
2297.706713
2557.944263
2818.598445
3103.777899
3433.78426
3660.938019
3847.415206
3995.063193
4104.910205
4173.854873
4211.067661
4212.880362
4185.245002
4136.681055
4068.287492
3986.406565
3893.546767
3793.946793
3672.030862
3563.453918
3468.198441
3384.814453
1904.340529
2078.970747
2313.43457
2529.958463
2773.664322
3054.136447
3334.278832
3522.363467
3680.030259
3801.135741
3890.841071
3945.562991
3969.141427
3967.316888
3938.817696
3892.200839
3830.998796
3721.739562
3640.202997
3557.715663
3476.011126
3403.172007
3324.311801
2085.592996
2329.351208
2517.254582
2728.748117
2929.477293
3098.984542
3283.990081
3484.317798
3587.736969
3656.740667
3700.603423
3718.29951
3662.827833
3626.679291
3598.90219
3550.461803
3492.698001
3433.438884
3373.382649
3315.727008
2127.697712
2287.090384
2483.688377
2659.832085
2799.058412
2973.57219
3125.804607
3228.206695
3310.376155
3375.183321
3417.684005
3427.047907
3416.155586
3411.137855
3398.214602
3368.086544
3313.964944
2278.288804
2428.330042
2596.417166
2742.518594
2859.055637
2961.517651
3051.889231
3127.303472
3182.940466
3224.894613
3238.98503
3239.279853
3248.001419
3230.437697
2365.837191
2506.593605
2604.20316
2707.238117
2804.554476
2890.179737
2960.890205
3022.745169
3043.545155
1571.421914
1934.211059
2405.007137
2855.371001
3338.203322
3843.700855
4352.536929
4859.495828
5331.558172
5749.281618
6096.814509
6362.182045
6530.009478
6598.036653
6573.669
6469.398293
6300.600348
6088.220516
5846.729941
5594.520974
5340.657989
5095.520681
4863.479613
4648.019346
4449.436363
4268.019713
4102.70518
3952.147179
3815.958329
3692.021099
1580.722353
1914.380645
2313.84627
2831.264754
3307.413348
3809.664084
4319.891377
4825.514577
5300.949011
5727.056749
6080.782969
6347.668678
6520.642322
6594.476448
6574.676665
6471.498221
6304.57715
6090.621491
5850.51915
5598.450909
5345.483178
5100.471074
4868.614516
4652.391795
4452.069827
4270.91774
4104.786085
3953.735829
3816.424673
3692.302918
1567.93583
1848.820096
2228.227366
2810.347874
3288.115643
3792.697468
4307.212131
4804.317123
5282.006713
5704.597246
6057.984412
6327.201481
6497.612736
6571.492933
6551.86992
6451.305476
6287.713448
6079.119604
5841.045678
5590.371455
5339.951852
5096.232669
4865.455491
4649.705326
4450.75751
4269.218375
4103.373665
3952.907338
3814.302218
3688.759609
1537.361804
1809.330288
2175.878962
2726.069051
3192.441478
3682.416464
4185.686374
4680.476509
5150.821294
5574.555656
5932.027826
6207.595558
6392.077311
6476.293885
6471.656504
6384.187944
6231.633668
6032.991325
5804.578864
5561.812246
5316.452302
5078.894878
4851.241705
4638.175103
4442.074681
4261.435881
4096.123287
3945.254061
3808.253192
3682.848804
1515.011504
1774.350628
2118.742878
2634.257237
3083.772191
3557.862626
4042.538601
4522.610225
4986.476681
5404.279317
5762.097112
6049.61742
6246.952928
6348.345335
6358.321215
6288.654389
6152.94522
5971.157991
5754.959137
5522.773611
5287.979438
5055.381564
4832.698209
4622.729815
4428.708485
4249.239608
4085.369752
3935.472604
3799.029047
3674.049655
1468.52655
1714.262642
2055.187299
2552.740323
2995.884285
3459.259764
3940.534191
4413.731784
4873.869531
5290.222843
5647.116345
5933.39532
6133.510704
6244.531365
6264.541013
6207.443154
6082.974648
5912.916104
5706.503054
5484.319678
5254.770573
5029.463854
4810.989357
4605.337006
4414.151519
4236.467479
4073.158553
3923.824922
3787.438738
3662.770825
1630.935733
1971.088575
2361.140524
2857.898717
3304.724403
3764.787373
4223.707693
4669.346669
5079.974813
5443.272528
5734.684867
5945.626072
6071.427474
6111.940072
6073.950544
5972.428371
5819.198687
5631.526994
5423.981608
5205.679741
4988.087084
4777.417276
4577.05591
4389.423356
4215.152936
4054.244368
3905.72818
3769.524994
3645.715805
1584.14095
1842.464315
2189.841324
2690.290959
3120.62389
3562.22794
4004.962751
4439.185348
4845.292597
5206.976333
5502.465568
5725.809572
5866.681366
5927.106718
5912.064258
5830.652488
5700.833721
5534.189122
5342.739741
5140.622693
4935.057753
4732.782068
4540.315018
4358.56014
4187.651275
4029.523774
3884.127592
3750.144608
3626.802573
1511.684782
1749.711726
2066.983146
2469.418903
2964.256069
3395.187609
3828.062481
4250.927004
4647.839012
5005.351715
5299.944196
5527.452539
5681.294519
5757.016683
5756.978346
5698.000284
5585.832611
5435.972465
5261.228378
5072.552605
4879.5489
4687.258926
4501.813697
4325.453775
4159.402295
4004.438494
3860.365057
3727.242523
3605.137935
1667.748604
1923.673919
2261.19972
2751.141312
3147.328293
3556.307003
3954.651304
4335.383551
4685.999064
4984.277822
5223.749258
5399.038925
5498.915446
5530.764578
5501.644324
5420.211753
5297.414762
5146.894115
4978.98393
4802.503805
4625.914092
4450.884678
4281.518218
4121.366747
3970.583302
3830.701441
3700.231936
3579.498843
1551.729555
1791.307496
2086.896051
2464.007707
2916.51489
3309.469135
3691.91311
4056.938081
4398.224375
4697.035614
4939.951201
5121.88673
5240.321008
5293.184463
5288.126883
5234.712987
5138.104775
5014.212279
4869.070925
4711.395264
4548.989148
4385.878861
4225.682279
4073.195666
3929.788916
3792.675122
3665.40426
3547.404428
1679.176947
1925.537773
2217.44608
2595.170913
3040.55315
3403.050779
3754.437385
4082.647585
4377.212864
4625.497594
4819.453665
4956.976524
5036.440426
5057.708111
5029.784028
4963.701014
4863.562291
4740.634377
4604.112817
4456.619953
4308.262422
4161.098967
4017.448797
3880.684708
3749.881331
3626.315805
3510.180022
1557.87277
1791.123768
2018.479678
2336.036321
2785.234125
3128.025034
3460.202098
3775.638698
4061.106287
4307.68301
4507.403699
4655.108617
4751.593768
4796.783812
4797.341995
4758.23814
4684.748192
4588.800775
4474.410843
4348.674258
4216.526874
4082.426379
3951.056665
3821.685916
3697.874158
3580.472348
3469.120145
1637.187269
1867.555074
2136.654856
2460.126852
2838.452056
3150.146346
3453.037774
3730.970513
3979.059643
4189.939566
4350.82709
4468.039932
4535.494958
4561.200226
4547.734936
4501.432821
4427.99328
4335.14334
4229.595565
4114.264217
3994.817878
3873.895468
3754.784669
3639.186937
3527.574027
3410.45875
1706.261429
1942.672548
2203.238433
2464.613605
2771.087835
3151.545253
3424.498426
3666.502781
3874.550481
4045.006247
4173.741765
4260.862831
4303.833226
4313.701331
4290.652447
4241.545195
4170.891864
4086.215234
3989.189857
3885.619769
3779.389665
3672.207851
3565.445539
3446.341141
3347.239045
1749.617396
1970.652188
2173.88833
2425.498114
2731.915171
3062.621393
3297.420887
3503.115904
3676.738668
3818.371092
3923.500186
3988.509926
4024.404123
4030.001315
4008.999231
3965.802939
3904.073328
3830.994733
3747.880415
3658.437459
3538.559995
3446.311875
3358.688124
3273.997429
1787.303907
2004.368055
2189.747039
2419.851821
2646.277282
2882.383366
3161.019343
3336.295703
3485.782481
3602.099488
3686.387852
3741.847218
3767.548026
3769.983042
3750.857694
3713.951998
3660.512668
3596.025145
3496.715245
3409.21169
3333.708888
3267.323493
3202.006627
1824.226945
1972.333577
2169.343934
2354.135971
2550.813458
2753.667473
2939.580282
3155.818813
3280.513207
3378.187533
3450.920238
3493.218719
3514.467442
3515.140265
3453.968299
3415.160153
3381.981292
3337.033038
3284.287742
3235.580205
3175.465665
1938.389044
2096.046465
2274.192995
2434.201937
2598.467804
2752.999544
2866.873153
2966.752163
3051.531774
3117.7313
3168.428041
3202.510572
3207.362256
3197.706635
3191.973564
3172.098863
3147.706961
3119.750799
2036.141161
2181.166826
2296.165302
2446.106711
2569.513893
2669.658796
2758.108465
2835.972235
2899.463984
2949.461426
2973.166808
2993.013382
3016.748585
3016.98725
2225.849481
2355.809125
2443.410312
2529.297087
2613.48036
2689.404457
2752.44483
2783.947525
1340.664519
1577.995505
1923.241864
2468.644159
2950.126993
3472.474283
4023.939646
4593.735511
5153.743161
5695.013224
6170.179917
6562.261187
6863.7361
7044.524771
7111.549438
7067.594759
6930.884296
6718.334596
6459.418066
6169.371603
5870.626065
5576.584352
5297.112699
5037.580552
4797.941835
4581.033978
4384.970107
4207.749861
4048.368816
3905.047718
3775.905068
3658.643602
1339.687484
1573.090658
1919.193674
2464.847058
2953.353816
3479.835218
4036.772598
4617.137354
5184.332293
5725.003399
6202.392761
6599.730781
6892.638061
7070.826519
7133.591383
7089.1496
6948.975335
6737.370607
6473.657122
6181.959953
5881.633264
5586.781193
5305.769127
5044.389314
4804.827576
4586.456738
4388.994883
4210.889266
4050.49598
3905.839079
3777.108134
3659.611666
1339.30019
1570.37732
1910.563972
2439.473227
2915.647198
3440.761085
3993.157374
4561.516038
5130.443369
5657.489652
6139.180667
6538.364128
6835.750824
7022.931241
7091.708466
7053.821402
6918.603359
6713.503023
6456.023941
6170.009437
5874.184012
5581.525056
5302.831167
5042.604296
4803.439754
4584.857733
4387.968056
4209.843654
4050.473036
3906.386447
3775.597785
3656.747102
1302.514583
1531.938326
1863.205653
2372.91547
2835.82328
3342.366581
3876.602858
4430.636666
4979.72025
5503.457479
5980.534613
6380.852435
6690.958419
6891.196979
6978.822463
6957.715791
6842.409619
6651.738399
6407.818805
6132.723391
5845.020598
5560.50726
5286.534729
5030.424033
4793.609349
4577.686098
4381.374261
4204.507993
4044.11582
3900.268182
3769.840609
3652.387816
1451.487168
1804.545917
2286.797059
2739.706074
3234.089054
3758.412497
4307.601775
4850.208719
5376.003297
5849.740016
6258.193674
6569.360805
6779.241831
6880.650958
6872.234247
6768.271897
6591.917964
6360.541277
6096.779077
5818.040163
5539.491482
5271.848569
5017.673992
4783.254962
4569.116894
4374.117625
4197.493002
4038.19013
3893.43661
3762.824576
3644.351553
1425.609257
1741.649812
2132.389248
2650.312601
3144.950949
3663.198089
4203.885904
4743.452337
5264.753059
5742.277783
6151.485974
6467.415798
6686.062315
6790.777578
6794.024177
6701.655354
6536.44993
6314.879176
6060.643729
5789.023297
5517.609389
5253.438487
5003.772522
4772.411043
4558.992912
4364.353042
4189.342502
4029.196722
3884.740032
3753.882438
3634.444886
1397.103971
1644.461296
1989.327115
2524.978093
2985.553997
3486.167031
4008.869888
4530.410836
5033.468733
5505.573175
5913.733212
6239.477906
6469.939542
6595.215604
6622.589289
6554.226515
6412.361746
6216.40376
5981.351026
5727.754443
5468.482391
5213.608994
4971.649907
4746.482651
4537.11228
4346.29854
4170.443837
4011.685392
3867.831379
3736.648567
3618.419079
1327.866709
1558.888511
1884.067445
2370.72713
2805.724091
3282.406483
3776.909861
4268.842582
4753.781245
5212.402564
5617.952614
5949.595206
6191.098038
6338.00662
6391.896282
6357.798846
6245.662014
6075.895428
5868.54313
5636.955959
5395.771673
5155.820947
4925.378324
4706.976783
4503.573172
4315.941947
4144.985988
3989.570472
3846.778098
3716.951075
3598.747094
1468.164583
1783.506346
2152.811715
2636.926323
3086.524342
3553.181145
4032.453689
4506.332142
4952.6909
5359.376688
5696.092471
5952.930411
6117.437962
6195.033158
6184.711456
6098.687747
5953.916495
5767.490192
5553.961679
5329.774347
5103.339834
4881.686929
4670.91711
4473.042492
4290.089541
4121.601054
3965.557617
3824.75942
3696.42496
3578.676156
1381.471638
1639.06176
1975.761097
2471.550332
2896.602946
3350.13735
3810.785387
4270.256187
4698.350639
5094.316522
5428.13285
5689.614914
5870.889961
5966.248323
5978.625531
5919.968939
5804.722494
5643.804642
5455.310046
5249.725278
5038.690587
4830.825911
4629.53296
4437.592031
4259.57644
4094.343475
3942.57778
3802.097114
3673.139434
3556.620267
1510.70156
1831.362764
2199.085964
2667.083489
3089.597895
3524.082115
3963.498101
4384.920445
4769.106417
5112.103595
5381.565401
5579.259146
5697.786859
5741.53443
5714.276968
5628.23664
5496.967466
5334.626538
5150.499211
4958.907995
4765.057834
4574.99286
4393.275633
4220.22264
4059.432616
3909.762125
3771.889391
3645.429112
3527.942951
1414.364181
1655.801381
1976.229718
2438.576404
2833.206458
3238.973271
3648.454876
4050.199788
4422.232692
4756.259827
5035.423867
5247.631327
5387.548907
5458.434234
5463.704494
5410.352499
5312.532126
5180.93034
5026.200103
4855.757495
4678.936157
4504.321005
4334.551305
4171.431506
4016.922395
3872.843346
3737.986529
3613.068314
3498.259811
1525.184862
1821.853985
2151.21728
2562.565547
2936.947592
3315.85881
3691.011031
4043.885762
4373.356361
4652.167859
4878.313051
5041.003839
5141.00188
5178.287278
5161.977207
5099.086904
4998.53405
4872.122822
4728.428322
4573.950398
4416.453577
4260.671303
4108.812447
3962.889724
3825.118266
3696.337543
3575.620956
3462.045466
1426.719664
1652.264253
1926.051173
2265.731701
2689.810102
3047.546072
3404.495414
3742.781754
4055.881942
4331.006166
4557.221496
4730.070783
4848.411717
4908.728373
4917.190975
4880.549137
4810.370507
4708.844166
4588.944366
4456.397067
4317.489952
4176.68942
4036.60048
3899.691829
3769.402649
3645.711114
3529.33292
3420.085858
1520.125837
1731.449272
1999.854818
2330.384702
2725.390796
3045.595011
3358.977911
3651.125273
3918.381281
4150.164876
4334.862725
4472.829831
4561.798268
4602.111982
4602.051014
4564.70076
4497.802922
4408.567166
4303.479783
4186.517589
4064.681241
3940.970957
3819.185004
3698.967882
3583.338904
3472.489833
3368.781062
1539.893615
1759.652296
2018.928499
2334.390116
2690.188949
2978.668231
3259.89795
3514.967721
3742.606023
3936.575948
4092.657048
4203.407796
4273.176118
4305.091731
4300.587822
4265.32362
4205.814655
4128.428701
4036.223178
3935.907192
3830.466076
3722.85857
3615.149555
3510.102999
3407.608039
3309.475734
1596.510859
1817.696318
2072.847065
2364.333455
2699.320987
2964.0986
3205.305697
3426.442994
3613.726275
3775.623967
3895.933269
3978.980595
4029.111732
4045.376451
4031.646975
3997.575418
3943.824534
3874.92719
3792.670507
3705.891038
3612.955483
3517.845881
3422.837807
3314.04403
3226.651573
1624.180069
1824.745984
2048.76504
2276.974415
2523.818913
2831.042662
3042.441063
3232.904131
3396.396774
3534.136644
3634.146081
3705.988827
3749.435018
3765.364028
3755.804131
3726.765714
3681.942088
3624.219467
3556.544364
3482.125195
3403.364707
3304.223167
3216.738703
3142.105789
1634.905689
1824.389374
1993.025015
2199.903058
2412.598102
2628.035104
2894.466485
3058.194709
3198.641637
3312.905643
3397.709477
3458.007718
3493.629594
3506.356209
3499.513715
3476.018498
3438.004881
3389.656933
3304.398267
3241.652368
3181.58202
3113.990063
3060.825127