/*--------------------------------*- C++ -*----------------------------------*\
| =========                 |                                                 |
| \\      /  F ield         | OpenFOAM: The Open Source CFD Toolbox           |
|  \\    /   O peration     | Version:  v1706                                 |
|   \\  /    A nd           | Web:      www.OpenFOAM.com                      |
|    \\/     M anipulation  |                                                 |
\*---------------------------------------------------------------------------*/
FoamFile
{
    version     2.0;
    format      ascii;
    class       volScalarField;
    location    "3.2711";
    object      Ttra_N2;
}
// * * * * * * * * * * * * * * * * * * * * * * * * * * * * * * * * * * * * * //

dimensions      [0 0 0 1 0 0 0];


internalField   nonuniform List<scalar> 
60268
(
3356.402313
3606.92491
3762.456181
3905.178289
4022.032945
4111.982554
4175.640193
4211.942094
4219.385767
4205.553749
4133.860582
3302.658368
3569.1419
3756.28855
3899.878728
4012.433439
4101.543955
4167.558985
4205.199343
4213.37574
4198.913904
4126.674677
3524.65014
3734.688042
3868.666967
3986.62725
4077.23152
4142.872907
4181.983407
4194.146412
4154.995242
4089.282845
3432.770415
3666.948201
3819.966991
3936.892647
4033.916162
4100.313813
4137.371639
4155.684629
4104.819886
3531.808042
3754.90647
3883.973666
3981.562748
4051.190479
4056.974652
4053.897743
4040.61548
3567.368124
3734.94233
3827.820256
3917.0015
3930.262749
2772.857563
3106.670586
3336.392671
3571.363583
3864.406069
4218.468047
4406.437376
4546.023201
4639.120053
4683.019975
4687.175541
4655.539971
4592.301512
4504.608562
4349.074799
4224.708261
4125.64792
4018.704826
3909.189343
3793.301782
2795.548597
3088.140837
3320.129801
3540.565755
3818.788249
4115.094937
4367.555468
4510.180222
4603.676696
4650.323753
4658.1037
4630.450525
4568.656202
4484.709268
4338.023589
4215.682241
4117.013383
4010.496688
3902.828054
3789.067947
2746.437584
3051.463768
3287.903415
3509.526626
3741.551355
4014.273967
4320.631188
4463.933421
4561.021077
4611.821323
4624.013252
4598.301294
4540.499721
4417.113708
4305.854055
4197.859235
4102.899806
3998.692921
3887.279275
3771.384961
2734.529794
3025.135741
3251.761733
3473.943043
3684.760936
3938.564947
4198.648256
4406.854587
4507.135454
4560.273929
4574.579059
4554.010521
4498.892314
4370.794011
4265.214371
4177.173963
4081.717539
3980.899737
3865.111405
2646.18667
2935.004112
3175.622418
3401.617786
3612.030584
3809.846776
4024.060858
4243.166387
4410.638372
4474.104877
4496.411034
4427.121809
4379.50565
4306.031402
4221.467682
4145.069818
4056.269686
3958.347437
3846.464112
2838.241347
3121.072468
3336.713762
3539.274945
3720.852714
3889.65175
4075.208706
4209.565556
4281.413132
4321.002192
4310.043714
4276.631144
4229.379419
4172.051024
4101.476674
4018.246934
3919.751115
3813.560929
2748.177895
3014.018265
3230.804274
3429.447778
3611.614558
3770.550268
3910.301866
4029.791284
4106.638412
4155.188459
4177.207041
4176.201865
4153.497909
4106.504751
4042.624783
3957.241845
3859.445808
2861.516379
3121.541789
3324.799373
3496.035397
3653.962768
3789.907948
3901.35526
3985.670988
4045.784632
4075.39611
4082.746437
4067.966603
4031.400364
3964.290215
3878.619825
2949.136152
3193.050094
3374.870726
3529.055362
3666.571335
3777.203076
3864.286927
3931.07759
3970.174941
3989.014929
3985.188366
3941.74168
3871.859754
3033.367774
3207.427517
3402.290852
3552.421241
3661.91579
3754.018947
3823.444467
3868.287008
3864.218579
3851.642962
3825.420015
3211.356816
3366.601847
3466.599077
3559.170942
3641.158371
3702.360686
3716.036903
2349.104373
2657.158395
2907.067481
3293.434773
3783.549294
4108.147269
4406.96272
4660.221754
4860.173425
5006.205965
5095.661627
5126.280159
5111.186691
5054.227781
4958.571583
4840.216941
4706.36102
4559.433495
4409.491699
4259.603872
4111.915134
3969.76958
3816.467627
3693.230598
2322.328244
2638.827198
2902.14013
3272.369369
3770.339068
4100.770719
4394.434639
4644.767512
4844.104484
4990.570424
5079.067886
5110.168467
5093.971895
5038.509719
4944.88904
4829.617957
4696.061515
4553.075257
4404.040317
4254.577751
4107.162929
3965.524195
3813.579147
3690.456697
2313.411726
2619.337718
2869.962338
3243.920128
3721.109389
4051.447183
4351.450988
4602.540734
4806.453776
4951.231538
5042.214084
5079.526431
5066.757069
5014.430374
4924.747803
4809.673873
4677.903315
4536.01819
4388.791518
4241.973667
4097.848114
3939.532479
3803.521308
3684.923235
2290.21266
2587.538303
2837.868956
3194.205892
3654.172355
3976.893841
4268.307754
4520.343779
4722.642563
4872.991707
4965.607034
5005.445183
5001.182578
4953.209347
4868.67323
4762.773109
4638.444619
4503.116311
4361.125576
4217.380165
4074.443912
3915.011145
3782.491397
3674.170555
2221.717532
2518.645473
2783.350465
3103.873099
3487.728723
3886.960876
4178.606951
4428.822222
4631.569395
4783.64822
4882.736438
4931.860382
4930.689387
4890.125176
4817.812564
4714.382547
4595.634081
4466.594971
4329.50062
4190.360727
4051.799327
3895.149075
3764.632623
3656.46413
2423.175072
2715.485886
2972.050414
3314.180855
3735.349167
4028.62421
4279.815536
4488.896173
4650.230603
4761.945248
4822.021936
4834.407145
4804.781243
4741.5863
4652.5192
4542.808668
4420.007196
4288.449784
4154.632247
4001.276892
3867.552612
3747.84144
3638.337369
2308.644754
2619.819447
2878.067727
3180.885269
3535.122085
3900.35821
4151.757958
4363.911395
4524.749635
4639.61744
4706.500312
4725.925147
4706.8719
4655.907398
4576.100497
4474.726286
4359.640072
4237.908062
4083.587497
3949.932046
3830.170551
3725.850366
3613.278526
2481.313732
2768.826551
3007.931326
3299.499067
3624.840735
3948.370634
4163.689669
4338.767367
4461.066869
4543.026221
4580.498223
4576.990186
4538.099226
4474.661785
4387.064673
4285.311413
4138.9057
4012.095674
3897.260981
3797.471431
3691.497559
3590.205522
2377.51052
2660.04437
2902.103503
3126.048823
3400.618145
3696.881591
3977.838264
4151.495157
4285.450438
4373.28266
4425.20925
4431.700173
4409.445074
4360.285014
4285.509868
4160.15902
4047.130394
3943.218288
3851.558778
3756.295988
3650.742508
2483.994824
2763.820924
2983.722254
3193.931416
3436.892701
3659.507885
3869.397992
4072.761026
4174.254159
4239.622729
4264.946032
4258.28894
4171.312326
4109.677592
4033.995364
3950.650029
3876.264253
3793.491945
3701.889052
3605.315904
2580.98279
2852.851746
3064.271933
3247.548722
3432.206487
3623.923393
3783.593863
3884.343164
3960.51929
4007.266607
4027.787065
4007.502515
3962.881683
3919.741107
3868.676564
3804.245764
3725.265374
3637.233298
2657.55527
2889.62549
3076.407596
3237.814094
3387.447332
3523.142091
3626.478978
3711.952025
3772.049792
3812.037169
3828.518779
3828.926749
3808.710478
3757.586831
3698.918177
3640.451176
2677.814858
2864.958309
3052.879247
3219.290347
3343.055656
3458.657162
3547.328102
3617.005606
3667.965746
3695.176386
3684.098496
3662.058492
3629.424128
2853.287645
3004.913417
3118.243881
3225.561523
3318.912009
3401.144579
3467.114353
3515.297991
3517.851638
1889.283879
2151.03064
2405.824744
2799.161214
3369.591809
3783.085801
4179.066988
4547.878591
4873.839946
5152.462974
5363.521907
5508.643935
5583.769921
5594.627244
5544.471958
5451.495246
5320.459873
5164.502798
4993.365558
4814.533984
4635.340238
4460.713177
4292.592031
4132.212885
3983.096739
3843.375611
3712.883485
1859.373514
2141.100919
2391.050428
2782.763662
3326.982013
3743.118018
4140.488459
4516.440059
4851.369805
5131.929611
5351.761152
5499.91832
5579.612311
5593.208478
5546.388097
5451.837735
5321.840751
5165.485209
4995.874906
4816.996886
4638.33846
4462.246287
4293.34778
4134.488101
3984.064852
3843.93259
3713.899402
1835.636869
2117.527335
2386.054576
2770.013627
3314.155904
3722.456027
4118.969227
4484.888616
4816.287051
5091.984733
5303.462352
5451.44952
5532.269919
5546.483182
5504.50586
5418.51117
5293.461772
5142.438081
4973.976181
4800.359052
4625.012179
4451.987849
4284.703383
4126.030045
3977.335043
3838.485193
3708.604867
2029.781718
2333.146649
2695.560553
3188.572054
3582.549231
3972.41879
4332.657284
4658.837096
4940.693695
5163.068321
5324.15494
5417.855235
5446.066509
5417.212075
5343.127864
5229.091663
5087.69693
4931.1332
4764.715527
4593.912288
4426.988959
4263.921521
4108.989241
3961.667294
3824.34355
3695.294876
1995.784608
2290.11734
2617.440504
3025.404836
3494.907616
3875.698384
4232.887216
4560.198777
4843.122863
5070.257985
5230.217018
5332.699803
5370.261934
5350.610535
5281.187598
5177.068339
5043.364818
4890.063671
4730.673884
4567.584119
4403.106289
4242.975723
4089.967818
3945.078981
3808.341268
3680.99496
1966.645823
2241.383733
2502.932333
2880.836091
3398.645882
3780.211473
4133.924451
4452.206706
4732.396538
4961.194206
5125.334227
5230.094073
5273.322736
5262.171514
5204.939702
5109.465692
4986.53924
4843.232756
4689.317512
4530.343283
4372.038111
4217.114658
4067.155364
3925.167868
3790.908506
3664.342778
1915.999081
2181.612353
2429.767967
2763.972883
3178.336367
3632.043661
3981.603292
4302.118948
4577.653276
4804.910097
4982.181632
5096.423279
5149.920326
5151.779621
5108.076057
5026.692133
4915.128903
4782.559591
4638.112056
4487.651045
4334.490581
4183.491659
4038.494764
3900.205058
3767.91561
3636.073861
2051.137608
2323.523574
2577.134267
2940.264738
3433.445507
3774.671364
4095.291574
4374.033306
4606.422001
4790.404331
4917.706617
4988.293144
5008.794144
4980.756586
4913.602896
4819.127235
4702.193048
4571.066092
4429.573163
4285.801394
4141.506836
4002.403671
3869.046892
3725.235324
3606.919372
1966.132958
2238.248125
2480.242974
2790.320303
3167.410078
3575.470662
3881.874998
4159.116902
4393.744302
4579.034287
4717.87732
4802.536608
4841.232205
4831.074018
4782.454501
4706.281228
4603.298967
4487.259863
4359.44501
4226.314067
4091.774847
3958.01739
3828.502729
3686.026816
3569.220705
2074.903034
2349.921519
2605.062102
2914.334955
3280.162186
3671.060062
3940.771389
4179.218699
4371.902426
4515.389135
4612.078693
4661.797518
4668.223993
4638.900864
4577.172435
4490.992632
4388.720976
4274.191293
4151.938656
4027.37172
3902.558794
3762.671075
3641.409004
3535.795855
2214.109524
2485.755269
2708.870004
3004.326447
3342.12318
3678.209601
3912.113389
4106.845104
4265.264057
4374.44855
4442.080129
4468.109105
4457.819066
4417.661435
4352.669687
4267.937969
4168.965052
4059.236793
3945.801812
3812.349048
3693.611499
3587.8084
3495.465636
2080.655507
2325.561144
2548.850615
2768.132989
3040.607028
3345.234167
3649.787062
3846.05931
4007.512173
4130.722646
4211.614528
4254.553409
4266.633808
4244.783879
4198.943481
4131.794449
4048.137548
3921.509362
3822.869197
3724.711931
3626.929746
3536.530632
3440.721305
2162.327857
2404.351107
2607.977235
2810.939298
3059.4973
3288.082714
3510.505837
3752.053188
3885.115754
3980.052957
4036.951112
4060.870672
4058.118319
4028.936297
3932.446128
3864.354344
3788.45735
3708.533676
3637.354801
3558.221915
3468.597883
2212.424363
2390.902971
2620.757901
2821.031968
2996.821734
3200.467273
3379.773289
3504.375245
3608.072859
3685.473214
3738.085542
3763.961606
3771.196815
3743.872944
3697.608843
3656.169603
3609.288364
3545.795302
3469.985998
2410.373374
2635.963365
2810.247147
2959.957402
3099.879224
3221.813462
3322.677825
3408.814385
3474.967942
3521.668949
3548.956255
3560.299979
3555.797102
3523.522026
3480.533401
3438.337498
2427.208834
2579.285984
2704.526547
2884.847259
3018.945737
3126.879643
3217.020387
3291.529334
3347.224796
3364.660541
3370.357828
3387.441074
3375.151838
2650.905872
2786.842335
2888.183604
2983.134075
3066.377515
3137.262862
3163.253273
1642.00289
1891.325911
2224.450877
2705.293046
3138.804687
3582.425733
4034.843002
4478.549555
4887.323902
5253.415745
5560.996697
5799.802228
5954.473102
6030.776042
6026.477522
5954.705492
5830.689848
5665.241607
5471.656409
5264.895386
5053.842298
4845.155046
4645.038379
4456.58191
4279.320407
4115.15861
3963.613921
3824.849682
3697.333878
1608.337512
1882.230806
2224.841377
2700.630814
3137.123117
3588.3084
4042.248129
4487.965571
4901.451556
5270.793045
5577.291105
5814.380096
5969.873944
6041.367348
6036.50183
5963.420116
5836.053745
5668.577259
5474.325355
5267.807191
5055.683113
4849.537326
4648.034955
4458.154711
4280.8507
4117.015702
3965.835435
3825.05756
3697.430086
1822.058158
2176.991159
2574.470328
3069.50624
3508.3736
3949.902006
4391.604316
4805.72159
5180.380196
5497.398209
5740.620261
5905.916599
5986.316573
5993.057099
5926.72157
5808.555163
5647.845921
5458.327858
5255.155384
5047.772208
4841.244443
4641.999208
4453.10051
4277.221554
4113.90181
3961.967824
3822.210668
3693.901947
1784.988012
2087.882758
2467.17518
3023.653847
3465.551595
3906.494379
4340.957319
4754.39032
5116.605834
5425.008959
5668.345784
5831.967377
5915.924956
5925.414652
5867.749661
5755.190097
5602.379571
5420.843364
5224.04976
5020.936036
4820.396787
4625.015486
4439.560849
4264.674022
4102.053267
3952.479845
3814.528594
3687.15443
1765.293598
2044.543489
2407.912275
2945.783482
3380.544275
3816.652924
4248.317118
4651.363663
5017.112783
5323.60717
5570.494177
5739.371046
5828.875105
5846.595876
5796.960975
5694.568893
5549.595003
5376.144406
5186.502335
4990.968643
4795.792352
4603.250734
4419.954497
4248.056988
4087.330692
3938.722285
3801.042525
3673.499402
1709.575879
1976.05336
2315.34185
2797.857224
3212.409018
3636.407554
4057.826104
4460.474923
4824.680864
5140.536313
5394.752492
5579.350483
5686.3029
5719.389482
5689.780718
5604.071974
5475.933788
5315.703074
5137.743096
4950.252422
4761.091018
4575.611117
4397.4224
4228.677532
4070.863168
3923.254497
3785.838975
3659.128001
1662.495146
1924.907203
2234.950896
2635.131199
3116.292881
3525.081486
3932.294763
4320.886206
4678.765776
4991.239914
5242.436414
5428.105574
5545.185645
5588.694409
5570.60348
5500.230732
5386.208057
5241.430197
5075.913067
4897.810301
4717.621124
4538.790506
4365.575573
4201.551795
4047.216555
3902.235108
3767.401042
3642.389824
1807.897963
2095.928165
2442.94801
2945.342866
3341.63145
3742.370538
4126.744289
4482.554662
4794.534084
5052.671582
5245.736485
5374.548688
5434.58316
5434.130973
5381.193153
5282.65704
5153.505778
5002.057103
4837.193142
4665.934013
4495.085161
4328.492338
4169.42082
4019.014766
3876.869585
3745.296182
3621.797852
1720.859745
1990.895796
2299.386518
2684.955016
3135.492641
3523.528096
3891.391029
4245.132048
4556.676024
4822.607945
5029.133699
5175.180281
5255.430908
5274.946642
5241.229215
5163.55956
5052.365592
4915.957329
4765.299727
4606.376048
4445.053665
4287.664645
4133.748095
3987.56442
3848.476349
3717.965623
3597.185684
1869.045237
2159.991735
2470.184283
2869.457775
3331.04543
3690.455265
4029.997971
4335.973661
4592.063602
4805.771923
4958.551885
5049.674235
5086.439636
5072.436208
5015.139048
4923.594
4806.164012
4671.992657
4528.287721
4379.839259
4231.155181
4085.994363
3944.395061
3811.577185
3685.022332
3565.722142
1766.796027
2020.342671
2267.085134
2600.804786
3064.985053
3406.096038
3731.909189
4033.899676
4296.067089
4510.901014
4676.396264
4789.148591
4848.531576
4859.166171
4828.972686
4760.178918
4667.600111
4553.238877
4426.286424
4292.467715
4156.984679
4021.264423
3888.694589
3761.058056
3639.2962
3524.843935
1853.460982
2127.677414
2427.126792
2778.537941
3170.956212
3479.90135
3776.072056
4032.465348
4250.843794
4423.854759
4545.845114
4620.043185
4649.154656
4637.197807
4591.471998
4517.077819
4423.656034
4314.736919
4196.32634
4072.641354
3948.942558
3825.893097
3706.669533
3574.263117
3468.377291
1974.828571
2226.192806
2501.80828
2826.283934
3189.659316
3466.084879
3718.174755
3933.027223
4112.442054
4251.734138
4347.334342
4396.64454
4409.93813
4388.081695
4338.786021
4266.901533
4180.210971
4079.964967
3974.007988
3861.829883
3748.632093
3619.80361
3507.144764
3409.752024
1848.528178
2072.945965
2283.282203
2541.072021
2800.43571
3082.01845
3407.857599
3632.244448
3816.10643
3962.829378
4070.000862
4137.757447
4173.123298
4174.004357
4147.269643
4099.083975
4030.799755
3950.798028
3859.336451
3761.217729
3640.923737
3534.104869
3440.505775
3358.146089
1890.61044
2066.489086
2298.270099
2510.71449
2754.122309
3031.46549
3309.820839
3495.952169
3650.921856
3769.705305
3857.635414
3911.694479
3934.187713
3931.803134
3902.75365
3856.630131
3797.139822
3689.3152
3608.636019
3527.244253
3446.774149
3375.022567
3297.314085
2071.70667
2312.289906
2500.026075
2709.032967
2907.907641
3076.415491
3259.33799
3457.154278
3558.259372
3626.223713
3668.682496
3686.340405
3631.671423
3594.803706
3567.342622
3519.843552
3462.043756
3402.986273
3344.414607
3288.117653
2112.805126
2270.541275
2466.19057
2640.03399
2776.974167
2949.442737
3100.859797
3202.446209
3282.390386
3347.233627
3388.082443
3396.909707
3385.476038
3380.629361
3368.064595
3338.178644
3285.099693
2262.118513
2409.385897
2574.923827
2720.699123
2835.220355
2936.847561
3026.076587
3100.461632
3154.25523
3195.655572
3209.379028
3209.846177
3218.892272
3201.315165
2347.184552
2485.03825
2581.829946
2684.786004
2779.914566
2865.033541
2935.212317
2995.229424
3016.235347
1564.350527
1924.337734
2394.5032
2840.260589
3318.757487
3819.478069
4326.268158
4825.087676
5290.626711
5702.539381
6043.150919
6305.371266
6467.521732
6532.637457
6507.620462
6404.981752
6238.130157
6028.87114
5790.820816
5543.269437
5293.758698
5052.713101
4824.947362
4612.999511
4417.710902
4238.848459
4076.132253
3927.732835
3793.845622
3671.639371
1571.554704
1906.419121
2301.958272
2815.759231
3288.845264
3787.115244
4292.081145
4791.181041
5263.003878
5680.595911
6028.447853
6290.323733
6459.06509
6530.501965
6509.265294
6405.339291
6241.919176
6030.69301
5794.294524
5546.726847
5297.637086
5057.374568
4829.154207
4616.565522
4419.566389
4241.49207
4077.60069
3928.887345
3793.791378
3671.842049
1558.187218
1838.876601
2215.915818
2795.689564
3270.885246
3769.930042
4278.835341
4771.47415
5241.279249
5658.247949
6005.071353
6268.56861
6436.215862
6507.362927
6486.663192
6386.755666
6224.516584
6019.370727
5784.924403
5538.784118
5292.748603
5053.039744
4826.341126
4613.940975
4418.382953
4240.06653
4076.829538
3928.532062
3792.148583
3668.11668
1528.295297
1800.624798
2165.784214
2713.955315
3174.719199
3661.816738
4158.430095
4648.492106
5112.895644
5530.086483
5881.632147
6151.421648
6331.363767
6414.088538
6408.298124
6319.322077
6168.980288
5973.127164
5748.739172
5509.66105
5269.151282
5036.121145
4812.033305
4602.414171
4409.496698
4231.865062
4069.014958
3920.514121
3785.69355
3662.238398
1507.250339
1765.598488
2108.818397
2622.024601
3065.512761
3535.092871
4018.970354
4491.103349
4949.933803
5363.02063
5714.295001
5996.554111
6189.221526
6288.522425
6296.53906
6226.16538
6091.83097
5912.24055
5699.874648
5471.385225
5240.713493
5012.224727
4793.05674
4586.953623
4396.500017
4219.399915
4058.1605
3910.405914
3775.955019
3653.125983
1461.963507
1706.805624
2044.67067
2539.732939
2979.606943
3438.519499
3915.007845
4385.544295
4838.700513
5249.057662
5601.333065
5882.721786
6075.857764
6183.959563
6203.247144
6145.056392
6021.936491
5854.452768
5651.150765
5432.617358
5206.758328
4985.201096
4770.648619
4568.623505
4380.843925
4206.283934
4045.549662
3898.344419
3764.178486
3641.520683
1623.081787
1959.759431
2348.769126
2842.464365
3286.813457
3742.542419
4194.769785
4633.992637
5041.07632
5397.985698
5686.424247
5891.69337
6014.305745
6052.099543
6013.989368
5913.381647
5761.640447
5577.452688
5372.975485
5158.542319
4944.746625
4737.247197
4539.863252
4355.885363
4184.879581
4026.26663
3880.215359
3745.897562
3624.077793
1576.647842
1832.753767
2178.622707
2676.374555
3103.77898
3539.85297
3979.028337
4409.607437
4810.418948
5166.300608
5456.395915
5674.3932
5812.39763
5869.065085
5853.279939
5773.059651
5643.824978
5480.2459
5292.421274
5093.254435
4890.945522
4692.273729
4502.799489
4324.724208
4156.855645
4001.333855
3858.054011
3726.020141
3604.24304
1502.910701
1743.121622
2056.090533
2457.517496
2948.318239
3374.477219
3803.908292
4221.555968
4613.843462
4965.167921
5254.341167
5478.270866
5628.041192
5701.386781
5700.543923
5641.743622
5530.68546
5382.829638
5210.968719
5025.952729
4835.568482
4646.541958
4464.439759
4290.615632
4127.367741
3975.159332
3833.742101
3702.995743
3582.863552
1659.212301
1912.809721
2247.812291
2735.319416
3128.245536
3533.132304
3926.728716
4302.137488
4650.251923
4943.777034
5179.494678
5351.568518
5447.749483
5479.142098
5447.588323
5367.772742
5246.727037
5097.785924
4932.35674
4759.254206
4585.17649
4413.276129
4246.732005
4088.944848
3941.03249
3802.972123
3674.489667
3555.868579
1543.466497
1781.412229
2075.138825
2451.110734
2901.452177
3287.497093
3668.363983
4027.646979
4365.624838
4658.621783
4899.894633
5078.844351
5194.960363
5244.185679
5238.785263
5184.672456
5088.794093
4966.801066
4823.739344
4668.336581
4508.457775
4348.226386
4190.699581
4040.879968
3900.178338
3764.982384
3640.040448
3523.607821
1668.395466
1914.851656
2206.436659
2581.632823
3022.766248
3382.745126
3729.61568
4053.087515
4344.122377
4588.618806
4778.730539
4912.740546
4990.319321
5011.068049
4982.600445
4916.297185
4817.74746
4696.488947
4562.468512
4416.828116
4271.121143
4126.041132
3985.556825
3850.624375
3721.984157
3600.418256
3486.269088
1549.446775
1778.880752
2008.038872
2322.670091
2768.937659
3108.550682
3437.571775
3748.427004
4029.879587
4272.483187
4470.221319
4615.166797
4709.571054
4752.671022
4752.34683
4713.659584
4641.094996
4546.195671
4433.09585
4309.8662
4179.985731
4047.873747
3918.910397
3791.977916
3669.583617
3553.934379
3444.656362
1626.576495
1856.920282
2123.21254
2444.201923
2821.131342
3129.702898
3428.580108
3703.635836
3948.739378
4156.192538
4314.597624
4429.634913
4495.549327
4520.145451
4505.099065
4459.359719
4385.941505
4294.738666
4191.685333
4078.091919
3960.914237
3841.624154
3724.382088
3611.097291
3500.578457
3385.188922
1696.97241
1930.449605
2188.213387
2449.830617
2752.423421
3128.157457
3400.368717
3640.051561
3844.806146
4012.048654
4138.577721
4223.449684
4265.007519
4274.445056
4251.310022
4203.168926
4132.953233
4049.824119
3953.661429
3850.977987
3747.221143
3641.977369
3536.862927
3419.335223
3321.263572
1737.774536
1958.011457
2158.817968
2410.895367
2713.229611
3040.445975
3273.118605
3476.144744
3648.257825
3787.120451
3891.419922
3955.128399
3988.242486
3994.309641
3973.931402
3930.31167
3869.281297
3797.691243
3715.60229
3627.313568
3508.914088
3417.792554
3331.610471
3248.48238
1774.996637
1991.401331
2175.177489
2404.138469
2627.154508
2861.98951
3135.913684
3310.082136
3458.136304
3572.094755
3655.115207
3710.415821
3733.704506
3736.112973
3717.677639
3681.3465
3628.142947
3564.409259
3466.71225
3380.190486
3304.9515
3239.572506
3175.448468
1812.633153
1958.800328
2153.956908
2338.665937
2532.718575
2733.893529
2916.860763
3129.627558
3255.316267
3348.880368
3421.797127
3463.301994
3484.077825
3484.395954
3424.070366
3384.780492
3352.46529
3308.405084
3255.861976
3207.609576
3148.487048
1924.270971
2081.918013
2258.239914
2416.28008
2579.355852
2731.952339
2844.272888
2942.63768
3026.060565
3092.07028
3141.989451
3175.793859
3180.150141
3170.406332
3164.447265
3144.536168
3120.492836
3092.921366
2022.420066
2166.209619
2279.321211
2428.681293
2549.405516
2648.74758
2735.197902
2812.60175
2875.169427
2924.696674
2947.660608
2967.79892
2991.59264
2992.16663
2208.611711
2337.054335
2422.46062
2507.920038
2591.496439
2666.487453
2728.242628
2759.871456
1333.990198
1569.796517
1914.047407
2455.660077
2935.743667
3453.408002
3999.12219
4563.826884
5118.196068
5651.705373
6119.656396
6505.187297
6799.477494
6976.049599
7040.873449
6994.726893
6860.264369
6650.732828
6395.530694
6109.939959
5816.818446
5527.539332
5253.14624
4997.953664
4762.415159
4548.989066
4355.832202
4181.379027
4024.419389
3882.912096
3755.783404
3639.931394
1332.964376
1566.203687
1908.663524
2453.026383
2939.099295
3460.610598
4014.679921
4586.532632
5147.317403
5679.474992
6152.295427
6540.363192
6827.576589
7001.333792
7061.664171
7015.658656
6876.215431
6668.088449
6409.698003
6122.739616
5827.131771
5537.317156
5260.864355
5004.530064
4769.181745
4554.449796
4359.743997
4184.223474
4026.275676
3883.835589
3756.672574
3640.82263
1332.634322
1563.123907
1899.912298
2428.178663
2901.147901
3423.673297
3970.237646
4530.933018
5094.43963
5613.612243
6087.803507
6478.505879
6771.064015
6954.715046
7020.381054
6981.757707
6847.389215
6644.830915
6391.469346
6109.59734
5818.983876
5532.205633
5258.91868
5002.395819
4767.366427
4552.019788
4358.237191
4182.964975
4026.341476
3884.287158
3755.129866
3637.395779
1296.651398
1523.534431
1853.720391
2361.000317
2820.235982
3321.705161
3854.418011
4402.328968
4942.794084
5461.895078
5931.75904
6324.768083
6629.526469
6823.948118
6909.113682
6887.592229
6772.511363
6583.909052
6344.615895
6073.432183
5790.210716
5510.746333
5241.868767
4989.837724
4756.939008
4544.705687
4351.236189
4177.403458
4019.211813
3877.285109
3749.092934
3633.623479
1442.904117
1796.436599
2276.237961
2725.268553
3216.633923
3736.508701
4279.28971
4818.114557
5336.670586
5801.214987
6205.040793
6510.525707
6715.759145
6812.621325
6802.969124
6699.004557
6524.318491
6296.771109
6037.319879
5763.437679
5489.475082
5226.558662
4977.071734
4745.989138
4535.891842
4344.324336
4169.945107
4013.04824
3870.417461
3741.77628
3624.985808
1419.372347
1733.192925
2123.574808
2638.851988
3128.093144
3641.881016
4177.731437
4710.331988
5224.329131
5695.402313
6097.10222
6408.387153
6621.401172
6721.962384
6723.869792
6632.207692
6468.43612
6250.268857
6000.10712
5732.937562
5466.822417
5207.056293
4962.282003
4735.52468
4525.239124
4333.599723
4161.479517
4003.81999
3861.673518
3732.367133
3614.317079
1390.86456
1637.459932
1980.079288
2511.750482
2968.783242
3467.237109
3984.28145
4498.758113
4996.746104
5461.360199
5864.043978
6182.801761
6408.733704
6530.504922
6555.581975
6487.051005
6346.514691
6153.010847
5921.583074
5672.411369
5417.398472
5167.402399
4930.16142
4708.454567
4502.938539
4315.661079
4142.229793
3985.490775
3843.389631
3714.633158
3598.091898
1320.469001
1551.184899
1874.19222
2359.289119
2791.302909
3263.936136
3751.426159
4241.561647
4718.518719
5172.212603
5571.721246
5898.21934
6133.430725
6276.63967
6328.944917
6292.855198
6182.627488
6015.512735
5810.808138
5582.613778
5345.578976
5109.704035
4883.258404
4668.817086
4468.974691
4284.252215
4116.312858
3963.088711
3823.140814
3694.923583
3578.001268
1460.934499
1774.016355
2142.871318
2621.328581
3069.855189
3533.654469
4006.045484
4474.251276
4916.087503
5315.134029
5645.964946
5899.613747
6057.796621
6133.60707
6122.173202
6037.080278
5893.450166
5709.80066
5499.791853
5279.40969
5057.146538
4839.60415
4632.447728
4437.544946
4258.140041
4092.497095
3938.759065
3800.076406
3673.791483
3557.789577
1375.197981
1631.343769
1965.074793
2457.229859
2879.44023
3331.17326
3784.980831
4241.087732
4662.469304
5053.526881
5381.940639
5638.724032
5815.365605
5908.045074
5918.906329
5860.083992
5745.933261
5587.354245
5401.912108
5199.527621
4992.611306
4787.999703
4590.472401
4401.697905
4226.561698
4064.147064
3914.586478
3776.85839
3649.753286
3535.038863
1503.326486
1823.390644
2187.203558
2654.077603
3073.578066
3503.230463
3937.379044
4353.663583
4732.56296
5070.39853
5335.301784
5529.486482
5645.438762
5685.000388
5658.638186
5572.323769
5441.846129
5282.748514
5101.06952
4912.634085
4721.917903
4535.097385
4356.827396
4186.797849
4028.6009
3881.588273
3745.641921
3621.494445
3505.821819
1409.093552
1647.696593
1965.000979
2422.991874
2818.67668
3220.511191
3625.571305
4023.584015
4389.444628
4718.694606
4992.973759
5201.299164
5338.032315
5405.72002
5410.556764
5357.00268
5260.346729
5129.921618
4977.715277
4809.67558
4636.428254
4464.709509
4297.893438
4137.337626
3985.352676
3844.214982
3711.294797
3588.502241
3475.493137
1517.263881
1812.415924
2138.098659
2548.996537
2919.792239
3294.6133
3667.875942
4014.291383
4340.312477
4615.105177
4836.662451
4997.390181
5094.580938
5129.863077
5112.622102
5049.867085
4950.221141
4825.650641
4684.079904
4532.104807
4377.592178
4224.162121
4074.701327
3931.584972
3796.169872
3669.509869
3550.826101
3438.624938
1418.129014
1643.433461
1915.210815
2252.407749
2671.902301
3028.125846
3381.980231
3714.362752
4024.966313
4296.971233
4518.964935
4688.023876
4804.061129
4862.572358
4870.240332
4833.780513
4764.742567
4664.228874
4545.903621
4415.983111
4278.578386
4139.784757
4001.847975
3867.46026
3739.713578
3618.191498
3504.090146
3396.518811
1511.37229
1721.861157
1988.166684
2315.823947
2707.230454
3026.210801
3335.606246
3623.514957
3887.943596
4116.535214
4297.668373
4433.430071
4520.675973
4560.309524
4558.822792
4521.947498
4456.27635
4367.902374
4263.607003
4148.989468
4028.998184
3907.246427
3786.893109
3669.018693
3555.382909
3446.822207
3344.678813
1531.985715
1749.733085
2006.552296
2319.951287
2673.513976
2958.798858
3236.682698
3490.227573
3714.148329
3905.795244
4059.126879
4168.239071
4236.555567
4266.716481
4261.747268
4226.661851
4167.584709
4091.180335
4000.786534
3902.094921
3797.959096
3691.999871
3585.600919
3482.049561
3381.631091
3285.175732
1585.327662
1805.594273
2060.890765
2351.059838
2681.512777
2943.717193
3181.488035
3400.942992
3584.896395
3743.166792
3862.416947
3943.201647
3994.204796
4009.543798
3995.489564
3961.295073
3907.954246
3839.990549
3759.294696
3674.136958
3582.300818
3488.720944
3395.138373
3287.417165
3201.351887
1613.329627
1812.860606
2035.466042
2261.485137
2507.69355
2812.18091
3021.103855
3209.524112
3369.371917
3505.288508
3604.213757
3674.680482
3717.413535
3732.840154
3723.140317
3693.709004
3649.55923
3592.883758
3526.289152
3453.175912
3375.314746
3276.986369
3190.678291
3116.958247
1624.949852
1812.867134
1979.847086
2184.795608
2397.075659
2609.551167
2873.641417
3036.680579
3173.532599
3286.514724
3369.545901
3428.831082
3464.032528
3476.634784
3469.545271
3446.552492
3408.286797
3360.46241
3275.711315
3214.379247
3155.531366
3087.899756
3036.08385
1613.450526
1747.886524
1925.941064