/*--------------------------------*- C++ -*----------------------------------*\
| =========                 |                                                 |
| \\      /  F ield         | OpenFOAM: The Open Source CFD Toolbox           |
|  \\    /   O peration     | Version:  v1706                                 |
|   \\  /    A nd           | Web:      www.OpenFOAM.com                      |
|    \\/     M anipulation  |                                                 |
\*---------------------------------------------------------------------------*/
FoamFile
{
    version     2.0;
    format      ascii;
    class       volScalarField;
    location    "3.2711";
    object      Tvib_O2;
}
// * * * * * * * * * * * * * * * * * * * * * * * * * * * * * * * * * * * * * //

dimensions      [0 0 0 1 0 0 0];


internalField   nonuniform List<scalar> 
60268
(
541.0235535
557.2219771
567.4545732
575.2183746
583.6262121
593.3237292
603.8226194
611.7279923
620.3867269
626.8895593
630.8295834
540.1672658
552.9020197
562.7362725
575.298225
585.2398934
593.7608494
603.6646278
612.389048
619.1241137
625.4540875
630.6845692
548.812245
565.4634585
575.2509258
585.0729891
595.0291276
602.9045167
609.0465532
618.1593344
624.2600131
627.0200032
547.8174721
562.6720911
571.715803
580.9011177
589.7478047
596.5063075
605.0727919
615.8915449
618.3130577
553.4808774
567.9358233
575.9884716
585.7138991
595.1783292
600.2433558
608.0682012
612.0772419
558.1031359
570.4785087
578.029454
584.9864638
592.9008608
510.63254
530.7271239
542.4229661
556.725758
571.7054436
591.8185094
602.4527843
611.9807459
623.3410056
633.6499714
640.6167024
647.5421052
652.1943802
656.4320044
656.8041456
657.3120239
661.9910552
669.5745881
676.339648
680.1431497
510.9995119
528.3828636
541.8825977
553.5812574
568.9159688
584.4360659
601.7489634
612.4641222
621.5372413
631.2336422
637.8104479
643.4834009
650.7407176
656.9023809
657.0936105
658.7943661
663.8588193
668.4296391
674.8174493
677.1558448
511.5357851
528.2460188
539.8289823
552.8668767
562.8237929
581.6200479
600.547448
610.9395428
621.0397433
627.1454633
635.1281794
642.2314824
647.5109737
649.7353162
652.0700875
656.4080153
663.3275216
667.9327222
671.9931998
674.9221448
508.9613198
524.212944
537.3928014
549.3787972
561.4294585
575.4295067
589.9234095
606.9247022
615.6660555
624.4805591
630.756079
639.5290499
644.2535864
644.9327971
647.405776
652.4817078
658.7488484
665.5131391
669.0660953
504.5425271
519.5593159
532.5254538
547.6079653
558.8616139
568.9559914
581.7943471
597.1499325
610.263719
618.9327388
626.839009
629.5067582
633.7423026
639.5584455
643.4543286
648.8188697
655.0987119
660.7464914
664.4462877
513.6624683
531.624142
543.2485252
553.214338
564.2855012
574.5317503
587.6922924
596.8618761
605.7488953
615.5513699
620.6475295
627.2270335
633.2835135
638.3238999
645.3108162
651.7605826
656.4620316
661.0065847
510.7006645
525.6712088
536.3671114
548.3359689
559.5377946
568.0930617
577.0238245
588.5198599
595.8501085
603.2851108
610.8074649
619.0856276
625.5644411
632.7375461
638.9022107
642.2879732
647.2864763
513.8802204
529.6364584
541.1522915
552.6515373
563.6023026
570.9980949
578.2046802
589.8502299
598.990917
606.2431389
612.5317566
619.1110001
626.9499921
633.4111287
635.5931191
518.4825068
533.5063109
546.8305562
555.5350928
566.307841
574.4751376
583.227383
592.1387902
601.0743011
609.4308869
616.2113831
618.7202117
621.429512
526.6621107
539.3593529
550.8892003
561.7446854
571.3698356
576.6125295
582.8344639
591.9101231
596.6699496
602.2315583
609.4140829
538.9339877
546.8931843
556.7717438
563.222837
574.1347905
583.4896241
587.6895255
488.536831
507.3425191
519.7700108
541.7911669
568.3629389
586.3196159
599.9393707
615.2802719
627.0471278
637.763558
648.4652088
657.998416
664.5216989
671.6812054
677.520505
681.879946
686.8904186
689.9682201
693.8754205
698.1378811
699.4105481
701.0214391
699.9593655
701.7323341
489.4776382
507.3724309
520.2488126
541.4698844
567.7946692
585.1617546
600.209932
613.199159
627.611976
638.5040885
648.6241282
658.0075368
663.4557883
669.71929
676.6196084
681.462219
685.4977451
690.0730889
693.3724372
696.0377498
698.8377682
700.3967103
698.8157633
700.3770593
489.3974241
507.0790984
522.1173566
542.8177453
567.8462589
581.7828852
593.0018475
610.8372878
624.1931658
635.4414546
645.8974881
654.7088346
662.178687
669.7094185
674.542051
680.837139
683.6907705
687.6345231
690.6265887
693.1957382
694.89129
693.0917101
695.0297695
699.0193726
485.5186708
502.8584903
518.7047127
536.9143438
559.0406798
577.616243
594.4486449
608.3942115
620.5891467
631.9450183
642.368715
649.7046333
656.9473787
664.1081551
672.0051585
675.1394924
678.1297001
682.5734289
685.2092486
687.8817143
690.5764071
689.2243415
689.8854366
693.7430967
484.7822529
500.3760558
516.3130048
534.405893
551.9200381
573.4840664
588.3861608
598.4025301
613.4324561
625.6189393
635.57626
646.3159018
652.92259
658.1930421
663.1234905
669.8501775
673.9814194
679.0912793
681.9960131
684.31247
687.0660256
685.9743518
687.7082826
691.9649825
494.080519
511.0843999
523.6060379
543.3135568
565.9179504
580.5973621
594.521908
605.032036
618.0437503
628.3504268
638.5094076
647.0143397
654.0569641
660.1031129
663.3860879
667.6125755
673.2120694
678.473998
681.3961989
679.3488498
680.8193662
683.3051356
688.236168
489.3512257
506.4267105
519.5509472
536.8993813
555.288527
576.4122458
590.9156202
602.1572592
611.5891257
623.7214969
632.5150197
639.1402714
645.9666763
652.7752494
657.7202527
660.7425013
665.6596194
667.0462375
666.7094783
669.2184831
673.1496028
678.3083739
684.3185989
494.4178837
513.5947398
524.8780295
541.7868848
558.9645615
579.0841571
591.355708
602.1564237
612.18232
622.2006941
629.5604452
637.7684815
642.1218775
647.9023974
653.5974712
656.1213939
656.45779
658.1992189
660.3454124
665.6170983
671.6913876
674.5596117
487.6304388
507.9924773
523.3812887
534.0815438
548.8202712
565.9175286
581.6983768
591.9334328
601.8118293
612.454457
621.4166215
626.6665834
634.1093835
640.1319573
643.5968511
644.8863731
646.521154
649.5252366
654.400827
659.7539754
661.4709801
499.0761368
512.5711532
524.0356232
535.3034738
549.2976197
563.2753715
577.0935393
589.8261806
597.6322203
608.1766058
617.3767159
622.9794763
623.1652903
628.499262
632.777823
636.4980461
641.4658856
647.3857012
651.8889167
655.172089
500.5623459
517.9364015
527.7327887
540.426991
551.9302782
563.2289012
575.8579086
581.9642372
590.9614874
598.5384407
603.5163779
610.1112149
616.6012719
620.8486241
625.2543339
633.0363324
639.3605112
644.1158102
506.6529138
517.6802376
528.4251431
540.4130559
549.0332543
557.2153099
565.3721889
575.5873681
584.027644
590.8535731
596.9596617
604.8391222
612.2153346
616.0789491
620.3627523
628.2594403
505.9498313
517.2334173
529.2960901
542.3319137
550.1678291
558.3184151
564.855704
574.5633238
581.6418479
589.2151319
590.9430653
597.5625743
604.6004857
518.0797347
529.1991432
534.6709003
543.8604411
552.6072634
559.289575
567.0579732
574.1768251
578.2533074
466.28243
480.7855835
493.8767036
519.9387602
548.3380231
568.2510587
587.7972527
606.6634902
624.1076098
638.8754653
653.4025623
662.7153783
671.6499759
681.9078304
690.6795882
697.5440162
704.5058925
707.6877996
711.8716489
715.5883199
718.6021766
721.4744964
723.9082911
725.8585671
727.1489757
727.2729895
728.2725844
463.0481647
481.296344
497.2282654
519.2317619
546.1463706
567.214538
587.2812246
605.8213871
621.230792
638.6797912
652.7196548
664.6945995
675.5053436
685.1020269
691.2769534
699.7397537
704.5321928
709.7885919
712.2183724
715.3513114
718.3403124
721.2900747
722.3039159
723.5027452
724.7726239
726.6501787
728.2490874
461.5360546
478.9004924
498.4661333
518.4067381
548.4948352
568.9549815
587.8845738
601.7338586
617.5699836
635.3483323
648.2573952
660.9010675
671.5745298
679.6623044
686.7481519
695.067428
700.9557896
705.1339271
709.0405528
712.3554637
715.2442515
717.2266971
717.6594767
718.0156342
720.433679
722.712391
723.0241796
475.5016656
491.5300852
515.2845751
540.9545433
560.8011173
578.2406557
597.576592
613.8095741
628.4408179
642.1537197
653.1485501
665.3030734
673.2712371
681.9434234
689.295711
695.635403
699.7127067
702.5355182
707.5934103
709.9539746
712.5660887
714.2079775
716.5341018
717.8076787
718.1347072
719.8777024
471.4867025
490.8254023
509.4280279
533.5143577
557.4449655
574.273029
592.2071014
608.244699
621.9519403
635.7828431
649.2299655
659.1918569
669.5040422
676.7356361
683.6387848
689.7452601
693.7157152
699.2664226
704.4072342
705.9529937
707.4337516
709.2735002
711.9895102
714.0574412
716.0613027
716.4516145
467.237699
487.1942226
503.1852167
523.8755
551.3804871
568.4250095
586.0416495
602.918757
617.4856307
629.8619032
642.8921407
654.1723071
662.7511639
671.3440278
676.0329295
682.9897439
688.8947379
693.602686
697.4557393
699.7471782
702.2782991
703.4706151
705.2348467
707.719826
707.9878498
707.9977213
465.9836312
483.6223956
499.4537288
516.932916
537.6044925
562.0158459
579.6710386
596.8139437
609.8220236
625.8491799
635.5094873
646.7191747
654.0163559
662.6719344
670.9430839
677.0201772
681.1876708
685.6352173
689.8498798
692.018739
693.9821203
697.7836153
700.2796886
700.4564542
701.820791
700.3391164
472.9466067
488.4824766
506.5001755
525.9567275
551.7824693
567.5392611
587.5759475
599.1637708
611.900077
624.0505955
635.2844343
645.3882572
654.7593701
661.8938048
667.3941022
673.5873173
676.8170843
680.2046156
685.2303125
688.2957365
690.94821
693.3588475
694.7168777
692.5629393
693.0005928
468.894002
483.0778842
498.8348863
516.9845748
536.5097622
558.5007727
574.1406734
590.1806274
604.0550095
612.3364844
624.0620163
635.6848196
643.9211168
648.6572816
656.6630067
662.5821303
668.5624892
671.2960872
673.8073467
677.4528331
679.8750242
681.5201924
683.7631443
682.3476394
684.3113785
474.4227515
491.5343948
506.3196262
522.7551671
541.0405758
559.5935973
577.2394438
589.6646797
602.7217158
612.1821202
622.3167084
631.7770279
638.678016
645.1818056
650.9216532
656.0764977
659.954755
664.023429
667.2995845
669.4629534
670.6210055
669.9651229
671.4930263
675.2226421
481.0899074
496.416281
508.8301628
527.1397799
545.881998
564.9109564
578.8740347
589.3871553
601.0881846
608.5376025
618.6501984
624.9880296
630.7245833
639.7906924
645.3395333
647.9054409
652.6081176
656.680985
657.5867964
657.7393668
659.3257513
663.2090725
666.2967282
471.2639544
488.9073345
502.6690589
514.585535
530.0884935
546.8983656
566.4295431
577.5961514
586.8003924
595.998382
605.090732
612.1445337
618.0646361
624.2205548
630.8649487
635.3561454
638.9678779
640.2913455
642.6583935
644.7283591
647.2567435
651.0705485
657.1424199
475.7842419
491.8194865
503.0078495
516.7824674
529.5883303
541.800367
557.1938741
572.0287922
583.8025586
589.9669864
598.0444806
606.1474124
612.7105663
617.8603773
617.5567623
620.5575772
623.9633401
627.8534244
632.0189251
638.2115796
639.5669459
481.8945975
491.4595832
506.4193835
517.582924
525.3159875
538.2939261
549.5414044
558.910513
568.032218
575.5977182
582.0213282
587.3550018
594.9465282
601.3480975
606.2485939
611.6261134
617.5153787
621.4660251
625.7267354
492.8612859
505.2528449
516.7822075
523.9110817
535.1866829
542.8737228
549.0619905
556.3413765
566.0879407
573.3730682
580.8401994
587.3750586
592.0043715
596.4843924
601.7532179
608.1207656
497.2457438
508.0368294
511.7814164
521.8124717
530.1119207
539.3380875
546.5246948
554.1980504
563.5928579
567.590848
571.9997118
581.0009187
583.3428937
505.3638436
514.4771856
525.6472448
532.3720539
541.3058469
547.7482109
552.6181279
442.9644667
466.4232401
490.194008
514.2967633
540.9997546
562.3012779
580.95418
602.7526699
622.2380284
641.772851
657.7755847
673.1083828
686.1117834
696.9751083
707.755315
717.5860335
723.4871994
730.27147
733.8241328
737.1759737
740.2747167
742.5739606
745.6000497
748.2349238
748.9640607
748.6902248
749.3344775
750.8460592
751.3495148
448.1116686
466.1622032
489.7365836
517.5056819
541.6849201
564.086931
585.473362
606.2461443
622.474562
637.9142738
657.0758927
673.6887832
686.6234685
697.8661685
709.0565348
718.1732551
724.7615877
729.0533405
734.5802621
737.2532448
741.3064001
744.2154729
744.9542223
744.5580702
746.6649618
748.2508408
749.0514108
749.6875446
749.2482102
460.1273916
486.6853749
508.0801005
536.7419362
560.4161044
580.6095399
601.4798771
617.4243751
634.3848539
653.5109795
667.2999247
682.249433
694.7669495
703.3492896
710.9411401
719.3461291
726.297759
730.3559551
734.1163563
737.6905756
741.1732263
742.9807247
743.5312954
744.431923
746.4788239
748.0451015
746.8644088
746.9516078
461.6725571
482.5679427
504.4795586
534.8093111
560.9462561
580.003405
598.9373837
615.9761754
635.0910933
649.7578901
664.606339
677.9233384
689.6068816
699.8883768
709.2948868
715.0680903
721.3509795
726.4460111
730.7786618
734.5824196
735.1527715
736.7364756
737.954092
738.6509203
740.1491995
741.3493744
741.8016257
741.4755616
455.3428978
479.7790143
500.4458729
529.3344769
552.7511947
573.0891379
592.8000578
612.5048862
628.7291065
644.39946
661.1587509
674.7002729
686.5029342
695.5924304
703.30953
710.5276184
717.2872968
721.5235143
726.2336514
728.8747068
731.0337399
733.1930651
734.6881133
737.0969106
738.5241773
738.9672305
739.7557378
739.1968525
455.4563109
476.2212494
493.3469464
522.7560032
544.1513773
563.7483335
583.553338
602.8701513
621.3781057
635.6986455
651.4712042
665.3373022
676.1271878
686.259829
696.8096465
702.265975
709.3356345
714.0316249
718.8127398
722.6073907
724.6179981
726.2395634
728.289275
729.3596476
729.4258525
730.5428503
730.6548907
731.5136601
450.5299289
471.1116852
491.8922586
513.5662046
537.1349217
559.3555105
577.2240416
597.5560631
614.2628463
629.1744169
643.7966916
655.2099307
668.919364
677.8020496
686.3521822
694.75998
700.9378289
707.0100873
709.3032722
713.0802543
714.8894764
716.7332187
719.4539991
720.8613726
722.4848044
724.0297848
725.0803802
726.8510126
461.830388
481.2892305
500.1120257
529.2509156
548.4653668
568.5649629
587.0364355
602.5931444
619.7045247
633.5284443
647.2083074
659.2936531
670.4416875
679.0541466
687.4459088
692.7560664
697.6320164
701.5227037
705.1371081
708.3870577
710.9947682
712.9261004
714.40162
716.0318964
716.9960782
717.2431582
717.5711314
451.156843
472.4120766
493.0077142
515.9736624
537.8475826
557.3242887
574.9007281
591.8546045
607.6477491
621.6441333
634.0712472
647.2246712
658.656071
667.3310647
674.8124263
683.4213136
688.0705418
692.3340472
695.3147202
697.9956001
701.2166079
702.6331985
704.4862571
705.5654118
706.7099257
708.4783457
708.5273968
462.6904626
482.0562341
499.6379641
523.0602473
546.2770093
564.9694462
583.3957555
598.2319475
612.0101743
624.6222462
637.9042704
647.5097294
655.7858347
663.6733257
670.8765351
677.7101338
682.1829024
684.935291
685.1044168
686.7349099
689.0014022
692.5301595
695.8618402
696.8399563
698.2694186
699.4842204
457.3060395
468.7852486
488.5864984
508.5156431
531.4203502
551.1406801
567.3199921
583.0574357
597.063098
608.7794732
621.8261311
631.6255191
642.450719
648.7658024
654.8856494
663.4515915
666.5614076
669.5956582
674.0970117
676.2822244
675.7123972
679.286088
681.4468142
684.612685
684.5723151
684.7393517
458.7170062
476.0750436
496.4109022
519.6650236
539.8406017
554.2179353
572.3054558
583.7506336
597.6342138
607.934274
618.3119327
626.1570344
633.6440411
640.5597381
646.3939416
650.8553179
655.4969801
659.7914259
664.1265592
666.1393828
667.0449832
670.4537099
673.8064033
671.7894041
671.9611071
463.8053413
484.2795444
501.1662564
520.2129784
537.9923673
552.65606
567.9396259
581.5333903
590.8860974
602.8857235
610.9951878
618.1994404
626.373112
633.3686602
638.9193045
641.5428134
646.4667046
649.0036732
651.6755537
653.0422782
654.4439502
654.2970569
655.6801473
659.3640441
461.6030957
477.0442184
487.0548917
504.6514108
517.6108195
534.2262707
552.2667759
564.5270097
576.4849894
584.748143
594.9181817
602.8420545
610.0139145
616.6405181
622.6044985
630.14958
631.5649957
634.3215436
637.8808959
639.6854369
639.8408138
641.18818
644.2591706
647.0263275
462.8913962
472.847704
490.3594924
501.637845
513.128071
529.2465573
545.6528852
558.0423755
568.6191294
575.7907217
585.0934343
592.9795378
601.6572903
606.9637046
609.2959526
614.2071361
617.1262799
615.93269
619.0809698
622.3371638
626.4396369
631.514905
632.7008632
472.6365515
488.2240349
500.4927619
512.9778809
521.4602278
532.4717825
544.0900881
557.474546
565.1538531
574.651231
581.6434662
587.1766455
588.8326275
591.8657289
595.7324398
601.1764572
605.0989905
608.6673035
613.5094666
617.4822234
476.5832097
486.7243555
496.271905
508.9903828
517.4403695
528.4725232
539.2185102
546.4926001
553.7234523
560.2405499
566.7051232
571.6526605
577.0303577
582.3524157
588.5741239
593.3612506
596.3018494
482.999925
489.3220369
503.7266359
513.1963817
521.3026038
527.5515161
536.3989002
543.6202616
549.4889931
555.7110469
559.6251204
566.5918326
575.6512831
580.9793955
489.0199023
497.7569964
504.8891862
514.7925508
522.0947098
528.2649417
532.776976
541.1578508
547.0194239
444.5780252
471.8752708
507.0442773
526.1698412
548.699215
575.6978867
595.8043627
618.4343857
639.5428151
660.8348507
681.9086105
697.631236
712.2985183
723.2673211
736.056119
745.202451
751.1279529
758.0619666
760.6422125
763.9037404
767.1140432
770.2143349
771.904389
773.1749892
773.3252082
772.6046262
772.5032587
772.9771661
773.7707585
774.6903015
448.815023
475.8982334
498.7364928
525.5918808
552.0640441
574.1933884
596.7423493
619.2495888
639.3945361
659.9232147
678.6386674
694.8493465
709.6761471
722.9194352
734.3719842
744.4497973
749.9225002
756.7703242
761.7946754
764.1461916
769.2057591
769.7710021
770.3006033
771.4200196
772.6718535
773.5261397
774.6267841
773.8501552
772.397169
773.1840632
444.6537716
471.4229436
494.4573781
526.4040587
549.2850278
571.5324423
596.4545366
620.0790849
639.7335651
657.0818108
676.8173746
694.5088145
708.0197196
720.6274175
731.0745044
739.8945636
749.2729612
755.7096926
760.2736966
761.5222687
764.6327675
767.1618566
767.9205946
768.8576388
768.9932141
769.783513
770.1510649
769.1330468
769.9423242
771.1188178
443.2130133
466.7126034
490.1457456
521.3999346
544.7684058
569.750245
590.7676488
614.2097898
633.4530319
653.1701592
670.4424717
686.9470899
701.6889384
714.7696324
726.8912999
736.9080578
741.7387948
748.9794802
752.6494703
758.3997681
760.0507523
761.6491816
764.2669495
765.8186795
766.4661335
765.3208358
765.1840083
765.5207203
765.192734
766.5065556
440.1163307
463.1357938
487.4169681
516.7147223
540.3688925
564.5528801
584.2083524
604.2639415
624.7205922
643.1090022
662.6882546
682.0932211
697.2172016
708.9839329
717.6552055
726.6019994
734.9667644
741.4457005
746.432414
752.2476224
754.8794525
756.0990641
756.6510169
760.1503087
761.4870984
763.3619931
763.3865248
762.4235179
762.5195619
762.3920435
437.0035214
458.5093285
482.8460497
511.2921331
533.4490539
557.3790476
578.8444052
599.5028941
620.925791
640.601722
657.5339371
673.1219336
688.4720639
700.8102453
713.4734448
723.4955911
729.8099465
736.3226819
740.9518932
745.1460995
746.4210566
748.6390377
751.1496787
753.4152057
752.9192302
753.205589
753.8746827
754.1656677
755.2987251
756.2738342
447.1226646
476.5732044
502.1011122
526.3420658
548.1136761
572.3351906
592.8953844
612.4378271
629.5759264
648.0933035
661.7875545
678.2536193
691.3617985
702.2432259
711.8535948
720.0997999
726.5731167
731.3759576
734.2434094
736.8802066
739.7069745
741.8638452
742.6095929
742.8289027
745.7590635
747.1870621
747.3195697
748.1700633
748.4933507
445.3574835
460.78789
488.0488519
519.3197455
539.9220438
560.1557134
582.7833399
600.5046373
617.6763809
635.9840757
653.5150841
668.0025068
681.4452995
690.4806906
700.5126011
710.5440389
716.850617
721.8529309
724.4021688
729.1954869
731.652609
733.9764563
736.1636677
737.1623481
737.6112827
739.082684
738.0563892
738.5753308
739.8276134
439.2407451
453.4445069
475.5896714
504.0290008
528.9470399
550.5764839
570.0529085
589.7251975
607.8451194
626.8040027
640.4798581
656.5194979
670.7363283
683.7499447
692.3333391
699.000648
703.3056577
711.2336132
715.9324812
718.940084
720.2075517
722.7349761
724.323922
726.9785215
728.5605565
728.4277461
728.9134972
728.7390279
729.2778413
446.02931
468.1688867
488.8620841
517.6459572
539.1924457
556.8206499
577.5310679
594.5077581
612.0086117
626.8097571
642.3668434
657.4197482
668.392834
677.4486222
684.5239804
692.904513
697.3656656
700.0591611
704.322765
705.2807589
709.3472168
712.4066595
715.511095
716.1341151
716.7258066
716.7475686
718.1882975
719.2786324
442.5594652
460.3693945
479.748807
501.5164992
527.8858851
546.1214762
568.1886676
584.271222
602.4325283
616.6935212
627.7462137
641.6570305
652.4026276
662.7759781
670.1851009
676.7610194
684.1237251
687.9419265
690.2653534
694.328399
694.5949307
697.8072567
702.0895347
704.2901859
705.542021
703.701496
705.508047
705.8734695
449.4717781
469.3113199
484.0070617
509.8658124
535.6158974
552.151726
565.3225905
586.167318
600.0072338
612.4882689
624.6956511
635.0004975
644.2584184
651.0705874
661.4658654
667.8975632
671.2368439
675.3948366
680.9114984
683.5722403
684.8777845
685.945436
688.2298705
690.0530857
692.6725745
693.7745768
694.4813746
441.4235803
459.2288424
474.3446299
494.7678727
519.5323511
538.2480102
552.9774577
569.0639309
584.8727727
598.8033655
611.7006165
622.0912705
630.8157883
638.1219251
646.1488199
652.3637733
658.1207269
662.0420653
664.4537949
667.7746786
670.4838916
674.0381683
675.016067
676.2185944
677.3361828
679.737116
681.4021196
444.9617037
465.6477835
481.0271941
501.811606
522.5387993
537.3214747
552.4829421
567.7181949
579.6135927
592.7639399
604.8390434
613.4684075
622.9910539
630.2223195
637.4105793
642.869158
646.9216542
650.6282731
653.1540047
655.8783325
659.3796997
662.4716168
664.7658617
666.4422055
666.7446283
663.9015058
449.5153325
467.2927595
484.1445378
500.4294428
516.2644902
536.7589873
552.1946657
563.7981443
574.5450933
585.4139078
596.0253865
604.5182402
615.0494119
622.8629797
626.0413498
628.4129076
633.2973482
637.2681423
639.2602051
642.8969464
646.662397
648.0840382
649.3723442
648.3534836
649.8175045
453.7204664
467.9610541
480.1782098
497.633565
514.3655983
532.5088496
545.7330414
559.5114792
569.221429
578.562196
587.9931077
593.9030894
598.4973522
606.055832
612.1481722
616.2306919
619.8452525
624.5155571
627.0142788
629.2055827
627.6179606
630.3633656
634.0872451
637.0383695
455.3986163
471.3072129
483.0690375
494.946357
509.5257698
522.5003408
538.6308568
548.2130474
557.4546581
568.3065992
575.7572424
580.9641192
588.868465
593.8189867
598.2270875
602.4168366
605.875409
609.556288
609.5271999
610.9386995
612.8071082
617.2474053
620.9397472
457.5461663
466.973504
478.4001182
490.1717687
501.5604018
515.6576594
525.9897851
540.7560076
548.139615
556.3948646
562.1901598
567.5342038
572.1434774
578.6599733
579.567333
583.754344
588.6861505
592.7793891
597.6185163
601.0851877
605.2135967
461.6944875
473.3273821
487.239539
493.1973717
505.8136641
515.2285258
524.2255216
532.1215366
538.7881748
545.7386273
551.3191708
555.9719873
561.2056186
566.6815635
570.2778149
574.9503479
580.8321089
587.3045901
471.865288
481.7081005
485.5821781
497.8885823
505.9888417
513.5321847
521.911661
529.3964427
534.9084087
541.0984229
544.8384195
549.4168799
556.4907763
561.4413743
479.4128838
491.5852595
498.9899766
505.6621599
514.1874895
519.6584251
525.5445668
530.6820448
430.5432704
446.5818589
475.5274611
508.9193249
535.612176
555.4853209
582.6349127
607.0495965
631.8624734
655.9526832
679.2197917
700.1422659
717.9016154
735.213082
749.3816918
761.104545
773.2576217
780.4947925
786.6742722
789.6138529
792.5829783
795.1036133
796.6826139
797.3121636
799.5978593
799.8721581
797.5071641
797.5708802
798.0389695
797.90459
796.5727869
794.9792398
427.5647254
450.4576195
476.8296285
509.8815828
533.890203
556.5537149
583.6175848
609.9582525
635.3553612
660.1701194
679.8134797
700.82859
720.8976781
736.9665215
749.9931395
761.6492944
773.7765724
779.5039446
785.0131011
789.6788317
794.9662616
797.5053814
797.4609468
798.9677292
797.9155611
795.1875591
797.5291489
798.2986702
797.4697039
797.6810614
795.9575876
793.4943353
426.6657599
444.9873676
475.7854544
508.6676644
535.4309166
559.8394899
583.0104209
608.512334
631.7196626
656.1722989
676.2193348
694.8999823
714.7359005
732.3040883
746.0926501
760.0849959
767.4935124
776.7213351
783.4858664
786.2775202
789.1587389
790.4858975
792.8386157
794.006387
795.3307354
795.9786051
794.6616157
793.5676368
792.6054684
792.6519133
791.954434
790.6827665
416.937531
445.9038473
471.1811518
505.4611498
527.7135907
550.7292199
577.0600303
603.3691714
627.6085616
647.8371856
669.2988983
691.6545519
707.5146395
725.3619102
740.8137917
751.1067571
760.6275553
767.8630179
774.6306519
780.7411252
784.9759101
786.239364
787.3791535
789.6716923
789.8741849
790.4515579
790.3778986
789.0804329
788.478427
788.4069796
787.7993212
787.0665109
434.9105566
466.8721987
501.7890032
525.0358629
548.6609516
576.2298915
599.3887432
618.7285287
643.0303454
664.4853731
684.9758785
704.0193969
720.713022
733.6206295
744.392781
753.1922655
763.7790786
770.6683146
774.4336313
778.8367292
781.0426981
782.3157943
783.810401
785.2331307
784.4676982
785.2319792
784.9124639
784.4592093
783.7379659
783.2072201
781.8981121
434.9780154
462.8921581
489.472371
520.983833
546.505729
568.0299563
593.399498
615.4654876
639.7709371
658.9609689
680.6622472
696.9392691
715.0710295
729.6272463
740.3781984
750.5372409
757.0557952
763.6165723
768.3160817
770.7329232
772.1685052
774.8376767
775.2718547
776.7579513
777.1878087
777.8569487
777.5288074
776.905494
776.5669153
776.2877419
776.3171668
431.7124946
452.4060477
477.8747107
511.3918869
537.8936475
560.2800989
583.7705046
606.5931739
630.1251356
648.7689663
667.3503311
684.6584036
700.8085862
716.7284149
727.2864961
738.2060746
745.4446064
752.9584511
758.7392582
761.9610973
763.6032353
766.9126954
768.8166727
768.9009046
769.5165828
769.805349
769.047389
768.6826546
768.9435484
769.4343718
768.4571775
428.692854
448.1366919
469.1130201
500.0940607
528.7992061
550.8242102
571.0955754
592.2286314
615.711272
634.7793466
655.633177
676.4606484
688.9954503
705.1829633
713.8057803
725.6705415
734.1084697
742.8033431
747.7386994
749.7301442
754.9466483
754.962429
756.8800124
759.0704002
759.7999245
760.0436544
760.7532118
759.8223014
759.6552025
759.5214375
759.0307989
438.5769737
461.6256752
483.7671989
513.5708113
540.6408992
561.4722231
584.6778971
605.2220224
623.1383071
642.5945312
660.5382428
676.6998102
690.9466078
705.7670846
715.9500228
722.7688478
727.510592
734.0211308
737.7784397
741.8516808
744.3812718
745.8076938
748.3390971
750.0233272
749.7456707
748.4748959
748.8824584
749.9737028
750.0874525
750.1157184
431.5358134
453.9913519
477.7263567
506.0221551
528.9472922
551.7167907
574.2617777
592.351012
610.5277569
631.1426475
647.9957145
665.5514254
680.1497226
691.0749222
700.9911546
708.0965682
714.5473357
720.8859955
723.8216753
726.7889901
729.6372947
732.2681134
735.6826848
736.5281439
737.420501
738.7030608
738.1693462
737.6331529
738.3083742
737.1105365
442.4499627
465.1635415
489.1367125
515.250691
535.4272272
558.3058276
579.2725845
600.4365912
617.6569567
633.5488908
647.0379106
660.8890297
673.5583635
685.3971323
692.1957918
700.2881981
706.2597882
709.9982948
712.9832881
716.7109409
719.4260502
721.6705614
721.9263373
722.1776498
723.5056134
724.0943366
723.8683831
724.1272148
724.845467
432.6891609
450.9218075
475.1672119
503.916764
524.9176762
546.9188468
566.9794114
583.3682885
601.2811403
615.1093669
632.4647882
646.4629039
655.9991468
666.6002408
674.2774219
683.1207405
689.3646917
693.1062356
697.4977921
701.2829678
702.5565089
705.1853533
706.6708166
707.7293895
709.0729279
710.1533105
712.0594733
712.5840201
714.044057
441.1162027
462.2276519
486.9151752
509.9145206
526.1043648
546.2085761
565.4870763
582.9575728
598.5748946
612.5893648
627.3493684
638.830627
649.3266989
657.965638
665.697681
671.2895891
677.8370898
681.6807489
684.6506055
687.8705841
690.1266843
693.4531605
694.8983147
695.4289905
697.0947351
697.9715197
697.8918394
698.4710456
429.4987076
445.7353597
469.2011007
492.26476
515.495807
534.8190859
549.9886312
568.7229367
582.2723488
597.1295506
609.908435
623.80723
633.0571318
641.2238808
651.2871631
657.3087047
662.9069302
664.9904609
669.6285348
673.04432
675.9578854
678.6412336
679.0578626
680.2242234
680.8439401
681.2154323
681.4844268
682.6892451
438.5341418
453.2106099
473.191251
494.7172507
514.2660463
532.8295611
547.5423025
564.0302029
576.3091992
588.6508851
601.4533833
613.8002274
620.6527098
627.1332354
634.5475932
641.1823411
644.761211
650.2441741
653.0798978
657.6161167
660.8623985
662.7801403
663.5329775
664.8856485
667.1384602
669.7209097
670.8499706
439.3668241
458.9691594
476.7953176
494.6224042
514.4447392
529.4622004
544.0865398
557.9492142
571.1093369
580.65968
593.7163157
603.1238831
609.3668807
615.5345002
621.1994486
629.2527139
632.9863052
637.7974635
639.7719378
641.7718705
645.6023058
648.3506197
650.9153155
650.6196063
651.2591198
654.2669358
444.6810733
460.4994835
478.9921358
496.15428
514.3559096
530.6840285
541.2424697
553.5775768
562.6161309
573.4710948
584.7128083
592.470131
599.4867355
604.6726549
608.3287041
612.9230039
618.1052095
624.6663889
627.1281936
628.7879203
631.1267073
632.3221887
635.5018575
633.5186641
634.8963603
447.7284816
461.6418055
473.1736412
487.7936746
503.1265627
521.9145898
535.3454839
545.0023471
553.7592912
562.3913618
572.7900462
578.3640305
584.8006909
588.1871544
593.8071044
597.7027239
603.0563485
608.4553132
611.9291437
612.86187
615.2048937
615.3673546
617.6320524
619.7145352
445.0041821
457.981855
469.7365802
483.7508287
498.7549064
509.8409401
523.7926007
534.5272524
543.1110811
550.7676969
560.0639777
566.2342979
570.646022
575.9391352
579.3454595
584.0030717
588.0157588
591.6386684
591.8326496
594.5026107
597.3949672
600.3986918
605.0220187
446.2322138
456.0435634
465.9970018
477.3068534
490.4877116