/*--------------------------------*- C++ -*----------------------------------*\
| =========                 |                                                 |
| \\      /  F ield         | OpenFOAM: The Open Source CFD Toolbox           |
|  \\    /   O peration     | Version:  v1706                                 |
|   \\  /    A nd           | Web:      www.OpenFOAM.com                      |
|    \\/     M anipulation  |                                                 |
\*---------------------------------------------------------------------------*/
FoamFile
{
    version     2.0;
    format      ascii;
    class       volScalarField;
    location    "3.2711";
    object      Tvib_mixture;
}
// * * * * * * * * * * * * * * * * * * * * * * * * * * * * * * * * * * * * * //

dimensions      [0 0 0 1 0 0 0];


internalField   nonuniform List<scalar> 
60268
(
534.7882013
547.6281672
554.2254577
560.923636
567.7738912
574.9326666
581.7818415
588.6569437
594.9808216
601.5957287
605.763873
533.2416834
545.7277145
553.2106534
560.9289902
568.3243107
575.898214
582.4609
588.6001438
595.0033955
599.8363371
603.2052236
541.4336438
552.1699519
560.9228484
567.1246298
574.7693571
581.871975
587.4435779
594.0997625
599.0849958
602.2868612
539.7449589
548.9310657
556.3578556
564.8315779
570.4829408
577.4105914
584.6300011
591.5272103
593.6753441
543.722363
556.4238698
563.0032435
570.0919566
574.5752602
579.2934355
587.4992736
591.0309396
548.3555999
556.7178163
563.017357
569.8118444
574.3014465
512.6713996
527.0511808
535.6728119
545.2742878
557.1909669
572.4342491
580.5806306
589.0564799
597.5660693
604.3411594
609.3915901
614.5836012
619.8873641
623.9050648
623.903166
626.5836871
631.2125283
636.7067053
641.5897037
644.7717789
513.493144
525.1574401
535.4783544
544.8889284
556.1431159
567.7163793
580.3961252
588.9274477
595.4145881
602.5988549
608.4590569
613.7093361
618.0958705
622.9656192
623.2106755
625.0357746
629.7511985
635.1927689
639.7800643
642.1775655
512.0198682
525.4773859
534.4104143
543.4821341
552.9529224
563.5841016
578.8014887
586.672741
594.8496047
600.5875812
606.1626302
611.0808803
615.9085109
618.4576932
620.9172364
623.9039227
628.934566
633.3572822
636.9110507
641.3092893
512.1569329
523.007291
532.5912761
541.8424939
550.9147683
561.472732
572.7405086
583.5407699
590.8863835
597.4059192
603.4944597
608.6782954
613.6603502
615.3288142
618.1613781
622.4187484
627.4433232
631.5235388
634.2014108
504.889003
518.8983447
529.3218746
539.682984
547.757119
555.1557497
566.0084414
577.6047396
586.7121809
593.5921519
599.5996621
603.3799647
606.5807262
610.9295913
614.193947
618.6769655
624.2846503
629.5878388
632.1346097
515.6660863
527.9867914
537.2184524
543.5558807
551.8683509
560.5353216
569.3786179
577.2527248
584.3426791
591.699918
596.4054343
600.7201176
605.1322763
610.0688209
615.8921319
622.0453474
625.8447438
629.5748307
509.8388431
522.8082731
531.2012522
539.7836528
547.2715097
554.7199485
563.5445885
571.4653174
576.7648761
582.9717147
589.4089939
595.3199863
600.4595395
606.6657363
611.4527168
615.2502521
619.8851148
514.8680333
525.8830849
533.4963604
542.9739206
551.7428271
558.4320114
564.7868591
571.5366864
579.0348873
584.4634442
590.4640421
595.6115617
602.5504965
607.9583291
610.510788
519.5675062
530.1834258
539.792429
546.9282418
552.7942327
559.6277773
566.3896704
574.4732802
580.7043224
585.8833616
591.9744895
595.7631958
599.7808442
523.0740819
531.4177242
539.1923927
547.6741264
555.3684417
560.8246286
567.2518763
573.5638128
577.7119064
583.4751766
589.1840313
531.4502922
540.3623659
547.1723339
551.5248651
559.0330113
566.0210655
569.4378599
497.9867854
511.5546955
521.2906245
536.0285097
555.7067415
568.1749088
578.0229419
589.3173551
598.3570784
608.0635048
615.4604455
622.6219572
627.7666209
633.1858948
638.6671452
642.7537368
646.8298194
650.1819519
653.4163715
655.9431034
657.6639622
660.0728503
659.9206951
662.1314823
497.1611362
509.9073396
520.8917512
536.3435887
554.794202
566.8968476
578.7862381
588.1956445
597.7707476
606.9789378
614.9190541
621.622411
627.5998762
633.8675486
637.9980315
642.1527836
645.3380084
648.7391138
651.8923565
654.1037376
656.9521145
659.023473
659.2114354
662.1409942
497.4811257
508.295568
520.1681787
535.9390561
554.1556197
565.0616128
576.0327111
586.0884266
595.6869519
604.8635828
611.9510669
618.953059
625.7948769
630.5766892
636.2189898
640.6714617
643.4163527
647.1328903
649.9961464
652.3936985
654.6042123
654.7623918
656.6882628
659.967899
492.0543459
505.7474121
518.0981124
533.2840393
550.5090439
561.4840075
573.0021047
585.3025467
594.1092001
602.1379981
610.1704886
616.0957627
621.6232712
626.7504321
633.1543259
637.3009338
641.0376265
644.0241649
647.0711835
649.8355964
652.9800754
652.6298435
654.1364973
657.3915392
489.3767251
504.4585557
516.0514487
529.8942365
544.5060223
560.8720688
570.7314704
579.4134095
589.43407
597.6172417
606.1260683
613.3289866
618.9027633
623.6627941
627.3676035
632.6741982
636.9852009
640.454264
643.4729594
646.5204003
648.7016422
649.1134023
650.9120111
655.2639707
500.1845237
513.1422641
522.8742916
537.5405394
553.6342045
564.4517937
575.2933173
585.1071107
592.7824548
599.739994
607.3793547
613.4209987
619.5423888
625.2935485
628.4389907
631.087343
635.9252563
639.5872125
641.9002236
642.3352241
644.4094176
647.1641164
651.6785583
495.0256566
509.4893075
520.176838
531.9325139
546.3488655
559.4655605
571.0246124
580.1058579
588.9680483
597.2688193
603.9068712
609.2254725
614.3081467
619.2722721
623.1381955
627.5026856
630.3213564
632.7889236
633.9486494
636.0917293
639.5344827
644.446829
648.082404
499.0271044
516.3419799
524.7602933
535.6167158
548.9569705
562.0313089
572.8887356
581.6073328
589.044103
596.4805716
602.5642964
607.2707014
611.9976909
617.279728
622.0373068
624.7194793
625.1614827
627.6369009
630.2282133
635.0029384
639.0544071
641.553006
497.3198144
511.0332736
520.3426105
529.9674087
540.4618174
553.7449963
565.5470166
572.823806
580.294059
588.2685691
594.8431214
600.6960663
604.8508685
610.4125133
614.805705
616.0716754
616.8331203
620.3015132
624.3788108
629.3861475
633.0167997
502.1941405
513.6698742
521.8934405
531.6375692
542.1227991
550.8065588
562.0195675
572.5746669
578.9356592
585.3592079
591.7800406
596.9769764
598.9336169
602.2368653
605.6298553
609.3786292
613.1910101
619.2917484
623.8360547
627.3819671
504.6226442
517.3823419
524.9301475
535.5055599
543.7506188
552.1161828
560.585875
565.6701937
571.7495789
578.4622808
583.6276636
588.8284115
593.0396911
597.6272478
602.8791497
608.1454639
612.1668213
616.4356097
506.5246688
517.8312617
526.4015548
534.3750904
542.047228
549.0123036
555.2182886
561.4465062
567.8490005
573.6981447
579.9128143
585.200182
590.4503561
594.0976815
599.272594
606.0960489
507.8481815
516.2983248
526.6297527
534.2276281
541.7153604
547.7467576
553.5253426
561.1674042
567.1411838
572.7631778
576.987629
582.3715087
585.2895963
517.0076282
524.202338
530.0695737
535.7987154
541.6904116
548.8689292
555.9633277
562.4649732
565.5329045
478.8060373
489.8304768
502.5753575
521.7998374
541.2241291
557.7406847
570.941073
583.2187052
595.3910207
607.051143
616.9183119
625.2252434
633.6655208
640.7710258
646.1515838
651.3458981
657.264273
660.3761881
664.572906
667.6532747
670.4277089
673.076091
675.303403
677.6129236
679.5468047
681.2986917
682.8546597
476.2493295
489.6554714
502.7761199
519.8502404
541.9915271
555.8627538
568.2411935
582.8959584
595.4593899
606.2913388
615.8917665
624.8669993
634.7143633
640.9778871
647.6847537
653.2649835
656.6114974
660.7883162
663.8957321
667.1570815
669.6053579
672.4866055
675.1398321
677.006545
679.1442677
681.1541516
682.798319
474.8395515
489.2747248
502.4027626
518.5682294
539.1308007
555.0478611
568.8604638
581.8137703
593.3848984
604.8616216
613.8888459
622.8520415
630.7313722
638.0327668
643.7085819
648.7330716
654.5948379
658.6007825
661.9469242
666.1543009
668.6345139
670.8427854
672.8721161
675.0660915
676.8567623
678.2309898
679.5892902
485.8146281
499.0041115
515.3873965
536.8099556
549.6666322
563.9529826
574.9564189
586.6620731
599.2572218
608.9345405
618.0731541
626.4618862
634.0466719
640.1975843
644.7860994
650.2307815
654.3304949
658.6117299
662.7755316
665.2923586
667.6438051
670.3994998
672.6547934
674.3292635
675.2805723
677.2506935
482.6571497
498.0169577
511.5574811
529.1303481
547.7735435
560.1883316
573.3302752
584.6698776
594.3572408
605.1078209
613.4494972
623.0643328
629.6591977
636.0804313
642.3875025
647.75004
651.1932613
654.510389
658.4341317
661.5989065
664.4359055
666.8306632
669.6958673
670.8703641
672.5332794
674.1456554
481.104178
496.8996912
508.4990341
524.4724259
543.6967505
555.6116501
569.0544155
579.6456592
592.2484023
602.722362
611.100571
618.4236519
625.3433918
631.3753865
636.875919
641.7987029
646.0456726
649.3266812
653.4049351
656.7595278
659.2746615
662.4675025
664.9065326
666.8412766
668.3843578
669.2553254
476.7156526
494.585147
503.3419447
516.4048174
533.3333647
550.4619071
563.9801001
575.6013023
585.9349302
596.4017199
605.4510803
613.3800782
619.7255837
626.0790046
631.2144403
636.8086239
639.6883913
645.1923266
648.6293524
651.8528959
654.7384156
657.6807082
659.7739942
661.6379241
663.3414077
662.5335249
482.1042923
496.8281507
507.4949015
525.9397222
544.4584423
555.5162176
567.9824451
579.0309022
589.5806352
598.1539945
605.6767942
612.9428982
619.7983348
626.0076074
630.2907132
635.4908396
639.1625564
642.01678
646.3903436
649.8273142
651.1298147
653.0684679
654.230992
654.7199796
655.7648002
479.7846447
492.8644097
503.7909452
515.6738218
531.8374485
547.6070598
560.8520195
571.1827278
580.4439701
588.6900116
597.456352
606.294212
611.742964
617.4019262
621.9910395
627.9900355
631.6946091
634.9902636
637.5688964
641.3383484
644.4446106
646.7058372
649.3470415
648.2009567
649.3493478
485.3249932
496.4700241
510.061058
522.0084762
535.6422548
551.9416753
563.0666547
571.7724012
581.528614
587.8593243
595.8680507
602.6971166
609.096343
613.8691916
618.7894487
623.0822442
626.1063639
629.7649811
633.5246401
636.7778935
638.3166853
638.8044116
640.8829101
643.7204251
491.2150571
504.0154486
512.2446653
525.0459403
540.3577935
553.0185776
564.1413694
571.63948
580.2347874
587.1921114
593.7073945
599.0097641
604.4643462
610.4588737
613.9343131
617.8988239
621.6308633
624.1990334
626.9624745
627.5692057
629.1186183
632.2908069
635.7226556
481.2615619
496.5957846
506.1599749
514.7706363
525.9600848
539.6748195
553.3928224
561.6028945
570.1356541
575.6254641
583.4829937
590.6038056
595.3352937
600.1489716
604.6429066
608.0680063
610.8933847
612.0724306
614.7782433
617.7473416
620.844097
624.7499889
628.9549443
486.8406327
498.6078774
507.5918506
516.8587227
527.4775643
537.2837968
546.5182112
558.8024088
566.9566096
571.3452697
579.3288649
585.8270968
590.2743746
594.5332648
594.9706384
597.643669
600.023295
604.2225317
608.8451815
612.4754628
614.9592287
489.391418
496.2323483
506.6794673
514.9268772
524.5721866
533.9189103
541.7771283
547.7828205
554.932734
560.6627438
567.1636004
572.7536213
577.4003511
582.1955712
585.854461
590.7602108
595.3136304
598.6550346
603.1238013
497.1503442
508.0858205
516.519363
523.0109275
530.9025808
537.8876167
542.646707
549.6428381
555.5699062
561.1317923
567.1381372
572.6221489
576.8531706
581.8146204
587.233135
590.9007236
500.079182
507.532322
511.8269636
520.850017
528.1970044
534.6993758
541.2422646
547.4957824
553.7202839
556.9479368
560.4071872
566.1931592
570.6094122
507.9763615
517.0829269
521.2766869
527.3982074
536.2648824
542.1328682
545.2281255
465.377145
481.8075711
496.5011198
518.6110686
536.7417703
552.8119389
567.1720846
582.9020922
595.8297048
608.6917052
620.9614729
630.6068002
640.4228895
650.6619323
657.8385373
664.1607927
670.5783128
675.7278786
679.569993
682.7857671
685.9791887
688.8180325
691.7375716
694.2850828
695.8522084
697.2002737
699.1474563
700.9625329
702.0715194
464.5843284
481.4061329
498.1237648
519.963339
537.2932406
552.31476
567.3987361
583.2402412
595.3813406
608.2793621
620.8587146
630.9994662
641.9281519
651.4809561
657.4405969
664.4226856
670.0361288
674.0721103
677.9618587
682.6793441
686.5867545
689.3322236
691.2547706
692.5000701
695.257908
697.2557312
698.9978475
699.8890388
701.68268
475.376915
495.8413655
513.3402898
534.0941234
548.3780506
562.7482183
578.9270137
592.3729786
604.7705406
617.9727312
628.8149937
637.3873036
647.1999701
655.5702833
660.7909012
666.2691355
672.6565887
677.1526945
680.3345428
683.3162899
686.0252523
688.6797467
690.9221672
692.770371
694.5636558
696.6665655
698.072366
698.9447739
477.3138488
492.4792416
509.3703117
529.833474
548.0969873
562.6417458
576.6773132
590.9196792
603.0021918
614.9603743
625.9611058
635.2904703
643.21987
651.5945139
658.6093793
663.8500208
668.8915612
673.3175444
678.036788
682.1215179
683.4051018
685.2128455
687.6810583
689.5714994
690.8106243
692.5239638
694.3038634
695.4702328
472.0411903
488.7279377
507.1776045
529.8067454
544.3875351
559.5065719
573.5914365
587.0610235
598.7404009
609.5896228
621.275311
631.0674283
640.3446053
648.6307028
654.7617537
660.8835346
666.2231357
670.2305468
674.099332
677.0679719
680.5829964
684.0006353
685.7439502
687.2990188
688.7837501
690.5293661
692.0489939
692.5485104
469.9099437
485.4640345
500.7656678
522.7801813
539.1648714
553.1012312
567.26521
579.766922
592.8019954
605.7631454
616.5113388
626.367692
635.0219973
642.2837507
650.2583125
654.579216
658.8571604
663.5816339
667.6726235
671.8726483
675.6075031
677.6520749
680.3789076
681.7234374
682.7820181
684.272285
685.2443212
686.8817207
464.0572111
481.886598
498.6122429
515.762599
533.3483975
548.6750185
561.6450983
575.8198831
588.8028775
600.4550597
610.92806
621.1002025
628.0860913
635.879753
642.7951158
649.5732911
654.7276987
658.3793978
663.0696833
666.3056205
668.5496257
671.488554
673.4343937
675.9048026
677.823897
680.0545569
681.3710267
683.3589914
476.499567
489.2299715
504.6080639
527.3218854
541.8775855
557.7239396
570.0793514
582.1577409
594.8345181
604.1402424
614.1276694
622.2233182
630.5335498
637.1793304
643.3251004
647.9117935
652.6655069
656.6631507
659.8608802
663.4063692
665.2516194
667.2761153
668.9000254
671.1976063
673.6834445
674.5281817
675.2543704
469.1631981
485.2736296
499.5026008
516.9255263
533.6484053
547.9184216
560.5817839
574.4578207
586.2277414
596.5092633
604.9588614
614.3640367
620.8452432
627.42456
634.2247282
639.7024498
644.6082829
648.0878136
652.2922067
655.6718663
658.6268816
660.2131129
661.9227967
664.4882484
665.6654458
667.4361222
669.4000494
476.8945617
491.5277517
505.12114
522.8456826
540.0736028
553.1695715
565.2288679
576.1162257
587.5592195
597.1152997
606.1312004
613.6004347
619.4818551
625.2391145
630.3409942
636.7781355
640.4999881
643.4457787
646.5193663
649.3478014
651.5281775
653.3526301
655.8705089
658.0719169
659.8924726
661.6523006
469.560983
482.7472253
494.5405557
511.0420724
529.8367038
542.6689847
557.2087557
566.0041248
576.7432437
585.6931063
594.7773169
603.2142058
611.1162474
616.0839614
620.9090945
626.4770245
629.7173027
633.9910247
637.1307096
639.0850775
641.8550702
644.7037166
646.8702066
648.6922256
650.1015876
651.925708
472.7861275
487.6247693
502.6478337
519.4705179
534.1400729
545.1210452
557.6716292
567.7400058
576.5266088
584.9962427
593.065907
600.0248001
606.8121506
611.5226776
615.7241433
620.1786443
623.647174
627.2175886
630.8993417
634.3398947
636.5187883
638.6824616
640.6928335
639.7329857
641.0774801
478.5942967
494.0341867
505.5659607
518.5490312
533.4620027
544.1365995
555.6283995
565.7668974
573.4785202
580.0284336
587.1035787
594.0000829
600.0295741
605.2986743
609.2365432
613.9190767
616.6476535
619.8038366
622.3591051
625.3954862
626.8186968
626.9958549
628.3858596
631.7069618
474.3169389
486.2715642
494.325176
507.253976
516.5348178
529.4570372
544.5740918
553.7423585
561.7854333
568.655996
575.3377476
582.448406
588.1206771
593.2863888
597.9571506
602.0144759
605.3584151
608.6457485
611.8351503
614.5280689
615.7682894
617.1015609
619.1860839
621.7612189
476.0498346
483.7109738
496.2180685
504.6398301
514.9635245
528.2612145
539.6710053
548.9507001
555.840387
561.8933881
569.2955027
575.5746297
581.2086463
585.8728112
589.1892341
593.0472871
596.760667
597.3044553
600.1496836
603.3734622
606.8783812
610.5063088
612.1960462
483.00972
497.3638395
505.2611581
514.2287852
521.8025243
530.1549771
539.5603931
549.5778043
556.0678947
561.9531157
566.669998
572.3712997
575.031321
577.0149774
580.9395027
585.2646535
588.5437145
591.2395868
594.7871079
598.3453714
486.1379382
494.2750245
502.1306919
510.315136
516.0565417
524.9993635
532.8357378
538.9339666
546.5577006
551.643025
555.1360961
559.9061536
564.1644258
568.8819184
573.7828755
577.9796952
580.4053947
492.9783619
497.1940466
506.8043179
514.2940182
520.1854024
525.5837013
532.8722362
538.614044
544.1779716
548.5167525
553.4062395
557.7498964
562.0686884
565.8772896
496.5084976
503.6642682
508.920426
515.3948141
519.7254735
525.9804046
530.8180064
537.400074
542.4100509
463.5150301
486.2561123
508.7978983
525.8769385
545.3105634
563.1295987
578.6174442
595.4531604
609.4902505
623.2264168
636.2090542
648.3021398
658.5870728
668.018692
676.1136577
683.6100239
690.2189329
694.8204627
698.9494851
702.8574584
705.9047622
708.7236241
711.8661372
713.4350929
714.3640929
715.8526245
717.7588899
718.7676296
719.7623914
720.9956725
467.3738821
485.6525623
505.4250634
524.3060469
543.7419637
560.1103902
577.692727
593.5445023
607.6530535
621.271475
635.401233
646.8109647
657.890819
667.399976
676.3839574
683.2379086
688.0174877
693.7784759
698.6097359
701.9752917
705.9026297
707.5527
709.3313916
711.7773416
714.1442597
715.8441556
717.5064007
718.649409
719.3227208
719.9059797
465.5643657
481.8833707
498.4914337
526.3286002
544.1670887
559.9217917
575.5750257
592.6665185
607.5215978
621.4229733
634.6780765
645.9527938
656.0701966
665.9725642
673.930809
679.9428603
687.1451162
692.5688784
697.7276331
700.5975916
703.4428739
706.0686875
708.0237685
709.7228708
711.6331194
713.3232285
715.0369788
715.6604231
716.020668
717.5541757
461.791107
480.6521547
499.7521301
523.4132376
539.8586149
556.265271
571.7747975
588.8172902
604.8778755
617.1347196
628.942485
641.1489363
650.9684337
661.7373169
670.8822087
678.3286833
682.9787614
688.3867035
692.6973224
697.1465088
700.2169859
702.8078697
705.3587851
706.850159
708.831258
709.7909626
710.5593883
712.5527603
713.0754556
713.5660689
460.6332246
477.1192305
495.3866201
519.39301
537.558808
553.8778838
568.7791954
582.181355
597.2566249
611.7789672
624.0533129
636.6083097
647.5724889
657.0272718
665.6630292
672.5778706
678.0433136
683.6676092
688.0714734
692.1661537
695.5708761
697.9728176
700.2668038
703.4067759
704.6910151
706.6225366
708.7944754
709.1447484
710.0259384
711.3553313
456.5177269
470.9187382
491.0917391
515.158408
530.0279116
547.8016576
563.9209153
579.8743214
593.4390576
606.885302
621.2760067
631.5459581
643.3494502
652.2636062
660.8895756
667.9786951
673.9286307
678.7013789
683.743484
687.7288851
690.4526008
693.5825773
695.5829906
698.0276173
699.259376
700.490681
701.7356336
703.0339272
704.8542006
706.6300561
467.6125183
487.3975157
506.7382048
525.632675
543.2865158
557.6428738
572.981505
587.964555
601.4265088
613.171769
625.7247602
635.514112
644.682973
652.6052767
660.2845271
666.5209527
671.953594
676.5036823
681.4988311
684.4148573
687.0159981
689.2685221
690.7329588
692.7362263
695.3121857
696.9181672
697.8893867
698.9333774
700.105381
464.0482982
478.1474304
496.0542379
517.3338094
536.4966423
550.9820547
566.6726246
580.5428796
592.6874175
606.0327417
618.0394178
629.5164714
637.6321895
645.5336224
652.3949832
658.7551264
664.5292397
669.9573638
673.1905123
676.6769515
679.4985993
682.1032426
684.3350845
687.2674115
689.0133405
690.6276705
690.7212005
691.9694654
694.0937136
461.4032673
473.051914
490.3339664
509.9047336
529.7891116
545.499708
558.28188
573.0056512
586.8383059
601.0570044
609.69088
619.8138056
629.7148726
637.8404083
644.9494412
651.3821859
656.9858672
662.9042787
666.1747446
669.594117
672.0767307
675.2479708
677.0844711
679.216098
681.1820877
682.1340357
684.3676198
685.5596324
686.6692113
464.4986045
481.6967235
498.1615275
519.2871392
534.2611813
549.4937267
563.5407841
576.0765878
588.6922563
600.5068078
610.4751056
620.3208848
628.456802
635.4234739
641.0863691
645.8536203
651.5152573
655.6391976
659.5768651
662.3314935
665.2951505
667.9039687
670.1363263
672.4796671
674.1612949
675.5084473
677.3619347
679.1863793
459.6953221
474.7559424
489.8063277
505.9573082
527.0951586
540.9854828
554.5587002
568.8019718
579.6555735
590.9859875
599.8548749
609.260984
617.1181638
625.5074038
631.4526678
637.7697935
642.7429034
646.1407868
649.4698673
651.8265804
654.4359825
658.500866
661.512087
663.8296658
665.2792963
666.7623226
668.0026566
668.9183082
465.5102078
481.8803819
494.7121104
512.8153449
532.2392273
542.9911196
554.0914318
568.3060544
579.5900411
589.0191655
598.2877009
605.5442782
612.3844427
618.5093362
625.2553284
631.1711224
635.2950406
639.0798499
643.4303942
645.5153054
648.2801073
651.2446235
652.4986644
654.2789567
657.1380234
659.2074232
659.9209291
459.6232473
476.6712678
487.671022
500.3722132
520.2027023
532.6718832
543.5025564
556.4866314
568.4621633
578.6203665
586.3240064
593.5305582
602.6086524
608.7690649
614.8683125
620.3519143
623.8500065
627.6291469
630.7979574
635.5412481
637.2310611
639.2279296
641.5473173
643.5646828
645.9759813
648.1715063
649.9279392
463.6119388
479.7983042
490.80497
507.0081937
522.3905446
533.1203894
543.6562612
555.3813793
564.8159446
573.176015
582.1476971
589.2013985
596.5527271
603.096829
608.932974
612.856101
615.5103527
618.9924961
622.1733817
626.2708025
628.6224936
630.4321366
632.7530965
634.414267
636.045517
635.7882034
468.2927904
480.6648511
492.8365144
505.87414
519.4136407
533.1246009
543.5368024
553.199295
561.1949445
570.2972769
577.4301925
584.3384448
590.8756609
596.1634726
600.7015529
603.4844669
607.3116208
611.1397674
613.9016452
617.0921967
619.982736
621.6471975
622.9468064
622.7470838
623.7655995
469.6687493
480.1772442
490.1228771
503.3478513
518.2231264
529.990838
539.5364758
548.7675708
556.0151078
563.2653241
570.3128155
576.4456507
581.2368553
586.8568431
592.1157617
594.2968313
598.0050547
602.36754
604.0872592
605.9070104
605.5596119
607.5023086
610.4514272
613.335233
470.5644973
482.2559169
492.247349
502.574312
512.3860594
522.4835683
534.633193
541.4269352
549.4055934
556.6322663
563.2016312
567.1740251
572.2276076
577.3109183
581.2517617
584.0964556
587.3627046
590.7958025
591.3236813
592.5460423
595.7424697
598.8128221
603.9761512
472.5488304
478.5486978
487.1812515
496.9638842
505.8045138
515.6726773
523.8393131
534.0737526
541.135155
547.1098881
554.3544351
558.6974306
562.4505083
567.9397879
568.1821759
570.4776446
574.6013597
579.4237803
582.2769914
585.6319209
588.9764471
475.4588187
482.7391495
493.9632562
501.0628345
508.6592677
515.6623563
523.0585525
529.4038337
534.3523541
540.707537
545.5245069
549.6349525
554.4492677
558.3147413
561.370469
564.7725361
570.1180329
574.5666847
480.0691512
488.2230216
493.3974921
501.8441561
507.4231715
514.4931451
519.8154381
526.337618
531.3607084
535.8134663
539.7802859
543.8008207
550.5398719
554.4155442
488.837152
497.003133
502.9578746
509.2621553
513.9855878
518.8564139
523.4798836
528.8427552
450.8173178
466.164575
487.7603161
515.0161769
534.7581383
550.1154717
569.3668178
587.0882241
604.5017876
620.2056032
636.5227138
650.5960443
663.911018
675.3244326
685.4412667
694.4090736
702.5901864
708.8852053
713.7902612
718.7486358
722.9243267
726.1536655
728.8300922
731.1664313
733.0108588
734.7608621
735.5902956
736.8065362
737.5593993
738.1131187
738.3874596
738.6954268
452.3079572
466.4878831
489.9359387
513.4280145
533.7533382
551.4595472
568.7146443
587.0780391
606.0891332
622.7650866
636.6883027
650.4019411
663.7688547
675.1430082
685.5368213
694.5567067
702.627897
708.5341234
714.8908459
719.6015986
723.6767778
726.8412954
728.4125209
730.3466109
731.57084
732.6012101
734.5137508
735.4579385
736.204502
737.044034
737.5066643
737.1228549
449.0019507
465.9037729
487.2444882
511.4837387
531.5575237
550.8803955
569.1395877
585.5339452
602.6615091
618.2577169
634.2154453
648.2673164
662.1192756
673.4228445
684.4217946
692.8085395
699.1536835
706.7705038
712.3099939
716.6442036
719.8284722
723.1349148
725.7585311
727.6800807
729.9342694
731.2520996
732.4898521
733.4660231
733.9794022
735.0397627
735.1974551
734.82266
446.7734135
464.4778346
485.7029532
509.48368
528.9962196
547.194391
564.2593723
580.4605754
597.8872948
613.3308158
628.4838318
642.766727
656.355282
668.2725783
678.3808165
688.8578856
696.3943948
702.3089616
707.5316174
712.8865061
716.5214888
719.2459438
722.4299832
725.0506152
726.5547139
727.5697985
729.0570827
729.5706813
730.55598
731.1833796
731.7011107
732.5174005
460.2917279
481.8709329
505.9545857
524.1493048
544.1596798
561.8718909
578.6287134
594.5039966
610.3163822
625.7617968
640.0537813
653.1911542
664.5225953
674.3704992
683.6872074
690.8216184
697.7145695
703.7161985
707.7581758
711.0659414
715.4429636
717.2215487
719.7632496
722.1628922
723.3432445
724.5463225
725.6764124
725.7641258
726.9007112
727.4678408
727.733046
457.7541981
477.9721452
497.3942576
521.0577268
538.8681704
556.7238273
574.4189875
590.4637869
607.2032531
622.0937575
635.5558465
649.1826488
660.3639438
669.8345263
679.0754437
686.7929451
693.007628
698.5778453
703.4960271
707.232111
709.4045911
712.3756899
714.0527914
716.7101152
717.9086925
718.9741783
719.8631518
721.0421638
722.5082536
722.7537042
723.4657622
454.918207
471.7391841
489.9034361
516.1435823
533.0481865
552.0374637
567.2486813
584.3628261
600.3725961
614.7118597
627.2040481
641.152054
651.4838142
661.9647218
670.2610714
678.0293984
684.0430589
689.7397996
695.1443983
699.3768681
702.477873
705.8950073
708.4160077
709.9811444
711.2881137
712.799819
713.9424036
715.0772725
715.7238053
717.1454855
717.3533642
451.7724278
465.9035888
483.2663567
506.6487146
526.39287
543.5218648
560.2653336
574.1715934
592.1074776
605.3282344
619.1250468
632.4836568
643.7026962
653.3066723
661.3522924
669.9012017
677.1172533
684.2972206
688.1002489
691.0510119
694.911054
696.8656987
700.3210273
701.7575916
704.4284075
705.700129
706.632997
707.8759715
708.7936815
709.5338817
710.1836821
457.5013884
476.6670363
495.8322227
518.4522446
536.4426452
553.0164841
568.7947003
583.7522426
596.9877539
610.8898142
622.7602395
633.3361812
643.7030032
653.471374
661.9515805
667.8426068
672.0961928
678.9689914
682.9693547
686.2432731
689.3257021
691.9082124
694.6703745
695.8948002
696.9429795
698.0852369
699.8511419
701.34347
702.3351513
702.8401276
449.64834
468.8148944
489.3825566
510.4832473
528.2948801
543.8101311
560.1199101
574.1674908
587.3375572
603.1614217
614.6362879
624.7293964
635.0961468
643.1401595
650.8814038
658.060057
663.4819191
668.5242377
671.8320732
675.8019497
679.1222871
682.3732714
685.1374949
687.2701435
689.381463
690.5923091
691.2313302
691.9832921
693.266518
693.6755491
462.0496238
480.2307536
498.4468725
516.9436032
533.7943536
550.3093429
563.7008299
579.1535953
590.9794635
603.3029722
614.0133743
623.5298581
632.1828554
640.8601711
647.2321059
653.9151657
657.7927776
662.4495788
665.2727661
668.1608351
671.4075972
675.2291704
676.2106223
678.4918898
680.5426539
682.0446103
682.0352895
683.1764482
684.8021843
452.8682456
467.6208716
488.4069143
508.6019367
525.4239761
540.9468061
553.8516788
566.4976963
579.4506982
591.6462298
603.7193738
612.9264057
621.1270759
629.2411662
635.1715489
641.6155464
647.0873007
650.2500681
654.4649632
658.1919998
660.3111419
661.9482549
665.4209541
666.985595
669.8515622
671.7811582
672.6420885
673.6207947
675.6261831
458.8886151
477.8727915
497.1648298
513.9987646
526.5324213
541.4753023
553.2796603
567.7951564
578.6116652
588.5445572
599.1120345
607.3076851
615.2856104
622.1376416
628.5937669
634.0364644
638.0108541
641.6784863
645.1804889
648.6483385
650.7892676
653.0022787
655.7201822
656.8709776
659.0089332
660.7033113
661.9433005
663.0066718
450.9723071
464.9546777
481.8584163
499.4250086
518.8827292
531.2696494
544.2676221
557.5332217
567.4457249
578.9338944
586.5911376
596.507105
603.4947605
610.6892937
617.0685439
621.8243051
626.6726744
629.8508633
634.0352184
636.5767863
640.0097524
642.5257683
643.9668933
645.9883194
647.0262549
648.7412549
650.6421852
652.4532816
456.8477529
470.6364036
485.023456
500.0439084
518.3429027
530.8791701
542.0277161
553.3490567
562.7346
572.3353972
581.7979874
590.1203177
596.7137601
601.9998999
607.7369493
612.5441585
616.2484202
619.9668027
623.843615
626.5692605
629.4595602
631.2489035
632.8168185
634.6449884
636.9498634
638.8226081
641.0398238
460.8026524
471.1377058
486.4534953
499.9388545
516.8205638
529.0107302
538.0181845
549.2971876
557.3439393
565.6211054
574.4672915
580.9397609
587.0109407
592.4072455
597.8100047
602.9911864
606.811692
611.1184988
614.3922963
616.2473671
619.085034
621.3390925
623.5000155
624.7144942
626.5710923
628.1008813
461.6517971
473.6984063
487.6072509
500.3440769
514.941465
525.6036292
536.334946
545.6949773
552.6329804
561.013127
568.2895992
574.2822233
580.4037969
585.155819
590.0395995
593.0829256
596.0066242
600.3180004
603.6452816
606.5891671
608.8314965
610.5090997
611.8520445
611.6969737
613.624699
462.1318609
474.1349154
486.4831003
496.2788206
505.8126293
521.3690966
531.0942195
539.0736858
545.8031449
554.233147
559.7475803
565.7894715
571.0559812
574.5893831
578.8821186
582.3459608
585.5591549
588.4769442
591.3718305
593.272379
597.2119497
597.4808497
598.9354609
601.7454672
462.0572467
472.7085223
481.9178607
492.1095069
503.5548772
512.152087
522.9898108
531.3346955
538.8891949
545.8326653
550.3378847
555.5728059
559.966097
564.8257124
567.9861642
571.4575935
575.4010286
578.2434546
579.2070387
580.1115614
583.4016554
586.4726515
590.6047554
458.3650463
467.4032193
478.6651381