/*--------------------------------*- C++ -*----------------------------------*\
| =========                 |                                                 |
| \\      /  F ield         | OpenFOAM: The Open Source CFD Toolbox           |
|  \\    /   O peration     | Version:  v1706                                 |
|   \\  /    A nd           | Web:      www.OpenFOAM.com                      |
|    \\/     M anipulation  |                                                 |
\*---------------------------------------------------------------------------*/
FoamFile
{
    version     2.0;
    format      ascii;
    class       volScalarField;
    location    "3.2711";
    object      Tvib_N2;
}
// * * * * * * * * * * * * * * * * * * * * * * * * * * * * * * * * * * * * * //

dimensions      [0 0 0 1 0 0 0];


internalField   nonuniform List<scalar> 
60268
(
533.1456691
545.1036349
550.7469149
557.1665653
563.6097322
570.1011854
575.9907582
582.5958848
588.3005834
594.942784
599.1612147
531.4164083
543.8393575
550.7040769
557.1510532
563.881059
571.2061984
576.89092
582.3506733
588.6641276
593.0996
595.9741419
539.4907961
548.6722462
557.1561525
562.4090851
569.4472167
576.3477183
581.770788
587.7790973
592.4665562
595.7755963
537.620837
545.3173795
552.317197
560.6051284
565.4175247
572.389581
579.2560611
585.120694
587.1964166
541.1534849
553.3964347
559.5909984
565.987697
569.1626328
573.790488
582.0915637
585.4882549
545.7915442
553.0994794
559.0706449
565.8258203
569.4124696
513.2103219
526.0808938
533.8928837
542.2578614
553.3708101
567.3419942
574.8381728
583.0409762
590.8067347
596.654838
601.2005696
605.9332757
611.4027653
615.3514157
615.239379
618.4779491
623.0802242
628.0077274
632.3677875
635.3651351
514.1520717
524.3058157
533.7885768
542.5974664
552.7798133
563.3173448
574.7848415
582.7470548
588.5582914
595.0830912
600.7522711
605.8909615
609.5184535
614.0392308
614.2880649
616.1308616
620.7364007
626.3889091
630.4812676
632.86996
512.1478155
524.7463398
532.9814254
541.0095051
550.3551087
558.8412772
573.0883751
580.3008613
587.97475
593.6213521
598.5634181
602.9047651
607.6095116
610.2312314
612.7109698
615.3284589
619.8464886
624.2020885
627.6023487
632.3639126
513.0017773
522.6888676
531.3243357
539.856112
548.1465973
557.8027544
568.2259735
577.4021374
584.3853689
590.3032052
596.3461179
600.5847269
605.6289942
607.5452459
610.4627891
614.494886
619.1783982
622.5295375
624.962493
504.9805572
518.723705
528.47635
537.5933266
544.8315338
551.5233882
561.8569162
572.4687799
580.5280982
586.9404262
592.4499195
596.5180387
599.441936
603.3997629
606.4892671
610.7304834
616.1470451
621.3432574
623.5596266
516.1954255
527.0270343
535.6290563
541.012151
548.602332
556.854776
564.5669958
572.1048741
578.7246781
585.4409903
590.0403859
593.7583001
597.7328149
602.6345606
608.1438122
614.2078203
617.7513556
621.2469468
509.6112402
522.052705
529.8387504
537.5295451
544.0406965
551.2014535
560.000453
566.9841622
571.7514203
577.6349359
583.787804
589.074517
593.8564007
599.8019871
604.2160343
608.1129731
612.6409837
515.1288604
524.8930267
531.4783756
540.4245092
548.6212632
555.1265463
561.2579272
566.7201985
573.7877743
578.7349772
584.659553
589.4267918
596.124006
601.2462035
603.8856842
519.8538402
529.3077294
537.9385988
544.6624505
549.2397446
555.7228208
561.9621599
569.8306979
575.3506425
579.6921698
585.5944554
589.7151276
594.0712043
522.1280713
529.324942
536.1128017
543.9734688
551.1607818
556.6737362
563.1558454
568.7418519
572.7257164
578.5403944
583.8603848
529.4790333
538.6433586
544.6452406
548.4469215
555.0589624
561.4247031
564.6317484
500.4875969
512.6689304
521.6926797
534.5069495
552.3694629
563.3935561
572.2544941
582.4933106
590.8189384
600.2633265
606.7995257
613.3384947
618.1201244
623.0794019
628.4580959
632.4610442
636.281385
639.6852188
642.7258851
644.763147
646.5737394
649.1644027
649.2306491
651.5304451
499.1942672
510.5776208
521.061591
534.9905164
551.3680599
562.0895549
573.1546537
581.6260439
589.9364166
598.7114101
606.0844776
612.0862219
618.1955923
624.4618328
627.8554565
631.817005
634.7611472
637.8300341
640.9235307
642.9908173
645.8294176
648.0084207
648.6403014
651.9111755
499.621075
508.6173376
519.6529653
534.1238244
550.5465168
560.6591599
571.5726981
579.5870543
588.2065095
596.8449172
603.0501922
609.579384
616.256715
620.3141838
626.1599735
630.1162542
632.8142864
636.45054
639.2618563
641.5874638
643.9109965
644.5655198
646.4623419
649.5251853
493.7843458
506.5118102
517.9377669
532.325733
548.2601917
557.2367631
567.3615739
579.2363265
587.1583532
594.3160199
601.728052
607.2848728
612.3624293
616.9498068
622.9528825
627.3558076
631.2775311
633.8599441
636.9923461
639.7611109
643.0020566
642.895747
644.6058358
647.6735124
490.5932118
505.5386452
515.9823322
528.7030847
542.5516736
557.5523402
566.0883444
574.4229529
583.1323884
590.2690108
598.4025296
604.6770433
609.9758751
614.6001478
617.9794092
622.9010566
627.2436952
630.2651482
633.2977962
636.5171603
638.5234022
639.3168474
641.1085726
645.4526461
501.7998087
513.6863513
522.680924
536.0167926
550.3966284
560.2004356
570.2355102
579.8679805
586.1465016
592.2301574
599.2105789
604.6098597
610.484055
616.1493717
619.2518529
621.4738147
626.0984269
629.3215897
631.4525138
632.5315541
634.7488816
637.5489623
641.9210828
496.5278068
510.298991
520.3421458
530.6216225
543.9918791
555.0040134
565.7926744
574.3136722
583.0307298
590.3311904
596.4064748
601.3829672
606.0069023
610.4819018
614.0554693
618.7619176
621.0139871
623.7530854
625.294058
627.321108
630.6122285
635.4405114
638.4161656
500.2460555
517.0680467
524.7291941
533.9886358
546.3190014
557.5408973
568.0290998
576.2050832
582.9633137
589.7267909
595.4784565
599.264198
604.0832526
609.2279001
613.7345311
616.4530963
616.9088073
619.5649944
622.2586439
626.8854592
630.3802817
632.7653296
499.8824362
511.8368412
519.5405013
528.8822645
538.2590032
550.5401499
561.3008824
567.803103
574.6416533
581.9166037
587.8679654
593.8770694
597.166008
602.6040011
607.2379757
608.4881459
609.0113811
612.5888541
616.439265
621.3346959
625.4602737
503.0187784
513.9602511
521.3277479
530.6703243
540.2314297
547.5230077
558.0540957
568.0382928
574.0212662
579.365914
585.0577823
590.1475226
592.5650934
595.330105
598.4825353
602.2317661
605.7313602
611.869783
616.4070729
620.0053562
505.695865
517.2359702
524.1905707
534.2076433
541.5947931
549.1901668
556.5666466
561.3853549
566.7000339
573.1871244
578.4020731
583.2341285
586.8417472
591.5149221
596.9821307
601.5826102
604.9826063
609.1136572
506.4908051
517.8711086
525.8680192
532.7845887
540.2075402
546.8531592
552.5473809
557.7286988
563.5943314
569.1854964
575.4265609
580.0307474
584.720377
588.3063346
593.7087927
600.2424415
508.3496611
516.0514414
525.926571
532.0916069
539.4899111
544.9647609
550.543683
557.6428197
563.326649
568.4363935
573.3165442
578.3739853
580.2020975
516.7248353
522.8847295
528.856686
533.675249
538.8153025
546.1254209
553.0432325
559.3816243
562.1823996
482.1237522
492.2255068
504.8779052
522.2919731
539.3464521
554.9708798
566.5042611
577.0536852
587.8497082
598.7053465
607.3589496
615.4078673
623.7218601
630.0029369
634.4879061
639.2304203
644.857651
647.9322096
652.1061089
654.9878836
657.6633991
660.2121515
662.3560202
664.7254594
666.7990602
668.9546553
670.6259856
479.7474662
491.8695081
504.2447556
520.0137571
540.8948619
552.8707168
563.226769
576.866701
588.6940543
597.7964738
606.2436469
614.440886
624.0412477
629.4323843
636.2741762
641.0876933
644.0340556
647.9010557
651.1665411
654.4298379
656.7109225
659.5350999
662.5867687
664.5953364
666.9345134
668.94557
670.5724539
478.3654529
492.0228964
503.4445115
518.6109207
536.6602142
551.3844633
563.8546991
576.5792647
587.0407125
596.869858
604.8877072
612.8967722
620.0482046
627.1385777
632.4345367
636.5863643
642.4344143
646.3725468
649.5412555
653.9572009
656.3067174
658.5387382
660.9561572
663.6032074
665.1996992
666.298822
667.9057847
488.546865
500.9829144
515.4145945
535.7145885
546.7263567
560.184657
568.9970318
579.5178067
591.5870723
600.210285
608.870074
616.2747455
623.760744
629.2490994
633.1097444
638.2983209
642.3863426
647.0304649
650.9342291
653.466656
655.724556
658.7501743
660.9508292
662.6987676
663.7847595
665.7851586
485.6159448
499.9208931
512.1207841
527.9717755
545.2214701
556.4735264
568.3585898
578.4691941
587.1054077
597.0545387
604.0602951
613.5908191
619.2112155
625.4163261
631.5567454
636.7172746
640.0055025
642.7127906
646.2969209
649.8663343
653.0309078
655.5459876
658.4237641
659.3240976
660.8629293
662.7815386
484.778097
499.4689546
509.9045071
524.6301297
541.6701794
552.2363194
564.5858504
573.5292281
585.6235283
595.6055042
602.7683056
609.0576045
615.5446227
620.9048124
626.6091532
630.9823439
634.784776
637.6739273
641.7882343
645.4001516
647.8886704
651.584248
654.1742987
655.9328648
657.7890036
658.865167
479.559071
497.4888368
504.3708856
516.2651721
532.2053181
547.4140142
559.8463075
570.0198294
579.6570744
588.6681748
597.5637632
604.6352814
610.7344832
616.4850005
620.7933528
626.2553521
628.7852715
634.548995
637.7590932
641.2433155
644.3511415
647.036651
648.9989035
651.2870103
653.0604705
652.4130689
484.5296063
499.0370796
507.7580087
525.9352278
542.5254237
552.3463914
562.8242609
573.7374017
583.7157594
591.3573412
597.9113253
604.4371784
610.6299363
616.5898927
620.5487146
625.4823058
629.2594944
631.9609788
636.1430003
639.6588589
640.5765736
642.368462
643.4591984
644.6286814
645.8123037
482.6716959
495.4556611
505.102069
515.327353
530.6039941
544.7340234
557.350977
566.1826244
574.2348865
582.4764917
590.4674453
598.5714257
603.2954385
609.1977376
612.8833281
618.8968113
621.9971641
625.4274159
628.0086896
631.7919527
635.0591611
637.4653217
640.1976763
639.1054048
640.014065
488.2125261
497.7763272
511.0501288
521.811246
534.2174799
549.9266028
559.3381001
567.0713406
575.9619781
581.475861
588.928617
595.0691176
601.3333478
605.6514421
610.3529837
614.4092055
617.1986896
620.7422766
624.6170142
628.1427655
629.7634775
630.5340416
632.7413811
635.3231084
493.895626
506.0258238
513.1474175
524.4930091
538.9003484
549.8828435
560.2603327
566.9684682
574.7517236
581.5831388
587.1536245
592.182289
597.5603161
602.7435994
605.6700989
609.998024
613.4663504
615.6259253
618.8661191
619.5827451
621.1069448
624.0716262
627.5752353
483.9103241
498.6301734
507.0828651
514.8195464
524.8702731
537.7698805
549.9591081
557.3928371
565.7512331
570.2707907
577.8029535
584.9403259
589.3621312
593.8208994
597.74663
600.8871494
603.4979539
604.6301594
607.4169843
610.6139118
613.8475905
617.7602341
621.4526011
489.7650638
500.4030303
508.8037043
516.8788646
526.920549
536.0930307
543.7057135
555.3206236
562.5247455
566.4504944
574.410254
580.4864838
584.3775561
588.4003721
589.0269796
591.6081857
593.7117074
597.9839302
602.7197688
605.6632135
608.4340601
491.3734737
497.4937416
506.748175
514.2255955
524.3759906
532.7652595
539.731181
544.8520527
551.4848805
556.7338032
563.2557847
568.9138729
572.7858865
577.1582034
580.4875266
585.2651487
589.4593138
592.630333
597.1459142
498.2838879
508.8338633
516.4500043
522.7735315
529.7734563
536.5741243
540.9574073
547.8798569
552.8017444
557.9097882
563.5308357
568.7365687
572.8614062
577.9474963
583.4025122
586.3540263
500.8280729
507.3990078
511.8389886
520.5961313
527.6922861
533.4773766
539.8509994
545.7316067
551.1220764
554.1453502
557.3538295
562.2883474
567.2487667
508.6663188
517.7707885
520.1235652
526.0864588
534.9357385
540.6530592
543.281046
471.321571
485.88583
498.1716267
519.7527239
535.6160009
550.306102
563.5363909
577.6709
588.8781565
599.9939027
611.2998478
619.4626198
628.4503512
638.5281334
644.7613673
650.1512176
656.6859473
661.3819852
665.2654876
668.4104315
671.5870993
674.5225971
677.3746236
679.8592257
681.6046231
683.3512174
685.6121816
687.4676089
688.7085256
468.9512723
485.4479075
500.3462276
520.6138702
536.1322047
549.2067798
562.6330014
577.1814482
588.2579501
600.4963256
611.3567632
619.812325
630.2250446
639.3377849
643.9138805
650.3229709
655.6714244
659.6180099
663.0436038
668.2659741
672.0906519
674.7545694
676.945189
678.5845626
681.481549
683.5495384
685.5064116
686.4333218
688.7996208
479.4177178
498.2661795
514.7317305
533.3942344
545.1991643
558.0352497
572.9817874
585.7754681
596.9843025
608.6380898
618.7164814
625.6251696
634.7342715
643.0514953
647.6442681
652.3413593
658.5621549
663.1393337
666.1340173
668.9261396
671.3933017
674.2295239
676.8755647
678.9318582
680.6204331
682.8251367
684.8915776
685.9438548
481.4603221
495.1048241
510.6647537
528.5183886
544.7050975
558.0636506
570.8164096
584.3331915
594.577567
605.8388759
615.8384438
624.1314958
631.082909
638.9588021
645.3346387
650.4204411
655.1064025
659.3364
664.1265721
668.2423884
669.674721
671.5014337
674.2602217
676.4289438
677.5655355
679.3837703
681.4870554
683.0261667
476.4704287
491.0987568
508.9600879
529.9317096
542.1783514
555.923078
568.5319111
580.3707803
590.8688891
600.4599572
610.8267347
619.6471749
628.2663258
636.3467892
642.05324
647.8721849
652.8156032
656.7459547
660.359819
663.3787612
667.2182051
670.9322818
672.7052015
673.9940524
675.4496582
677.5048227
679.1844696
679.9317467
473.7443358
487.9130964
502.7300457
522.786577
537.8467529
550.2906474
562.9706373
573.685161
585.2845748
597.8985118
607.3368476
616.144249
624.2442786
630.7571172
638.0541199
642.0712813
645.6017077
650.3123071
654.1925585
658.4733918
662.6317439
664.7507785
667.6215022
669.001966
670.2985054
671.8562948
673.02525
674.8409925
467.6425897
484.7414943
500.3915372
516.3435745
532.3481156
545.8565286
557.5392102
570.0987857
582.1082069
592.9139717
602.3040994
612.1531276
617.3883993
624.8972099
631.378127
637.7175842
642.5902123
645.5862026
650.8828973
653.9482628
656.2838108
659.4827382
661.184036
663.9099632
665.8797497
668.2639021
669.6206334
671.6401987
480.3868178
491.3329672
505.7977399
526.8121296
540.1390985
554.866614
565.6176829
576.7872612
588.3049679
596.4323134
605.4600544
612.5096368
620.0752335
626.2002242
631.7583696
636.141329
640.8466982
644.858834
647.9247701
651.517967
653.1341935
655.1572803
656.7934262
659.2364678
662.093758
663.0713945
663.8742159
473.9357172
488.6813351
501.2220633
517.1772153
532.5391125
545.4365911
556.807366
569.8789219
580.5949905
589.9045543
597.3143785
605.7443769
610.9269025
616.9615702
623.5836045
628.2308209
633.1938629
636.4523242
640.9588151
644.495853
647.3566913
648.9630376
650.6080999
653.5407705
654.699106
656.4400595
658.8955353
480.6585229
494.0351739
506.5716734
522.788982
538.4366345
550.060731
560.4465723
570.3012333
581.1359723
589.8962618
597.7982506
604.7147358
609.9660481
615.1597998
619.7081847
626.0339327
629.5480052
632.5249919
636.3494913
639.4695478
641.605153
642.9530243
645.2312479
647.740068
649.6395109
651.5179605
472.8092023
486.4463985
496.1168099
511.7105214
529.4180754
540.4312695
554.5419317
561.5114746
571.3956683
579.6241057
587.6743604
595.7591617
602.8939138
607.5055177
611.9879697
616.7648254
620.0313671
624.6231334
627.3895195
629.2624126
632.8946566
635.5361796
637.6825474
639.1270257
640.904968
643.1509781
476.5156124
490.6832032
504.2976849
519.4191352
532.6361688
542.7238381
553.8189682
563.5286601
570.9793737
578.9736487
586.4402662
593.1704402
599.775589
603.9046528
607.6721654
612.1190115
615.2745976
618.6428707
622.1402647
625.9467252
628.4443632
630.2628295
631.8962828
631.2020802
632.8386446
482.5099728
496.6155239
506.7292942
518.1094474
532.26663
541.8908609
552.3857587
561.6167343
568.9021822
574.021297
580.8302771
587.6448535
593.1123284
597.925763
601.4359326
606.654731
608.7963333
612.1086036
614.6257054
618.0908344
619.5058268
619.758778
621.1384438
624.3476005
477.6854847
488.7149557
496.2493087
507.9424012
516.2504913
528.1981392
542.5461059
550.9017279
557.9167073
564.425452
570.1913274
577.0903794
582.368383
587.1507287
591.4816367
594.6200875
598.4635087
601.8845075
604.9688714
607.8880697
609.4058057
610.7260606
612.5392256
615.0503465
479.5348985
486.5854231
497.7678163
505.433502
515.4482594
528.0012095
538.0944976
546.5566265
552.4771067
558.2381062
565.1414058
570.9983795
575.832498
580.3295025
583.9031623
587.4829804
591.4050104
592.3986104
595.1587079
598.3679309
601.7080426
604.9456076
606.7609006
485.7562495
499.7827749
506.522379
514.5594383
521.8929459
529.5434726
538.3661275
547.4973761
553.6752784
558.6107902
562.7280915
568.4729311
571.3981881
573.1031103
577.0421755
581.0709616
584.1755826
586.636709
589.8371544
593.274656
488.6663758
496.2719936
503.67904
510.6649342
515.6913314
524.0832684
531.1532273
536.9431907
544.6702185
549.3796471
552.0906187
556.8131591
560.7766665
565.3340028
569.8851562
573.9224327
576.2083256
495.6139145
499.273008
507.6168118
514.5835974
519.8908715
525.0652259
531.9434334
537.2961468
542.7798373
546.622792
551.7688081
555.4207229
558.4875104
561.8907108
498.4868499
505.2249548
509.9845877
515.5537114
519.1007656
525.378565
530.3019727
536.4099496
541.1953488
468.5362766
490.068092
509.2621331
525.7994541
544.4152362
559.8126496
574.0899123
589.4065683
601.5974652
613.3659498
624.2381553
635.3966803
644.5372035
653.5630524
660.4203763
667.4727324
674.2275959
678.1705591
682.6603002
686.6972468
689.6447893
692.3301489
695.8000688
697.3933589
698.4813105
700.518496
702.9225255
704.0323607
705.03971
706.3260435
472.296561
488.2378724
507.1961768
523.9658339
541.5429183
556.3936228
572.6721602
586.7772085
599.3112963
611.1224558
624.0655443
634.231215
644.3360419
652.8770579
661.206884
667.2025265
671.7802255
677.2082939
681.93982
685.5257708
689.0957249
690.9810984
693.0320771
695.7764291
698.3924651
700.2747241
702.0380984
703.6597309
704.8745287
705.3663207
471.1138917
484.6565395
499.5600779
526.308641
542.8146091
556.8578566
570.0723513
585.4561209
599.0637254
612.0762527
623.6444356
633.2538396
642.4947941
651.6844992
658.983111
664.2382994
670.8427302
675.9643522
681.232748
684.4931393
687.2094736
689.8060275
692.0220558
693.858849
696.1948507
698.0845319
700.1250802
701.1512276
701.3571997
702.9501856
466.7177521
484.3479568
502.2972175
523.9459966
538.5607673
552.7056341
566.7671996
582.1308183
597.3636542
607.6764488
618.0661239
629.1558064
637.6963946
647.8648331
656.2270572
662.9832594
667.5693909
672.4673384
676.9032797
680.9524552
684.3445632
687.1528181
689.6296387
691.0522173
693.3415511
694.8193471
695.7817303
698.1850865
698.9067038
699.1404683
466.0797337
480.827758
497.4982863
520.1020169
536.8155025
551.0572385
564.7086515
576.3620237
590.0275963
603.5429564
613.9070304
624.6802867
634.5571157
643.4075707
652.0341154
658.4060952
663.0892535
668.4615433
672.6838532
676.2796806
679.8441934
682.5108082
685.2238972
688.2160084
689.4381259
691.3307447
694.0379411
694.7021267
695.7673942
697.4568722
461.69852
474.2091863
493.2770586
516.1816442
529.1233469
545.2715706
559.9828574
574.703426
586.2061576
598.0229617
611.7609212
620.6485771
631.5249605
639.5506934
647.1258496
653.438192
659.2754479
663.5663026
668.6826712
672.5721764
675.6393983
678.966201
680.78173
683.2209348
684.8733035
686.3175731
687.6714625
689.2100488
691.1844512
693.1447381
473.0454744
490.2659286
507.9661972
525.4450611
542.0113894
553.7659234
567.7323206
581.5186942
594.0237582
603.997562
616.2637536
624.3098038
632.4520771
639.5905012
646.7588559
652.4574816
657.589098
662.0516733
667.5751498
670.5327469
673.0352813
675.2732419
676.8806556
679.3251265
681.7626017
683.3812736
684.5442006
685.6035381
686.971825
469.0026337
482.7473277
498.1736803
516.8084939
535.5916607
548.5596784
562.4232592
575.2873403
586.1153498
598.163305
608.7267865
619.4228907
626.1512692
633.7543112
639.775751
645.1696552
650.7846444
656.3051354
659.6980496
662.8011378
665.6892258
668.3299347
670.5326608
673.9417755
675.9973944
677.612534
677.9681609
679.3795265
681.7074498
467.2850577
478.2522652
494.242758
511.4603118
530.0117847
544.158521
555.1772671
568.6002227
581.3110615
594.2887174
601.6060535
610.1834447
618.9552778
625.7999555
632.5280004
638.8982623
644.8308008
650.2060178
653.0780006
656.5776234
659.3493404
662.6592513
664.5350962
666.4873379
668.5212685
669.7275903
672.4007791
673.9312534
675.1628887
469.3948519
485.2822588
500.6240708
519.7211252
532.9582704
547.5595818
559.850491
571.2181795
582.5539077
593.5896505
602.0985141
610.5822475
617.9701527
624.3919865
629.6736082
633.4918252
639.4596375
643.9403743
647.773099
650.9815655
653.6278175
656.0906365
658.0641332
660.8307345
662.7769696
664.4478273
666.3873918
668.385547
464.2387225
478.5690921
492.4711608
507.1327077
526.8861272
539.6283843
550.9618688
564.7226124
573.6563484
584.2173563
592.5227209
600.7520234
607.8574885
615.7220119
621.2849814
627.5285383
631.8662155
635.1472797
638.7237816
640.6065857
643.8150105
648.0824413
650.7315375
653.0552509
654.5363121
656.8839739
657.9462815
658.9879698
469.7634619
485.2118927
497.5467644
513.5956173
531.3466896
540.5716582
551.1274905
563.5942747
574.21049
582.8418147
591.3414371
597.7996099
604.0063773
609.952614
615.7372476
621.5123498
625.8357803
629.5134588
633.5486483
635.4653549
638.5962603
642.0421823
643.0058466
644.7526363
647.6533865
649.9617548
650.6590298
464.4510669
481.2952821
491.2008681
501.8555138
520.3798675
531.1998859
541.003892
553.1731295
564.1431827
573.3121758
579.656508
586.0304853
595.204659
601.0634595
606.6538473
611.9458238
614.8457531
618.5759358
621.9301133
627.0399379
628.4458378
630.0108921
632.6708492
634.889715
637.6271032
639.7536507
641.5166044
468.5565799
483.5481724
493.3947612
508.3837688
522.3513471
532.0109716
541.3268423
552.1294038
560.919662
568.021808
576.1809061
582.8239716
589.608172
595.9783529
601.4574002
604.9733838
607.2548078
610.6706311
614.0152931
618.4633381
620.5021451
621.959718
624.2708797
625.9136589
627.8787405
628.2971071
473.2714996
484.2076528
495.1384251
507.3143256
520.2459717
532.1646037
541.2526066
550.407515
557.6818712
566.3216519
572.5439775
579.0377906
584.5256153
589.1540364
594.0502556
596.9382402
600.4804748
604.2672559
607.2228432
610.2860543
612.9375676
614.6575499
615.9503843
615.9585535
616.8445525
473.895913
483.41313
492.7557669
504.859556
519.242581
529.3260753
537.9019097
545.9364018
552.5376872
559.2379021
565.6607902
571.8534534
576.694758
581.8075988
586.8499968
588.5283551
592.2564094
596.5353664
598.0418984
599.756
599.7303809
601.4536545
604.1905516
607.0475927
474.5841414
485.1545549
494.6755896
504.5905805
513.1418282
522.4791394
533.5782135
539.6375183
547.2853143
553.5589915
559.8973002
563.5477949
567.850822
572.9678288
576.7863504
579.2767671
582.489498
585.853371
586.5256631
587.6926473
591.2325402
593.9340342
599.4787428
476.520983
481.6110685
489.5041492
498.7591582
506.9256955
515.6766426
523.2718446
532.3117383
539.2901319
544.664758
552.2929616
556.3728715
559.901427
565.1204009
565.1864008
566.9820563
570.8929766
575.905909
578.2314796
581.5518032
584.6851806
479.1033242
485.2301536
495.7414982
503.1419285
509.4110025
515.7769141
522.7504624
528.6866656
533.1821727
539.3808328
543.9968875
547.9649039
552.6690559
556.1102551
559.0225721
562.0877693
567.2906349
571.2056854
482.2388922
489.9456536
495.4627533
502.888785
507.8018811
514.7467396
519.2623892
525.5307991
530.4246663
534.4192324
538.4452099
542.3183477
548.9691423
552.5604841
491.3266705
498.4339321
504.005654
510.212424
513.932317
518.6449908
522.9357993
528.3578199
456.1966603
471.3594067
491.002767
516.6298729
534.5323597
548.6974061
565.8668049
581.8308286
597.3072482
610.8188511
625.3279294
637.6231461
649.7851622
659.6628833
668.7227532
676.9557829
684.0719028
690.0760506
694.5865001
700.0061855
704.4349363
707.7750289
710.6765317
713.4035372
715.0738062
717.1578375
718.7856228
720.2605159
721.046434
721.7505366
722.435569
723.2374588
458.8734864
470.7401837
493.4107785
514.3669047
533.7171483
550.1142576
564.7853871
581.0528275
598.3944881
612.9443992
625.3856846
637.2011462
648.8341152
658.9892229
668.6996361
677.0189769
683.9991178
689.9033907
696.4341059
701.0946773
704.7832697
708.0404385
709.9537438
711.9272302
713.6951983
715.679038
717.4255345
718.3628864
719.4920482
720.4584735
721.4814048
721.6399192
454.9321358
471.4527911
490.2829609
512.2297942
530.5322297
548.512678
565.4787172
579.4776988
595.0151338
608.2986308
623.1996294
636.0520186
648.3537494
658.0281742
668.3006382
675.2064265
681.2489851
688.4118491
693.5846891
698.2570815
701.449679
705.2144787
707.8491326
709.884133
712.3164634
713.7625048
715.6340177
717.1236413
718.0005306
719.2984273
719.6501301
719.4907314
454.6924537
469.4065705
489.5539326
510.5488304
529.3354741
546.2602118
560.881789
574.4244641
590.0641426
604.2619298
617.7687482
629.9444525
642.9526085
653.3215727
662.0343092
672.563009
679.559807
685.0854212
689.8592936
694.9553815
698.3633243
701.4085949
705.0708277
707.717337
709.5107039
710.5821393
712.4429423
713.4033634
714.7747649
715.5483302
716.342173
717.5568744
467.0267939
485.8482825
507.0582063
523.914621
542.9692952
558.0790016
573.1515926
588.1239058
601.715118
615.5905432
628.2689035
639.8740509
649.8134589
658.8688006
667.800351
674.4783213
680.3659227
686.0892269
690.1532843
693.1198391
697.9991483
699.8496409
702.6081484
705.1993966
706.8524705
708.1263043
709.603481
709.7909585
711.3930633
712.2242547
712.8939182
463.7961474
481.9711849
499.4928711
521.0772785
536.8495374
553.7404304
569.4186766
583.8898091
598.6494351
612.4263952
623.7428081
636.6932822
646.0625112
654.2075962
663.0554675
670.1226294
676.2288481
681.4981827
686.4296142
690.4529814
692.7690126
695.7521523
697.6962935
700.607866
701.959884
703.0812571
704.2540171
705.8775224
707.7879919
708.1340263
709.0051467
461.0716183
476.8637883
493.0899428
517.4012734
531.7666564
549.8607902
562.8904731
578.5039073
592.5432704
605.7633433
616.6718437
629.752794
638.5742321
647.6364193
655.3306626
662.2673486
667.9467667
673.1236795
678.3903882
682.8417102
686.266863
689.6629012
692.2980823
694.2013412
695.6441874
697.4296366
699.0368239
700.5358442
701.2494618
702.8967917
703.3999329
457.8949158
470.6160104
487.0175546
508.3840772
525.7565283
541.5926704
557.4071643
569.4156138
585.8983998
597.5922929
609.5423057
620.9546878
631.8320724
639.7145389
647.6143892
655.2813451
662.1572389
668.922757
672.3954464
675.5545183
679.0123451
681.4345127
685.2416011
686.4306738
689.5724135
691.0674378
692.0212847
693.8183473
695.0003366
695.942339
696.8724074
462.5205965
480.656029
499.0285457
519.7442562
535.3327145
550.7841555
564.6053948
578.0967393
590.1091273
602.5572747
612.8412663
621.9663635
631.3184326
639.7699449
647.8010355
653.4436857
657.5424812
664.4805926
668.5083793
671.5344833
674.7252391
677.5764894
680.3569254
681.4066406
682.7676582
684.5192416
686.610754
688.1753003
689.375435
689.9933593
454.4503614
472.7451518
492.4709055
511.6637483
528.1224267
541.722388
556.3892579
569.3775311
581.2368274
595.8149821
605.888421
614.0366362
623.2987418
630.595064
637.7658028
644.9461352
650.0840838
654.7663576
658.140495
662.3392489
665.7477833
669.1237849
671.6807685
674.1166462
676.5220513
677.67544
678.594788
679.6648753
681.0780895
681.8932093
467.2492454
484.2259924
500.9142682
517.3915973
533.3627356
548.1974072
559.594197
573.5474995
583.9604901
595.3559956
605.3484821
613.7391706
621.3462151
629.1876818
635.4522624
641.7494635
645.0583417
649.9395443
652.6944085
655.3346478
658.689004
662.8946116
664.0408491
666.8352156
669.0474252
670.7635103
670.783469
672.1391333
673.9869903
458.2206342
472.0477944
491.9149324
509.8420422
525.5577695
539.3700819
550.3899466
562.0548043
573.7064798
585.4808094
596.1754573
604.1317359
611.9846959
619.4471472
624.9203868
630.7293833
635.9922813
638.9858522
643.1381298
646.8233853
649.139456
650.486337
654.4655839
656.139677
659.3868577
661.5173637
662.0658545
663.1448055
665.2721902
463.6017924
482.0194021
499.8801143
515.0796999
526.6456075
540.2247773
550.0585346
563.7980877
573.3566479
582.2192745
591.686165
599.0280871
606.3497971
612.7342401
618.8509161
624.2501428
627.5413621
631.1517131
634.7799507
638.2935775
640.3850327
642.2808076
645.3160437
646.6061328
648.842495
650.734724
652.3053273
653.4774355
456.6640896
470.0508143
485.2120211
501.3202422
519.7787049
530.3318537
542.7578825
554.5836637
563.5424285
574.1505031
580.4653603
589.3408747
595.741588
602.6848652
608.0980013
612.5162738
617.1589459
620.6134093
624.6649415
626.9648224
630.5162165
632.9730707
634.6715283
636.9029655
638.0317449
640.0845999
642.4035636
644.3595617
461.704453
475.2567203
488.1576218
501.4536627
519.4209261
530.3640164
540.5725207
550.5323263
559.1573638
568.0392551
576.6246354
583.8898678
590.4200469
595.3956713
600.6919527
605.0208088
608.7532024
612.0010114
616.1440833
618.3849139
621.1667322
622.9083404
624.677524
626.620991
628.924784
630.5931368
633.081933
466.4865835
474.3641696
489.0130116
501.346668
517.4492086
528.8913507
536.4149862
547.0136381
553.713174
561.6574551
569.3965521
575.0965641
581.1255004
586.3217555
591.6559235
596.0800564
599.9209848
604.0897858
607.7022168
609.5141138
612.0808947
614.1937027
616.2357643
617.8387307
620.0090411
621.1363872
466.1525716
477.1960969
489.8875129
501.4522322
515.0962373
524.2621798
535.0404319
543.6172595
550.0032587
557.734613
563.9702099
569.4994209
575.3898486
580.026384
585.2328681
587.8657922
590.1941998
593.9105675
597.4621404
600.7396197
602.9471878
604.7458534
605.5940322
605.9132483
607.978173
465.9504147
477.4460638
490.0083804
498.5252391
506.523217
521.2249048
529.9713948
537.5088389
543.7043224
552.0826375
556.3130491
562.4806954
567.4402505
571.0135551
574.9579602
578.3064052
580.9543655
583.2163789
585.9542128
588.107061
592.4625848
592.7531867
593.9874598
596.9826539
466.5748615
476.6086381
485.1423799
494.3204385
504.8234003
512.762474
522.7780616
530.4931338
537.7768708
544.5334042
547.7780202
552.7666574
557.155693
561.9020359
564.9995029
568.1599913
572.0830977
574.7182102
575.882011
576.3199135
579.7117264
582.7952594
586.7935332
461.5788189
470.4121684
482.0190911
487.7247933
494.7797263
505.3877452