/*--------------------------------*- C++ -*----------------------------------*\
| =========                 |                                                 |
| \\      /  F ield         | OpenFOAM: The Open Source CFD Toolbox           |
|  \\    /   O peration     | Version:  v1706                                 |
|   \\  /    A nd           | Web:      www.OpenFOAM.com                      |
|    \\/     M anipulation  |                                                 |
\*---------------------------------------------------------------------------*/
FoamFile
{
    version     2.0;
    format      ascii;
    class       volVectorField;
    location    "3.2711";
    object      U_mixture;
}
// * * * * * * * * * * * * * * * * * * * * * * * * * * * * * * * * * * * * * //

dimensions      [0 1 -1 0 0 0 0];


internalField   nonuniform List<vector> 
60268
(
(5683.989806 6.586113977 -438.525865)
(5639.98992 7.836855652 -491.8761963)
(5607.808654 8.748408521 -538.2567856)
(5574.690025 9.739735705 -588.1233621)
(5542.873133 10.45858452 -636.5699361)
(5512.141388 11.50540814 -684.0890956)
(5482.403695 12.33095383 -730.6888293)
(5454.680431 13.34380096 -775.377762)
(5429.255357 14.04930574 -816.1768307)
(5406.154352 14.96528011 -853.2921511)
(5399.526793 15.46397364 -877.3971111)
(5692.221512 18.08423435 -431.6871539)
(5644.4015 22.0728395 -486.7865741)
(5607.68584 24.86586547 -537.4586146)
(5575.841052 27.87095763 -583.8484611)
(5545.172463 30.28552397 -631.3584752)
(5514.959078 33.14240842 -679.6039371)
(5485.126564 36.10553807 -726.9180374)
(5457.239345 38.43499085 -771.5661245)
(5432.116603 41.31401634 -812.686262)
(5408.672025 43.69763587 -849.6143066)
(5402.625581 45.3505867 -873.8165878)
(5657.622776 38.29542439 -473.9432498)
(5615.129572 42.529793 -526.0241831)
(5583.711199 46.76235531 -575.0455299)
(5551.88267 51.43318752 -624.2415438)
(5521.079142 55.7158859 -672.1234318)
(5491.63488 60.26924766 -719.1204659)
(5464.072103 64.82393689 -764.1201509)
(5438.20292 68.95619316 -806.3660009)
(5424.289244 71.42542392 -838.6010361)
(5414.404126 72.0765826 -866.7111261)
(5670.127136 49.67006319 -467.4226739)
(5625.099762 57.30488005 -518.7545229)
(5590.899407 63.25465806 -567.5549725)
(5560.022777 69.69609249 -615.2642407)
(5529.368481 76.15700348 -662.8474983)
(5500.583802 82.45939689 -709.9806931)
(5473.924253 88.44178287 -753.3332584)
(5447.66352 94.61340199 -795.3314359)
(5439.221434 98.9363504 -823.8626615)
(5647.775566 70.28664188 -504.8130745)
(5601.936369 80.29079902 -556.9912498)
(5569.479167 88.04219932 -604.6852062)
(5539.132998 96.07772213 -652.8719469)
(5510.566146 104.1367769 -698.8578154)
(5494.64775 109.5973866 -734.8880895)
(5474.917829 115.2926269 -773.1185583)
(5456.37176 120.9262149 -807.7989206)
(5633.292071 91.81534777 -535.3137185)
(5596.44928 101.8207592 -584.66835)
(5569.043605 110.7464926 -628.4739468)
(5540.002018 119.9990677 -675.948468)
(5523.693528 126.4920562 -708.9569227)
(5763.457308 1.78513662 -304.0038197)
(5718.949883 4.17500873 -349.9757372)
(5685.426266 5.258444642 -390.8621501)
(5648.026045 6.2885623 -436.8668931)
(5595.053567 7.215604988 -497.1759885)
(5525.588174 8.500875714 -575.466971)
(5480.941581 9.827233862 -634.01099)
(5439.936627 10.92809446 -690.5199446)
(5402.999213 11.7652536 -743.9357049)
(5371.316742 12.77174755 -792.6262922)
(5344.41944 13.86685129 -836.3592343)
(5322.396615 14.98376055 -874.057327)
(5305.178919 15.51259789 -905.279852)
(5292.723526 16.27355009 -929.806177)
(5301.834884 16.7656764 -939.0051893)
(5302.672054 17.35275519 -949.7216139)
(5292.538298 17.78096399 -961.551079)
(5283.150721 18.01203108 -968.5461273)
(5274.687111 18.38168091 -969.8958376)
(5274.174759 18.37721826 -966.2702454)
(5774.313459 15.57490998 -286.4930408)
(5729.220035 17.22862975 -336.043808)
(5692.64138 19.08378906 -381.7331365)
(5655.694161 20.98323078 -429.6732504)
(5606.510122 24.00868051 -487.7290968)
(5548.614334 28.78056079 -554.4999926)
(5491.038976 31.42353238 -624.3801582)
(5449.352717 34.59918787 -681.7640233)
(5412.415533 37.34602764 -735.6986408)
(5380.242773 40.40200426 -784.9351607)
(5352.735583 43.22550842 -829.3151449)
(5329.850825 45.73140255 -867.4254697)
(5312.632848 47.84305343 -898.703683)
(5299.592147 49.83504286 -923.6935765)
(5306.367489 50.58159343 -934.2316234)
(5306.937672 51.6573617 -945.2221586)
(5296.730612 53.25331807 -957.4413586)
(5287.044433 54.50575602 -964.543822)
(5278.192477 55.0805465 -965.7399377)
(5276.685643 55.2721938 -962.5553537)
(5770.328075 21.38977896 -295.5937981)
(5727.758097 26.17038612 -340.3850312)
(5693.251805 30.0539301 -382.7194373)
(5657.839037 34.33538811 -428.1589145)
(5617.171781 39.21894403 -478.418802)
(5564.352691 45.29133641 -540.3417232)
(5497.662417 51.66294165 -617.2595702)
(5457.042312 57.46243585 -673.0318186)
(5420.325748 63.04902355 -726.1864995)
(5388.540296 67.82311281 -774.8017076)
(5361.194836 72.5579059 -818.6208573)
(5339.089279 76.6563393 -856.3372861)
(5322.153616 80.32833787 -887.4422036)
(5323.274879 83.90509235 -903.7907328)
(5319.865242 85.45743059 -920.8351431)
(5315.117755 86.44597193 -935.5156122)
(5303.073711 88.9545083 -949.1072022)
(5293.076332 90.8180482 -956.7971186)
(5289.908764 91.39057689 -958.7515116)
(5287.128626 89.19177252 -956.593993)
(5778.543581 32.29045878 -284.0991214)
(5736.770387 37.50078442 -329.0857039)
(5701.669254 42.43289902 -373.5752807)
(5664.913282 47.84741862 -420.6034382)
(5628.081652 53.84882366 -468.7706466)
(5579.442793 61.33392191 -527.0160602)
(5524.001933 70.94219323 -592.7042772)
(5470.33475 78.82279453 -660.270167)
(5434.213587 86.26855588 -713.0304486)
(5402.351175 92.99599185 -761.0381457)
(5375.187051 99.22843457 -804.286879)
(5352.382039 104.9648671 -842.5555717)
(5335.18615 110.0642947 -873.8881629)
(5337.669538 113.5906347 -890.6563119)
(5334.643491 117.3405835 -907.8667051)
(5325.215883 119.2850945 -924.6501731)
(5312.591066 123.2860102 -939.358377)
(5301.670979 125.9341055 -948.0191201)
(5301.367775 127.8945733 -949.9734398)
(5786.360757 38.12918347 -280.6504773)
(5744.616396 45.54196553 -325.3721904)
(5708.965498 52.39813501 -368.1169808)
(5673.478806 59.45192846 -412.9607348)
(5637.802142 66.89078831 -459.98756)
(5600.456471 75.3169447 -508.5021785)
(5554.875791 85.58311221 -565.4700794)
(5502.733732 97.09665946 -629.0598631)
(5453.647445 107.0519393 -692.1465475)
(5421.701404 115.7946635 -740.0322759)
(5394.535704 124.0300725 -783.3080468)
(5386.986494 131.0234608 -811.6749653)
(5372.133876 137.8681885 -841.8791644)
(5360.882944 142.0388921 -867.8463365)
(5351.507978 146.4951897 -890.529838)
(5336.853266 152.3674684 -911.3523529)
(5324.021026 156.6964677 -926.5796887)
(5313.004867 160.1911721 -935.9333875)
(5311.636492 162.6846494 -939.1955288)
(5758.759986 54.25485385 -314.7701279)
(5718.105253 63.16221389 -358.1204071)
(5684.399944 71.54618742 -401.1371953)
(5649.494234 80.73600909 -447.4570826)
(5615.5165 89.97874384 -494.3475044)
(5579.380153 100.1555993 -543.2588117)
(5536.305385 112.270395 -598.6345954)
(5497.025107 124.2339403 -652.2816124)
(5466.569645 134.4553499 -698.8957284)
(5438.953736 144.4583911 -742.7622861)
(5418.233279 152.9419836 -781.4779885)
(5401.509004 161.5686816 -814.8067942)
(5386.379551 167.9918693 -843.8527198)
(5369.397734 174.0521211 -870.6727173)
(5352.145956 181.2799426 -893.4507421)
(5338.633315 186.8725257 -909.9082851)
(5332.056332 190.2331328 -919.5574543)
(5327.050964 191.6788441 -925.1531587)
(5776.463411 61.2860249 -294.8562036)
(5734.603773 71.28571806 -341.9020444)
(5700.102987 80.66348302 -385.8507676)
(5666.474025 90.76253329 -430.3542907)
(5632.591642 101.7252368 -476.8911443)
(5599.992255 112.9610048 -523.8992114)
(5566.852858 124.7245813 -571.0979766)
(5533.423741 137.5684958 -619.32418)
(5504.422363 149.3591289 -663.5085598)
(5477.537721 160.6322887 -706.5237137)
(5452.839236 171.1868818 -746.9635539)
(5429.603063 181.1076497 -784.2825634)
(5407.406259 191.6136917 -818.3068531)
(5388.80813 200.2475102 -846.4038443)
(5372.127076 208.1033703 -869.2791242)
(5363.815731 213.2401727 -885.1556425)
(5357.734755 216.5795208 -896.9916246)
(5755.153821 78.05495999 -327.508628)
(5714.253695 90.97341513 -373.4107838)
(5680.540591 102.4383007 -417.3630029)
(5649.20318 114.062546 -460.8274776)
(5617.502254 126.5439769 -505.9849117)
(5586.040589 139.4827493 -551.2931576)
(5555.886339 152.6949086 -596.0736743)
(5527.159116 165.792906 -639.6264269)
(5499.513797 178.8400856 -682.256703)
(5474.531545 191.2111513 -721.9442602)
(5451.017377 203.3677636 -758.8923393)
(5429.050401 214.8166351 -792.5428176)
(5409.500005 225.4232137 -821.483251)
(5399.131723 232.7219155 -842.5037697)
(5392.875706 237.6947802 -859.1504271)
(5734.353445 97.48968328 -366.1379366)
(5696.052494 111.6484957 -407.686995)
(5664.530291 124.7170902 -449.0630648)
(5634.869807 138.2006681 -490.874199)
(5605.234783 152.0906158 -533.567976)
(5576.617836 166.3249516 -575.1335191)
(5548.898882 180.7851761 -616.8673451)
(5522.173646 195.2174606 -657.225133)
(5497.146654 209.1328738 -695.9976938)
(5473.24417 222.9779466 -732.8417126)
(5450.563692 236.0180455 -767.0826377)
(5438.029988 245.4028748 -792.7688468)
(5430.426792 252.8276277 -813.2800765)
(5726.466086 116.4163509 -376.244482)
(5697.688862 129.4040956 -412.5961069)
(5661.534503 146.2074365 -457.0294792)
(5630.195719 161.9439637 -500.9700762)
(5602.212543 177.5894591 -543.18608)
(5574.772682 193.3485207 -584.5016041)
(5548.476394 209.1648875 -625.2108532)
(5523.72846 224.3694965 -664.0430752)
(5508.761301 236.4849894 -696.294298)
(5490.501787 248.9203748 -729.4230478)
(5474.79296 260.1682952 -757.1959232)
(5693.807221 150.9083759 -431.1775075)
(5663.165497 166.8135214 -471.4246557)
(5639.57691 181.6735964 -509.1277936)
(5614.736812 197.1448644 -547.8534484)
(5588.218737 214.1117522 -588.0872092)
(5562.506401 231.0777607 -627.2312805)
(5545.742425 244.6073128 -658.862687)
(5833.921733 6.866706197 -201.8314503)
(5789.218567 5.747612032 -244.5618379)
(5753.709962 5.696485439 -283.7351749)
(5698.976625 6.901249105 -338.498754)
(5623.244038 8.329745772 -413.9428049)
(5566.656087 9.361666655 -476.8473855)
(5509.739101 10.44318295 -542.6753593)
(5454.935161 11.29062798 -609.2385356)
(5403.202073 12.4680508 -675.046016)
(5354.967273 13.63345824 -738.3683098)
(5312.31058 14.34355167 -797.4944866)
(5276.14908 15.48689062 -850.3673796)
(5246.057186 16.39606323 -896.863367)
(5222.125829 17.49103941 -935.6930973)
(5204.735471 18.11183047 -965.7363499)
(5192.912898 18.65475951 -987.4803978)
(5185.857783 19.20064322 -1001.634799)
(5183.076343 19.3566754 -1008.163368)
(5183.550149 19.62073606 -1008.321949)
(5186.341451 19.80854224 -1003.371279)
(5190.931079 19.94938071 -993.5740236)
(5196.923787 19.99198496 -979.8625123)
(5213.431911 19.59953949 -962.4256021)
(5219.497612 19.48915362 -945.6522009)
(5822.64048 8.437128834 -215.2725004)
(5783.220051 11.45951807 -253.8185471)
(5748.738142 13.81685861 -290.4009459)
(5694.732609 16.50197963 -344.370357)
(5617.009778 20.59962334 -421.0446359)
(5560.789935 24.21035195 -482.7832008)
(5505.809521 27.82845764 -546.4824241)
(5452.011518 31.67792096 -611.3098599)
(5401.219145 35.62452003 -675.3271106)
(5354.746683 39.46882387 -736.8044715)
(5313.067824 42.77122525 -794.1668181)
(5278.056359 46.12548963 -845.9433923)
(5248.949424 49.55924065 -891.4457334)
(5225.664418 51.93448387 -929.2172284)
(5209.127406 54.07924508 -958.6897579)
(5197.297076 56.21177649 -980.7117894)
(5190.36915 57.62393733 -994.9875979)
(5187.238872 58.60513966 -1002.167596)
(5187.618177 59.47900912 -1002.812991)
(5190.270728 59.97498018 -998.2258162)
(5194.982045 59.98576877 -988.811536)
(5200.757455 59.76907556 -976.0932259)
(5216.664934 58.81140865 -959.5230082)
(5222.682528 58.418576 -943.0118796)
(5831.514429 17.64029049 -205.9018513)
(5790.507936 20.73468433 -245.7568001)
(5755.190203 23.42991569 -284.0774208)
(5701.783524 28.06629573 -337.5192613)
(5628.339125 35.06465715 -410.2481391)
(5572.34824 40.52685367 -472.2974234)
(5516.702067 46.17001968 -536.6365165)
(5462.462821 52.12671091 -601.682914)
(5411.187951 58.09136703 -665.9670778)
(5364.740287 64.25770011 -727.7320064)
(5322.93049 69.8951459 -785.5408061)
(5287.263894 75.61392866 -837.6043804)
(5258.013305 80.69180695 -882.9752638)
(5234.389601 84.77064647 -921.0458983)
(5217.484104 88.63705972 -950.91073)
(5205.935056 91.6619221 -972.8208049)
(5198.84578 94.11773531 -987.1500159)
(5195.912073 96.24581709 -994.4870341)
(5196.139115 97.53427282 -995.3400668)
(5198.626763 98.23983907 -991.200464)
(5202.78133 98.4108841 -982.548444)
(5219.127611 99.98518001 -967.7369799)
(5227.463875 98.75026886 -953.4718867)
(5229.724494 96.88311062 -938.2985757)
(5836.059134 24.34016314 -201.2444471)
(5796.698254 28.6797546 -239.549206)
(5762.718384 32.92784545 -275.691323)
(5711.659254 39.27759129 -327.3448901)
(5641.000446 48.05886208 -398.1079686)
(5586.763992 55.651426 -458.4527576)
(5532.511757 63.50643577 -520.9346205)
(5479.956121 71.56465627 -584.7111064)
(5429.790398 79.58132709 -647.6663978)
(5383.468161 87.94557528 -709.0383057)
(5342.810265 95.56305515 -766.0632598)
(5307.513894 103.0819015 -817.3650439)
(5277.477956 109.920281 -863.1152259)
(5254.010854 116.2603413 -901.5630674)
(5236.87112 121.5440556 -931.7638401)
(5223.843736 126.2889956 -954.8747075)
(5215.58884 129.7629265 -970.6524577)
(5211.263636 132.7006227 -979.523147)
(5210.676528 134.5853533 -982.0191676)
(5212.43388 135.7987787 -979.244272)
(5216.281587 136.2838125 -971.9844072)
(5232.736286 136.1743717 -958.26804)
(5240.619389 136.8216961 -945.5753507)
(5239.051378 134.5925556 -931.6426907)
(5847.186009 25.8975723 -191.5973163)
(5805.043019 32.25496139 -232.7329643)
(5768.138593 38.31397896 -272.3678131)
(5722.463417 46.15265451 -319.265925)
(5665.010497 56.77189983 -377.7806472)
(5599.758821 67.16854272 -446.640428)
(5546.629402 77.38217483 -508.2265544)
(5494.791681 88.19312374 -570.2972006)
(5446.169306 98.76277556 -632.1001342)
(5400.973773 109.3843381 -691.8561803)
(5360.776111 119.7777001 -748.2384689)
(5325.221695 129.6103029 -799.8659585)
(5296.13655 138.5876595 -844.7842832)
(5272.653752 146.8963525 -882.6750909)
(5254.051625 154.0580205 -913.8936668)
(5241.611121 159.6676155 -937.039187)
(5233.384702 164.6984122 -953.3029278)
(5228.498386 168.4709083 -963.178285)
(5227.099355 171.3681304 -966.9934907)
(5227.928446 173.1096886 -965.5326929)
(5231.237678 173.8324118 -959.2301714)
(5246.459173 172.4775967 -947.2665996)
(5253.215243 172.4375801 -935.7715942)
(5249.900285 172.7170479 -922.3793639)
(5820.507511 43.94318813 -218.2815128)
(5778.670997 50.20927711 -260.7251154)
(5741.982596 57.34729385 -300.8877606)
(5691.403957 68.15497442 -353.3962511)
(5623.913006 81.34980312 -423.2686636)
(5571.384333 93.33774364 -482.9672497)
(5520.895214 105.5111682 -543.4516018)
(5472.743633 118.2499606 -604.0603273)
(5427.86769 130.4475926 -663.3079245)
(5387.322294 142.307353 -719.1865021)
(5351.888478 153.8680619 -770.5898806)
(5321.961004 164.7114018 -816.026837)
(5297.759398 174.4898218 -855.3015353)
(5278.881323 182.9920293 -887.4316756)
(5264.769941 190.3255272 -912.0664844)
(5255.383672 196.2612829 -929.7246544)
(5249.61391 201.1334309 -941.1442891)
(5247.341569 204.6021818 -946.5665005)
(5247.772571 207.2322754 -946.6823032)
(5260.100499 208.7136053 -938.5315344)
(5266.038098 208.2058545 -931.4194037)
(5267.156207 207.5545222 -923.1224496)
(5262.90906 208.3741944 -910.797995)
(5823.520854 44.82349676 -221.4156214)
(5782.526722 54.32531667 -261.5435278)
(5747.919716 62.95821755 -299.4067759)
(5703.598948 74.20349014 -345.8061997)
(5647.527091 88.76382675 -403.6217228)
(5585.87564 104.6320283 -469.8216232)
(5537.526178 119.0074425 -526.6715513)
(5491.452445 133.4036515 -584.1461575)
(5448.792962 147.7014751 -639.716208)
(5410.196426 161.8223741 -693.1408775)
(5375.958021 175.4239467 -742.4592977)
(5347.369126 187.8827979 -786.6073909)
(5323.779988 199.188057 -825.2187598)
(5304.666236 209.3065962 -857.357574)
(5290.323444 218.0455371 -882.730615)
(5280.223246 225.0714132 -901.688383)
(5274.079115 230.8774276 -914.3446756)
(5271.131798 235.5712972 -921.6342223)
(5282.703775 238.0084268 -918.0744292)
(5287.722389 239.9102046 -915.6750202)
(5288.037971 241.5557028 -912.9545323)
(5283.16311 241.5706539 -907.9236648)
(5282.356873 242.7403357 -898.0277956)
(5798.965658 59.4675192 -251.1763487)
(5759.568689 69.66018542 -290.7318822)
(5726.249359 80.32334522 -327.9257965)
(5681.54585 94.13572511 -375.9232107)
(5627.402534 110.8123512 -433.7180307)
(5568.284121 128.3291323 -498.9433646)
(5523.160208 144.6405377 -554.1608817)
(5480.761327 160.8121821 -608.4000417)
(5442.91387 176.4963246 -659.8011193)
(5408.777079 191.862009 -708.3469448)
(5379.349391 206.4766623 -752.4899391)
(5354.982107 219.4942652 -791.0659797)
(5335.463674 231.2086977 -823.6913532)
(5319.942775 241.6950301 -850.5654744)
(5309.21369 250.6187235 -870.8793688)
(5301.596308 257.9931103 -885.7548467)
(5310.859068 262.0441327 -888.0130348)
(5313.89848 265.5487503 -891.1991203)
(5313.106852 269.0830742 -893.9755148)
(5306.747123 271.5741559 -895.1703768)
(5303.316712 273.8633888 -891.3435158)
(5302.902612 274.1715285 -884.8500754)
(5815.559842 64.22584367 -235.5221781)
(5776.657069 76.28649857 -274.8024578)
(5742.956236 87.61708246 -312.3642346)
(5709.793413 100.0573046 -350.8489671)
(5665.229016 115.9709707 -400.5159176)
(5612.956741 134.9876214 -457.7650639)
(5557.936222 154.8088919 -520.4934167)
(5517.604411 172.2007746 -572.2371467)
(5479.733595 189.7961217 -622.8866918)
(5446.143094 206.5702484 -670.3159594)
(5416.33545 222.6039036 -714.259409)
(5391.901885 237.433979 -752.5709924)
(5371.666136 250.7124218 -786.4405652)
(5355.384147 262.4826669 -814.7219902)
(5343.564791 272.5732162 -836.590962)
(5347.973757 279.0118009 -845.4514148)
(5347.960207 284.7087313 -854.3606706)
(5344.816309 290.1457224 -863.0893347)
(5336.755777 294.6983697 -870.6556039)
(5327.037285 300.178648 -873.4608121)
(5326.331888 302.7937377 -871.6137431)
(5802.993841 78.50264312 -251.9571175)
(5762.933412 92.77892646 -292.8714465)
(5731.007469 105.5716168 -330.9665498)
(5697.934811 120.1340205 -370.6013534)
(5656.86312 138.3463342 -418.549218)
(5615.091177 157.0054155 -468.043576)
(5571.53787 176.894182 -520.0455924)
(5522.559033 198.5199948 -579.4580532)
(5489.437652 216.6936249 -625.2603462)
(5460.119383 234.3099221 -668.0101951)
(5435.297322 250.4062385 -706.2774861)
(5414.444354 265.156295 -740.0776237)
(5412.192998 275.0289035 -758.7737486)
(5402.583188 285.9125409 -779.6824433)
(5393.817568 294.9421986 -799.202835)
(5386.290781 303.7691256 -815.7636544)
(5375.295367 311.2528274 -829.9760447)
(5363.172294 319.3909648 -840.3720331)
(5356.761144 323.9119891 -845.6126635)
(5351.971698 326.4818346 -847.3814202)
(5792.623086 94.80733024 -267.5164108)
(5752.561122 111.5650603 -308.9734725)
(5720.008309 126.4249602 -349.6054644)
(5688.997731 142.1805828 -389.081672)
(5655.835501 159.8695331 -431.046194)
(5617.900716 179.3533599 -478.0547855)
(5580.836536 199.9537165 -525.6769451)
(5551.713236 217.9877341 -567.3748982)
(5523.91705 236.0139841 -607.8941136)
(5498.683681 253.6715163 -646.1290852)
(5475.781797 270.4364185 -681.308834)
(5459.418702 284.5755026 -711.7135762)
(5447.151612 297.891374 -736.7372659)
(5433.291763 309.227626 -759.7916999)
(5417.667591 320.9210743 -781.7632867)
(5402.97412 332.7930691 -798.6516345)
(5394.315251 339.9944141 -809.9411997)
(5388.132079 344.8451421 -817.7830731)
(5777.772805 113.7417724 -293.7588478)
(5741.593178 130.4506878 -332.9056379)
(5711.385198 146.2999626 -371.2045954)
(5683.693399 162.6300612 -407.7632672)
(5654.92401 180.2661325 -446.4619816)
(5625.978643 199.2360647 -485.7157737)
(5599.871078 217.3151672 -523.0361903)
(5573.963817 236.1035515 -561.6193235)
(5549.432239 254.3494077 -597.5803004)
(5526.151627 272.2554548 -632.8045558)
(5504.747211 289.1409035 -665.5790892)
(5484.208828 305.3899391 -696.1616212)
(5464.876364 321.8622009 -723.2210735)
(5453.91197 333.2284244 -743.6928096)
(5441.055887 344.4542823 -762.733804)
(5427.452236 354.8346343 -778.5371817)
(5774.981716 126.3300041 -301.1899535)
(5748.102332 142.191206 -332.6440188)
(5714.972579 162.6059927 -373.423501)
(5683.790553 182.0093717 -413.8386123)
(5658.290858 200.6828393 -449.8907175)
(5631.459293 220.579088 -488.5800625)
(5606.41644 239.9716713 -524.871132)
(5581.884967 259.6069623 -561.1043894)
(5558.254397 278.9493794 -596.2355532)
(5536.674613 297.5805208 -629.0771518)
(5522.842499 312.46151 -656.2904379)
(5507.47069 327.5913734 -682.4454162)
(5493.708709 341.2500148 -704.8767555)
(5746.091482 164.7156713 -349.6162735)
(5719.349298 182.1429862 -382.712917)
(5697.684835 198.7798207 -413.9141183)
(5674.555707 217.6020531 -448.8217663)
(5651.383629 236.6408691 -483.005652)
(5627.330994 256.7191317 -518.3263689)
(5603.333883 277.0406419 -552.9020982)
(5579.826257 297.4865874 -586.6777814)
(5565.298235 313.4730341 -613.2702217)
(5886.984763 4.592453555 -138.2861303)
(5849.718311 2.563058348 -171.6793138)
(5815.321246 2.343074289 -203.8731811)
(5763.416014 3.134063173 -250.3330419)
(5686.958625 5.050692432 -318.9387011)
(5625.44432 6.044151746 -379.5262577)
(5561.203006 7.167203596 -444.7572685)
(5495.997555 8.493628701 -513.5761215)
(5431.218559 9.737580359 -585.0918212)
(5368.017613 11.32292218 -657.724795)
(5309.145382 13.01420146 -728.8866263)
(5254.912051 14.49213631 -796.9867063)
(5208.083975 15.98650636 -859.7869692)
(5168.902673 17.19376257 -914.9430104)
(5137.9325 18.57616346 -961.4711693)
(5114.134925 19.72259629 -999.4373608)
(5098.242554 20.64573985 -1027.029151)
(5088.849495 21.32859801 -1044.737011)
(5085.085164 21.82523826 -1053.5912)
(5085.730457 22.05507802 -1054.012925)
(5089.658247 22.05892795 -1047.191969)
(5095.44046 22.15525114 -1034.783324)
(5103.281087 22.12677491 -1017.31164)
(5112.497938 21.93747647 -996.0374074)
(5122.105382 21.65769078 -972.3625878)
(5131.945508 21.41051824 -946.4946913)
(5141.535048 21.18156554 -919.3488106)
(5873.122345 4.677846731 -150.6402535)
(5842.674601 8.082832285 -177.0992538)
(5813.463669 10.47406543 -205.2223257)
(5762.687739 13.1295977 -250.6824122)
(5686.540189 16.87810524 -317.912773)
(5625.587299 20.44638873 -377.1121083)
(5562.642951 23.98199387 -441.3364183)
(5497.594173 28.27973324 -510.0278521)
(5432.827177 32.44598291 -581.1936546)
(5369.954324 36.49891476 -654.024541)
(5310.217466 40.69325574 -726.3826053)
(5256.329167 44.87159412 -794.8125225)
(5208.814989 48.65181351 -857.7757468)
(5169.324082 52.67016659 -914.077252)
(5138.154248 55.87447446 -961.2542015)
(5114.974311 58.51268174 -998.6617529)
(5099.023563 60.97306627 -1026.066562)
(5089.958871 62.79567553 -1043.782334)
(5086.073701 63.87338902 -1052.477825)
(5086.64901 64.71654906 -1052.84524)
(5090.810106 65.38821494 -1046.217738)
(5097.398601 65.32480867 -1033.451208)
(5105.622493 65.14330759 -1016.089788)
(5114.577217 64.4646001 -995.1317764)
(5124.421349 63.5609032 -971.1624293)
(5134.220575 62.81858318 -945.3742597)
(5143.909775 61.89177022 -918.325964)
(5889.846131 15.69068207 -137.174242)
(5855.561356 18.76594491 -167.2118845)
(5821.208511 20.53024999 -199.1925365)
(5770.06451 23.72463549 -244.8405435)
(5695.565471 30.11142759 -311.1635189)
(5634.958188 34.9825178 -370.180182)
(5571.526812 40.2536768 -434.0151311)
(5507.761354 46.15069133 -501.7182461)
(5443.470951 52.20899164 -572.26198)
(5381.511062 58.32794213 -643.9195817)
(5323.239981 64.75831636 -714.200591)
(5269.712408 71.32771111 -781.7215613)
(5223.02933 77.39755472 -844.1816977)
(5183.706511 83.35420346 -899.7809633)
(5152.464808 88.96541422 -946.6767067)
(5128.053807 93.55435888 -984.8226232)
(5111.82473 97.23478798 -1013.061662)
(5101.903263 100.6504919 -1031.79877)
(5097.559734 102.8272122 -1041.056806)
(5097.54844 104.5865041 -1042.293015)
(5100.994193 105.5187159 -1036.566226)
(5107.051208 105.7781855 -1025.320035)
(5114.505484 105.3902453 -1009.005245)
(5123.272713 105.0020947 -988.8273317)
(5132.417241 104.2838106 -965.9323894)
(5142.152786 103.0151534 -941.0209122)
(5151.734541 101.4827444 -914.7373987)
(5863.168036 20.5186317 -161.8107584)
(5823.801333 24.14079401 -196.6901033)
(5776.71383 29.28537173 -239.6483834)
(5707.346696 37.01477896 -301.6673494)
(5649.714466 43.77297004 -357.8558107)
(5589.052442 51.71214739 -419.117154)
(5527.54639 59.99287421 -484.0237442)
(5465.600636 68.92081175 -551.7217219)
(5405.251685 78.02438555 -621.3706681)
(5347.865548 87.51321727 -690.1696545)
(5295.099568 96.89331709 -756.6731491)
(5248.00379 105.7285078 -818.3064669)
(5208.771532 114.1475373 -873.1514874)
(5176.815952 121.8145471 -920.8891671)
(5151.944991 128.4027237 -959.7945703)
(5134.53222 133.9673725 -989.0038223)
(5123.672153 138.4789325 -1009.098194)
(5117.531643 141.996138 -1020.621353)
(5116.104768 144.4180249 -1024.187347)
(5118.688395 146.0098175 -1020.238531)
(5123.290121 146.5226895 -1010.739361)
(5130.210224 146.2432581 -996.104485)
(5137.959436 145.4828966 -977.7503387)
(5146.482257 144.4393787 -956.3714578)
(5155.235783 142.9036796 -933.017699)
(5164.275172 140.9099084 -908.0551811)
(5861.855863 20.68757191 -162.6011012)
(5827.494365 27.22616471 -193.2175412)
(5785.929528 34.14718736 -231.5168862)
(5729.615717 43.29993559 -282.7456813)
(5662.350234 53.20697018 -345.4297067)
(5603.232887 63.30922704 -404.9385838)
(5543.419917 74.31609899 -468.0915916)
(5482.856773 85.98965001 -534.5276247)
(5423.124588 98.055632 -602.3640279)
(5366.345059 109.9934606 -670.1457962)
(5315.02021 121.4389662 -735.1076816)
(5268.647276 133.1636314 -796.3734344)
(5229.243272 143.7479651 -851.5198723)
(5197.157686 153.348921 -898.9793667)
(5172.675936 162.1183458 -937.7374446)
(5154.545033 169.6775204 -968.0465258)
(5142.942118 175.5809454 -988.923499)
(5137.023444 180.0432077 -1001.241226)
(5134.870619 183.4230712 -1006.381594)
(5136.254394 185.3268123 -1004.466456)
(5140.450879 186.1005291 -996.3374092)
(5146.617006 186.2653501 -983.1741186)
(5153.987738 185.610259 -966.3923756)
(5162.035415 184.1204005 -946.5737856)
(5170.368381 182.300322 -924.5852291)
(5179.117485 180.1810329 -900.8921632)
(5870.749647 29.97777888 -155.8477281)
(5834.122711 34.79759148 -189.9550784)
(5799.800272 40.69205632 -222.810788)
(5748.409212 49.89309157 -269.969838)
(5676.142017 63.48217281 -336.2293578)
(5617.794844 75.12649686 -394.7253298)
(5559.137409 87.66639114 -456.1265415)
(5500.699412 100.5431811 -520.2869476)
(5442.881427 114.618688 -585.8767824)
(5387.672074 128.7519579 -651.5112842)
(5337.690992 142.9699208 -714.4443064)
(5293.124108 156.6213087 -773.7174026)
(5254.477257 169.6055454 -827.5021921)
(5223.024874 181.4706399 -874.1206335)
(5198.264691 192.1330952 -912.9480344)
(5179.794673 201.2843158 -943.295604)
(5167.198234 208.5841001 -965.1684946)
(5160.106055 214.4138775 -978.988197)
(5156.976423 219.033107 -985.2600808)
(5157.688332 222.1479387 -984.8257762)
(5161.021607 223.9512373 -978.7508424)
(5166.064656 224.2753347 -967.8553637)
(5172.873472 223.6958345 -952.9300411)
(5180.299474 222.3967785 -935.0167582)
(5188.096591 220.5451734 -914.830859)
(5196.281176 217.727151 -892.685418)
(5894.283315 23.0936631 -135.8219833)
(5858.676231 33.1992862 -167.2971825)
(5823.33485 42.81305626 -201.7282439)
(5777.044146 53.00103386 -245.2375493)
(5718.865437 66.20922253 -299.8342868)
(5652.298016 81.16309088 -364.5030233)
(5593.974018 96.01853024 -425.335012)
(5535.657332 111.618229 -489.1783632)
(5478.916606 128.0030658 -554.0552646)
(5424.568301 144.7310414 -618.7493453)
(5373.517416 161.6283093 -681.857439)
(5327.96925 177.8144422 -741.1469306)
(5289.075714 193.2495764 -794.8768356)
(5256.04884 207.3828566 -842.3334063)
(5229.770833 220.1392065 -882.405484)
(5209.746161 231.1100456 -914.1933598)
(5195.804025 240.2526398 -937.7885727)
(5187.436938 247.6087899 -953.318879)
(5183.298724 253.2210541 -961.5078958)
(5182.399546 257.1186014 -963.4722299)
(5184.355812 259.609911 -959.3427049)
(5188.871922 260.8116923 -950.396114)
(5194.480695 260.7229919 -937.7855162)
(5200.858727 259.1691945 -921.6877206)
(5208.087797 256.9954648 -903.1740804)
(5223.811236 255.591931 -883.4645511)
(5856.205141 41.86738157 -173.3547864)
(5818.576923 50.31827579 -208.7279272)
(5784.806004 59.43088244 -242.0240659)
(5734.418433 72.59190857 -289.684174)
(5663.737472 90.93081642 -355.5033311)
(5609.445157 106.8710906 -411.6694956)
(5554.451774 124.1965848 -471.3006966)
(5501.083158 141.7337552 -532.1158374)
(5449.537209 159.840304 -593.1572289)
(5400.88819 178.1404556 -652.716148)
(5357.217496 196.42847 -709.3789246)
(5319.281491 213.393774 -761.5835114)
(5286.69051 229.6076458 -808.7370639)
(5260.963036 243.7277278 -848.400787)
(5240.73478 256.3647323 -880.7571259)
(5225.769135 267.3993924 -905.5105206)
(5216.329859 276.4554129 -923.2106023)
(5210.901657 283.3529461 -933.2943617)
(5209.410449 288.2060323 -937.1215067)
(5210.340553 291.4102148 -935.5038726)
(5213.609096 293.1315381 -929.2521366)
(5218.33842 293.5223283 -918.9265741)
(5224.042957 292.9972624 -905.1781689)
(5240.561975 291.3692863 -887.3727731)
(5248.326391 289.7485958 -870.64657)
(5869.306826 46.35984534 -161.4178352)
(5835.600882 56.3241255 -192.0132198)
(5804.384343 66.0183846 -223.513917)
(5761.253538 78.70422785 -265.5455893)
(5706.20659 95.97511022 -318.1527111)
(5643.284667 115.3997731 -379.992532)
(5591.56242 133.6446215 -436.3571942)
(5539.818384 152.8204086 -494.382496)
(5490.090755 172.4064522 -552.9402219)
(5443.775282 191.8083226 -610.1144673)
(5400.632147 211.4638057 -665.3525379)
(5362.054304 230.2184377 -716.7748041)
(5329.28464 247.8044673 -763.1343022)
(5302.652582 263.9856452 -803.2504624)
(5281.695603 278.2172164 -836.8265446)
(5265.335195 290.5665021 -863.8039048)
(5254.256372 300.7363038 -882.8212099)
(5246.979067 309.0078692 -896.0637174)
(5243.332696 315.1030254 -902.8241745)
(5242.924779 319.2647952 -904.2751732)
(5244.410492 321.8160814 -900.8750807)
(5247.733179 322.918802 -893.4922476)
(5252.215566 322.9093344 -882.9276948)
(5267.420339 320.365325 -868.2620623)
(5274.315693 319.1506299 -853.8083531)