/*--------------------------------*- C++ -*----------------------------------*\
| =========                 |                                                 |
| \\      /  F ield         | OpenFOAM: The Open Source CFD Toolbox           |
|  \\    /   O peration     | Version:  v1706                                 |
|   \\  /    A nd           | Web:      www.OpenFOAM.com                      |
|    \\/     M anipulation  |                                                 |
\*---------------------------------------------------------------------------*/
FoamFile
{
    version     2.0;
    format      ascii;
    class       volVectorField;
    location    "3.2711";
    object      U_N2;
}
// * * * * * * * * * * * * * * * * * * * * * * * * * * * * * * * * * * * * * //

dimensions      [0 1 -1 0 0 0 0];


internalField   nonuniform List<vector> 
60268
(
(5681.821331 6.759532776 -445.9403037)
(5637.62338 7.963165697 -499.939834)
(5605.541068 9.017382103 -546.7161314)
(5572.487378 9.843214712 -596.615778)
(5540.836777 10.56224775 -645.2781198)
(5510.392614 11.75526537 -692.9634139)
(5481.165985 12.50563303 -739.514828)
(5453.477944 13.53983573 -784.2736368)
(5428.405838 14.23143934 -824.9384876)
(5405.372673 15.14007048 -862.1570999)
(5399.215539 15.64425173 -886.1648671)
(5690.113984 18.48372752 -438.9971933)
(5642.017581 22.55384602 -494.7431934)
(5605.490939 25.18911132 -545.5472342)
(5573.700291 28.31830701 -592.2559105)
(5543.1329 30.75058568 -640.0979581)
(5513.080249 33.55996162 -688.5006195)
(5483.681507 36.69788223 -735.8872639)
(5456.105138 39.01484554 -780.4745074)
(5431.332117 41.9610541 -821.3974098)
(5408.269821 44.24578097 -858.276629)
(5402.644109 45.73098914 -882.3781959)
(5655.459083 38.91289359 -481.6415189)
(5612.923541 43.08290827 -534.1151998)
(5581.429952 47.31462505 -583.4371767)
(5549.885052 52.09595817 -632.9157081)
(5519.626741 56.40930188 -680.7941921)
(5490.392369 61.0404424 -727.9578202)
(5462.934348 65.68068834 -773.0429383)
(5437.234599 69.7821076 -815.3376436)
(5423.725621 72.25141977 -847.5012912)
(5414.280577 72.90650067 -875.2933297)
(5667.699778 50.4080113 -475.1292467)
(5622.602992 58.32992691 -527.0773356)
(5588.869556 64.22525553 -575.9325966)
(5558.234231 70.5790932 -623.8846199)
(5527.541912 77.16124433 -671.7635139)
(5499.038367 83.55206681 -718.8249427)
(5472.532407 89.43247621 -762.2252773)
(5446.765376 95.60010047 -804.2220784)
(5438.541162 100.0158597 -832.7716763)
(5645.836353 71.39120466 -512.6120818)
(5600.091608 81.50190599 -564.9803046)
(5567.579069 89.34741515 -613.1333054)
(5537.448789 97.36594885 -661.5280261)
(5509.175885 105.3820762 -707.4655191)
(5493.484138 110.8075191 -743.7324557)
(5473.997754 116.4074531 -782.0079358)
(5456.086034 122.1747363 -816.4856367)
(5631.706286 93.19047831 -543.0558371)
(5595.125324 103.2023047 -592.8320209)
(5567.778389 112.23074 -636.7244993)
(5538.674957 121.7528204 -684.6892377)
(5523.026686 128.081542 -717.3858308)
(5760.882448 2.03892167 -309.5378141)
(5716.316944 4.296080663 -356.150714)
(5682.742479 5.361627619 -397.6833725)
(5644.97332 6.354248834 -444.3757445)
(5591.964713 7.336162138 -505.0701945)
(5521.996206 8.663107668 -584.1996456)
(5477.608222 10.0677118 -642.8055793)
(5437.078376 10.97652696 -699.5686255)
(5400.413624 11.90016516 -753.1180206)
(5369.129554 13.01107243 -801.5203269)
(5342.486088 14.10037151 -845.0464074)
(5320.790769 15.17078461 -882.49588)
(5303.998468 15.61253042 -913.5320346)
(5291.955792 16.49773106 -937.6257915)
(5301.453584 16.92884367 -946.4850032)
(5302.669533 17.49918662 -956.9602287)
(5292.763765 17.87069008 -968.2334745)
(5283.772331 18.07741982 -974.7400781)
(5275.64551 18.48179357 -975.2813266)
(5275.29248 18.50172072 -971.391822)
(5771.751076 15.81267654 -292.4366311)
(5726.623877 17.57284449 -342.2970625)
(5689.868262 19.45798512 -388.4793479)
(5652.839103 21.41244849 -437.0030241)
(5603.456263 24.39785653 -495.7026417)
(5545.630202 29.14308706 -562.8360059)
(5487.975146 31.83637119 -633.1137415)
(5446.357411 35.01328302 -690.709908)
(5409.559542 37.81838083 -744.8763564)
(5377.905809 40.89375648 -794.0592344)
(5350.901033 43.74032522 -838.1134405)
(5328.248344 46.29049859 -875.9726537)
(5311.516746 48.24039766 -906.8419952)
(5298.763558 50.12748087 -931.492888)
(5305.9671 50.83764395 -941.8068818)
(5306.93567 52.00607538 -952.42861)
(5297.054364 53.7224333 -964.1727577)
(5287.732754 54.91028403 -970.5813422)
(5279.084042 55.45632686 -971.1794499)
(5278.126216 55.61269404 -967.6274016)
(5768.088679 21.84824076 -301.0641459)
(5725.496489 26.56977978 -346.4051731)
(5690.531789 30.63582529 -389.4447028)
(5655.02316 35.01652712 -435.3327835)
(5614.247193 39.91639423 -486.1097839)
(5561.297446 46.02623637 -548.577359)
(5494.598419 52.37866851 -625.891203)
(5454.132814 58.28292058 -681.9618784)
(5417.858688 63.91959419 -735.0369048)
(5386.343339 68.75308597 -783.737372)
(5359.330742 73.42006956 -827.2563424)
(5337.566961 77.46060817 -864.9017698)
(5321.015979 81.21280534 -895.7108968)
(5322.560105 84.65022517 -911.6717573)
(5319.667974 86.21302839 -928.407974)
(5315.358055 87.09682246 -942.6897988)
(5303.463287 89.6108353 -955.874031)
(5293.676304 91.29659968 -962.9609832)
(5290.734072 91.86373369 -964.4446766)
(5288.413563 89.86446104 -961.6778415)
(5776.223711 33.01110534 -289.5918338)
(5734.251959 38.26494578 -335.026004)
(5699.009265 43.10325906 -380.1461292)
(5662.254487 48.72128046 -427.6392416)
(5625.21854 54.71598228 -476.3405831)
(5576.525074 62.26081804 -535.1553295)
(5521.027833 71.98446838 -601.4011683)
(5467.900668 79.81544162 -668.8921202)
(5431.626412 87.46844155 -721.9800157)
(5400.118386 94.24614331 -769.7085841)
(5373.130101 100.3563645 -812.9319741)
(5350.947236 106.0815252 -850.8945397)
(5334.124365 111.1927223 -882.0224202)
(5337.039926 114.7086985 -898.4218633)
(5334.504625 118.4140495 -915.2911574)
(5325.28563 120.2702768 -931.7267702)
(5312.878182 124.1916475 -945.9820667)
(5302.424603 126.8201053 -954.0479294)
(5302.331504 128.6296665 -955.5297363)
(5784.042545 38.97478007 -286.0403553)
(5742.182981 46.50097395 -331.2900147)
(5706.486392 53.36637647 -374.5810219)
(5670.809003 60.4401182 -419.9952528)
(5635.129743 68.06575283 -467.4251065)
(5597.713454 76.52183667 -516.3547548)
(5552.236664 86.85644106 -573.5589758)
(5500.220406 98.43199994 -637.6038642)
(5451.11554 108.4339783 -701.0031419)
(5419.470415 117.2181136 -748.9071937)
(5392.391232 125.5139508 -792.0405421)
(5385.222811 132.4437785 -820.2851178)
(5370.963383 139.3124334 -850.1364621)
(5360.138635 143.4370554 -875.7414928)
(5351.118788 147.863758 -898.1988142)
(5336.75801 153.7084037 -918.6183322)
(5324.303342 157.9714324 -933.3432809)
(5313.551081 161.4060029 -942.1228962)
(5312.675651 163.7423588 -945.077161)
(5756.508144 55.17539089 -320.6845454)
(5715.702815 64.19229804 -364.576291)
(5681.720338 72.79553046 -408.1184856)
(5647.001158 81.93482419 -454.7859844)
(5612.913903 91.35750965 -502.0181259)
(5577.146844 101.7137058 -551.0923019)
(5533.829053 113.9955463 -606.9603287)
(5494.667751 126.0152856 -660.7611885)
(5464.510652 136.2577559 -707.4259872)
(5437.176163 146.1942074 -751.354298)
(5416.943345 154.7052591 -789.7475935)
(5400.542377 163.3268529 -822.8976051)
(5385.763697 169.7037701 -851.7054111)
(5369.137252 175.747909 -878.120148)
(5352.228623 182.8409543 -900.48979)
(5338.813008 188.3532017 -916.4776397)
(5332.611224 191.6725225 -925.8149226)
(5327.87724 193.015512 -930.9621541)
(5774.082871 62.51390872 -300.6314887)
(5732.469672 72.51546643 -347.9585661)
(5697.749447 81.99365664 -392.3983609)
(5664.153036 92.28357646 -437.2962249)
(5630.200813 103.3799752 -484.2382815)
(5597.631663 114.6845233 -531.728991)
(5564.604007 126.5121 -579.1519911)
(5531.179424 139.4806884 -627.6227301)
(5502.529648 151.3345966 -671.9036994)
(5476.08851 162.6821242 -714.9752573)
(5451.661213 173.2064179 -755.359112)
(5428.585993 182.9943347 -792.5302384)
(5406.82049 193.504981 -826.2578817)
(5388.476459 202.2045464 -854.1227281)
(5372.263315 210.0300683 -876.4550677)
(5364.040965 215.2169797 -892.2329007)
(5358.330575 218.4253337 -903.7249549)
(5752.944068 79.45167177 -333.4415386)
(5712.055777 92.55589856 -379.9189382)
(5678.267343 104.025601 -424.2196343)
(5647.017244 115.779419 -467.9698019)
(5615.283894 128.5604755 -513.5529092)
(5583.933456 141.5704033 -559.1639317)
(5553.958795 154.8667106 -604.1160962)
(5525.329955 168.0122432 -647.745427)
(5497.881062 181.1425269 -690.4957237)
(5473.239585 193.5470868 -730.1660922)
(5449.946228 205.6628011 -767.0447617)
(5428.275689 217.037725 -800.4052459)
(5409.09975 227.624435 -829.0608553)
(5399.137697 234.7952537 -849.9944565)
(5393.115846 239.8178094 -866.4460256)
(5732.621836 98.99389497 -372.1193355)
(5693.846238 113.4273225 -414.2386446)
(5662.468096 126.8262413 -456.0050065)
(5632.782405 140.2850114 -498.232715)
(5603.105511 154.4472106 -541.2871392)
(5574.895918 168.5937083 -582.726995)
(5547.410547 183.1949163 -624.4708293)
(5520.670486 197.7782789 -665.1170501)
(5495.930219 211.6815689 -703.859657)
(5472.454762 225.514893 -740.6894553)
(5450.249187 238.447035 -774.6609544)
(5437.872124 247.7555634 -800.5118418)
(5430.477442 255.1397888 -820.9211842)
(5724.583622 118.387768 -382.6059935)
(5695.913588 131.529685 -419.1746083)
(5659.652218 148.5019896 -463.9921541)
(5628.189161 164.4135492 -508.4505736)
(5600.797538 180.159535 -550.6791444)
(5573.385178 195.8154252 -592.1974808)
(5547.260235 211.7818849 -633.0855303)
(5522.591529 227.0612541 -671.9866072)
(5507.817534 239.2419555 -704.2338108)
(5490.017944 251.6961715 -737.2312987)
(5474.462723 262.9563565 -765.1221648)
(5692.231172 153.2323651 -438.1135354)
(5661.575164 169.3799766 -478.7564505)
(5638.327361 184.4024425 -516.4647853)
(5613.569077 199.9880712 -555.5292804)
(5587.12396 216.9273004 -595.7889823)
(5561.696924 233.8072496 -635.0562305)
(5545.199846 247.4201501 -666.8376191)
(5831.645951 6.977094892 -206.2655568)
(5786.518299 5.877691234 -249.6111611)
(5750.946408 5.698412577 -289.1340959)
(5695.747235 6.987686027 -344.7905092)
(5619.350848 8.274635348 -421.2452994)
(5562.760299 9.399185814 -484.6426752)
(5505.668751 10.50895382 -551.2885941)
(5450.626145 11.3955607 -618.3676011)
(5399.114246 12.67943815 -684.3984693)
(5351.251776 13.79100691 -747.979612)
(5308.828001 14.38527989 -807.190716)
(5273.094659 15.53741419 -859.6966751)
(5243.493306 16.49267397 -905.8776531)
(5220.14699 17.59182518 -944.3470954)
(5203.229963 18.16377698 -973.7740558)
(5191.863479 18.73523637 -994.7988352)
(5185.104464 19.30801155 -1008.346229)
(5183.001125 19.52468577 -1014.146649)
(5183.751002 19.69343519 -1013.859715)
(5187.034791 19.90377381 -1008.197935)
(5191.915366 20.07813774 -997.7900853)
(5198.12565 20.05792274 -983.5565076)
(5214.778421 19.72725402 -965.7778957)
(5221.051602 19.71644541 -948.669133)
(5820.280137 8.630869001 -219.604516)
(5780.528789 11.73799897 -258.7491397)
(5745.663995 14.12568183 -295.9990891)
(5691.399471 16.80098041 -350.6784539)
(5613.310321 20.99794577 -428.1359155)
(5556.902109 24.57144239 -490.5197909)
(5501.645409 28.19493317 -555.0389092)
(5448.256658 32.17079912 -620.0444353)
(5397.684986 36.08588536 -684.3270391)
(5351.033659 40.07877472 -746.1919183)
(5309.83185 43.3162925 -803.5491418)
(5275.345097 46.71639655 -855.1414092)
(5246.918777 50.07593132 -900.1968771)
(5224.023833 52.47388171 -937.700407)
(5207.950911 54.47860548 -966.6056748)
(5196.48629 56.53810308 -988.0945801)
(5190.03661 57.95935037 -1001.769868)
(5187.216199 59.06888276 -1008.252917)
(5187.838966 59.92359802 -1008.333263)
(5190.934669 60.35935205 -1003.175247)
(5195.98398 60.27587929 -993.2121552)
(5202.067827 60.0778763 -979.8770848)
(5218.192282 59.09161843 -962.8645756)
(5224.364985 58.6158576 -946.0082066)
(5829.248404 17.97968197 -210.1683533)
(5788.13122 21.21648242 -250.5338208)
(5752.524703 23.9509216 -289.4295002)
(5698.51479 28.57693134 -343.7325304)
(5624.939934 35.66577739 -417.165359)
(5568.54886 41.3281333 -480.0881448)
(5512.336966 46.95847843 -545.2355827)
(5458.465341 52.90305999 -610.5402094)
(5407.295521 58.89738359 -675.203262)
(5361.242943 65.07814927 -737.027584)
(5319.953824 70.90666893 -794.6716274)
(5284.636984 76.57014128 -846.7176076)
(5255.680882 81.65198004 -891.7884846)
(5232.397702 85.6475832 -929.5517106)
(5216.091702 89.59182479 -958.8830805)
(5205.135372 92.33079664 -980.2023281)
(5198.503051 94.83854185 -993.8966649)
(5195.978524 96.91883766 -1000.539861)
(5196.515459 98.05324197 -1000.79526)
(5199.267846 98.65978576 -996.0477099)
(5203.595178 98.99060965 -986.861916)
(5220.32039 100.5928133 -971.6982247)
(5228.91864 99.29151256 -957.0870407)
(5231.40997 97.36931364 -941.4583107)
(5833.714902 24.69429892 -205.6168518)
(5794.433012 29.20464888 -244.290002)
(5760.040027 33.57854227 -281.0080553)
(5708.583214 40.00411241 -333.3998933)
(5637.651068 48.81638666 -404.9711571)
(5583.114041 56.65189296 -466.0047155)
(5528.751717 64.65186528 -529.0667866)
(5476.158428 72.6861968 -593.4921119)
(5426.084898 80.75119527 -656.7008896)
(5380.240142 88.99460149 -718.1157129)
(5339.697966 96.75680118 -775.2877977)
(5304.729016 104.3437267 -826.3632016)
(5275.010609 111.1627078 -871.9120624)
(5252.214097 117.6070973 -909.9392986)
(5235.547597 122.8029193 -939.6773508)
(5222.930696 127.4520242 -962.1466854)
(5215.192303 130.91254 -977.4296122)
(5211.280173 133.6451534 -985.610114)
(5211.168275 135.4541507 -987.6946415)
(5213.15446 136.6003047 -984.2771964)
(5217.197263 137.0654461 -976.4911447)
(5234.004904 136.9120711 -962.3444579)
(5242.067324 137.538551 -949.2766417)
(5240.665515 135.2473069 -934.8747341)
(5844.831276 26.47248259 -195.8981495)
(5802.681395 32.84820863 -237.3317669)
(5765.299519 39.04483951 -277.6599424)
(5719.637482 47.0264548 -325.0613625)
(5661.734407 57.79605718 -384.3877785)
(5596.085952 68.33042202 -454.0879727)
(5542.961205 78.51044253 -516.0945655)
(5491.195555 89.52802056 -578.5680589)
(5442.526723 100.2236593 -640.8082541)
(5397.647514 110.9230771 -700.7985105)
(5357.504491 121.4665756 -757.5597568)
(5322.33811 131.3633827 -808.9677726)
(5293.917927 140.1231596 -853.5011891)
(5270.675536 148.362095 -891.0333819)
(5252.553597 155.5764445 -921.8069108)
(5240.610084 161.2737889 -944.3529242)
(5232.787444 166.2541821 -960.1286446)
(5228.28435 169.8099517 -969.4476022)
(5227.257994 172.5396763 -972.7284856)
(5228.494549 174.2081941 -970.7628317)
(5232.095936 174.7809627 -963.8919088)
(5247.443933 173.4539377 -951.6916739)
(5254.472344 173.3008739 -939.7667734)
(5251.524231 173.4764293 -925.7014468)
(5818.241464 44.7664906 -222.8428025)
(5776.146597 51.1046059 -265.857657)
(5739.230937 58.37706492 -306.6614195)
(5688.340726 69.21158153 -359.8000933)
(5620.27375 82.6596802 -430.4807661)
(5567.714921 94.76936443 -490.7886661)
(5517.239138 107.057159 -551.8389324)
(5469.232023 120.1007878 -612.6799684)
(5424.572192 132.2571249 -672.2014858)
(5384.179758 144.155535 -728.2127527)
(5348.989259 155.8704708 -779.4262272)
(5319.231255 166.7822379 -824.8087682)
(5295.818158 176.3596011 -863.5371553)
(5277.522669 184.6934826 -895.2134801)
(5263.759207 191.9765135 -919.5120916)
(5254.82811 197.7582505 -936.6870255)
(5249.419873 202.6991835 -947.5411373)
(5247.479838 206.1329807 -952.3111822)
(5248.295303 208.6691442 -951.8052268)
(5260.7889 210.0514356 -943.3168007)
(5266.868751 209.3783297 -935.9378978)
(5268.341131 208.732685 -927.2770532)
(5264.404578 209.4569423 -914.3209759)
(5821.608811 45.72904945 -225.6479671)
(5780.078393 55.33105178 -266.4356078)
(5745.236113 64.14494262 -304.9374356)
(5700.925415 75.47556414 -351.8348097)
(5644.569346 90.20703796 -410.346102)
(5582.623488 106.1211232 -477.0186222)
(5534.264929 120.7761573 -534.4642093)
(5488.116582 135.4716201 -592.5489174)
(5445.622116 149.7415145 -648.3333514)
(5407.255759 163.9994604 -701.839934)
(5373.355119 177.6396569 -751.0458864)
(5345.015474 190.0951493 -795.0557724)
(5321.90083 201.3297136 -833.3964587)
(5303.078069 211.3111789 -865.3132798)
(5289.319086 220.1034366 -890.195274)
(5279.696622 227.1315701 -908.6163421)
(5274.075166 232.6845144 -920.6915683)
(5271.221465 237.2825375 -927.6064036)
(5283.096985 239.7126913 -923.7203908)
(5288.416086 241.5727577 -920.8726534)
(5289.102624 243.067406 -917.651532)
(5284.319179 243.0491991 -912.0743137)
(5283.7134 244.1802609 -901.7877786)
(5796.79327 60.58360228 -255.82739)
(5756.974839 70.99131675 -296.0491286)
(5723.575458 81.81139586 -333.6035918)
(5678.665432 95.80757938 -382.3861629)
(5624.419268 112.7479764 -440.6271927)
(5565.044025 130.3818952 -506.4612345)
(5520.206595 146.7987579 -561.9338621)
(5477.699096 163.178339 -616.6271946)
(5440.197667 178.8291327 -668.0511023)
(5406.332941 194.3590301 -716.6586866)
(5377.206982 208.910082 -760.8751516)
(5353.338436 222.0119743 -799.1665418)
(5334.320066 233.6796226 -831.3834278)
(5318.981557 244.0104461 -857.9009717)
(5308.490387 252.73177 -877.9608857)
(5301.046362 260.2034049 -892.4180622)
(5310.72148 264.103968 -894.1333718)
(5314.166836 267.5124142 -896.9791457)
(5313.695465 270.9381377 -899.4137525)
(5307.690168 273.4314537 -900.0667548)
(5304.440924 275.6129036 -895.7335047)
(5304.305731 275.838982 -888.7411727)
(5813.485721 65.4195839 -240.0403252)
(5774.409707 77.74881023 -279.8403869)
(5740.550559 89.1666611 -317.9165744)
(5707.315832 101.7706416 -356.8962826)
(5662.598176 117.9015471 -407.1630571)
(5610.128286 137.2873687 -464.7594707)
(5554.95996 157.3974001 -528.1908185)
(5514.674036 174.7684857 -580.2929286)
(5477.193899 192.378665 -630.8281493)
(5443.875918 209.3220175 -678.145891)
(5414.161443 225.4681977 -722.3992138)
(5390.290539 240.1738776 -760.4284209)
(5370.341677 253.397439 -794.0608628)
(5354.323741 265.0386148 -822.0147803)
(5342.883164 275.1304199 -843.6753832)
(5347.624522 281.4203997 -852.2488713)
(5347.815797 287.0565591 -860.8361495)
(5344.974178 292.3932976 -869.2627604)
(5337.439406 296.7969608 -876.1665314)
(5327.903043 302.138856 -878.4067943)
(5327.458588 304.6788476 -876.3426999)
(5801.131505 80.00403881 -256.68205)
(5760.80911 94.42424032 -298.0052088)
(5728.541639 107.4778955 -336.7988714)
(5695.607238 122.1788073 -376.7557131)
(5654.463571 140.6553463 -425.1359237)
(5612.595813 159.431077 -475.0638359)
(5569.039664 179.6745583 -527.5651656)
(5520.189958 201.3892501 -587.1708674)
(5487.391925 219.5911179 -633.0205823)
(5458.108128 237.2702064 -675.953217)
(5433.434779 253.294011 -714.1197725)
(5412.911915 268.0875991 -747.7357503)
(5411.08655 277.8781051 -766.051871)
(5401.678585 288.7301656 -786.8080222)
(5393.355889 297.6214423 -805.8903428)
(5386.123617 306.4253458 -822.1827021)
(5375.302489 313.8247789 -836.1384079)
(5363.366157 321.8511813 -846.1146896)
(5357.312875 326.1943342 -850.8477627)
(5353.180526 328.5202201 -852.2361856)
(5790.68278 96.54584705 -272.577046)
(5750.678993 113.5224546 -314.2015502)
(5717.671929 128.6084321 -355.5327823)
(5686.778873 144.5401622 -395.3881869)
(5653.581753 162.4075396 -437.8773564)
(5615.423703 182.0553109 -485.2887132)
(5578.636797 202.8551346 -533.0687549)
(5549.577729 221.0336331 -575.0685099)
(5521.897138 239.0551346 -615.60027)
(5496.934702 256.7099735 -653.7483398)
(5474.336074 273.5829209 -688.9123214)
(5458.345288 287.7315784 -719.1647364)
(5446.603643 300.9788561 -743.9016486)
(5432.901636 312.2783 -766.8196963)
(5417.615245 323.7259788 -788.3753671)
(5403.15573 335.655169 -804.8818551)
(5394.787737 342.781536 -815.837361)
(5388.727866 347.545703 -823.3260467)
(5775.766528 115.7835079 -298.9831349)
(5739.423559 132.6982095 -338.7828241)
(5709.229705 148.6639486 -377.2583733)
(5681.59994 165.2795172 -414.2721826)
(5653.037429 183.1576901 -453.183318)
(5624.11734 202.2122171 -492.6652426)
(5598.095093 220.3355528 -530.1847565)
(5572.300636 239.2129885 -568.8265326)
(5548.08189 257.5140441 -604.8402362)
(5525.022177 275.4928707 -640.1889408)
(5504.006647 292.4311342 -672.8799956)
(5483.536477 308.6499727 -703.3737948)
(5464.369594 325.1760144 -730.2539161)
(5453.714859 336.459849 -750.5623631)
(5441.203208 347.5181345 -769.3094237)
(5427.9559 357.806782 -784.621135)
(5773.374155 128.5888683 -306.3812246)
(5746.294054 144.6310473 -338.3077928)
(5713.152104 165.1920785 -379.4576648)
(5682.291966 184.7814934 -420.0171183)
(5656.585564 203.6569683 -456.5190774)
(5629.824645 223.6904565 -495.3745025)
(5604.961973 243.1961275 -531.8485888)
(5580.670173 262.9601953 -568.0693973)
(5557.23063 282.4378726 -603.2742728)
(5535.755998 301.0702925 -636.0935149)
(5522.168355 315.9017399 -663.3708812)
(5507.103897 331.0687703 -689.4778151)
(5493.604577 344.6217993 -711.8128971)
(5744.194992 167.3937839 -355.642158)
(5717.829586 184.8879991 -388.8322537)
(5696.235274 201.729604 -420.1586872)
(5673.280277 220.6018389 -455.3826789)
(5650.287496 239.8369512 -489.7699617)
(5626.480056 260.0605926 -525.1996307)
(5602.450581 280.6397183 -559.9773248)
(5579.096075 301.1657865 -593.7966018)
(5564.869021 317.1786155 -620.3640392)
(5885.04345 4.645479074 -141.4088396)
(5847.367928 2.698432286 -175.4157613)
(5812.881631 2.394962625 -208.0893595)
(5760.466308 3.249917476 -255.2652658)
(5683.311937 5.174684895 -324.9069738)
(5621.331271 6.128022263 -386.3785423)
(5556.950829 7.312560845 -452.1293126)
(5491.612137 8.710991131 -521.6773979)
(5426.791225 9.835965274 -593.8118777)
(5363.402793 11.49354806 -667.0654068)
(5304.824324 13.22485901 -738.4046186)
(5251.069518 14.78869593 -806.5859571)
(5204.652903 16.27031076 -869.3423445)
(5165.849649 17.43127363 -924.401775)
(5135.549568 18.82849665 -970.3494541)
(5112.416098 19.94345343 -1007.645196)
(5097.001368 20.92447345 -1034.617613)
(5088.064428 21.51013192 -1051.591406)
(5084.852106 22.05202822 -1059.798791)
(5086.022488 22.24538336 -1059.640882)
(5090.35871 22.19257173 -1052.074356)
(5096.533545 22.30323501 -1038.784725)
(5104.558385 22.32244319 -1020.734649)
(5113.9441 22.04685526 -998.8211425)
(5123.812982 21.61575292 -974.691783)
(5133.890231 21.47130916 -948.3144504)
(5143.613124 21.23527507 -920.654289)
(5871.262562 4.827934445 -153.7108322)
(5840.592358 8.264627124 -180.6195188)
(5811.215465 10.7128823 -209.3567972)
(5759.696543 13.51969118 -255.5749852)
(5682.891594 17.26770841 -323.7838232)
(5621.507403 20.77700595 -383.9463397)
(5558.539192 24.35908966 -448.7851951)
(5493.321681 28.80680247 -518.1907231)
(5428.138858 32.8041789 -590.1350485)
(5365.40546 36.97827881 -663.2636258)
(5305.98792 41.16089824 -735.8024172)
(5252.478448 45.37112021 -804.5005635)
(5205.393863 49.19356414 -867.3538619)
(5166.485234 53.24206944 -923.3242609)
(5135.877615 56.37907293 -970.0824955)
(5113.428401 59.10900367 -1006.871071)
(5098.046049 61.47796888 -1033.620515)
(5089.670005 63.28737939 -1050.579435)
(5086.145433 64.33624846 -1058.608961)
(5087.210961 65.25057678 -1058.135728)
(5091.397532 65.71864831 -1050.943931)
(5098.417225 65.52550779 -1037.482337)
(5107.000394 65.44153221 -1019.510027)
(5116.122678 64.68546341 -997.8775476)
(5126.202554 63.7322851 -973.3010893)
(5136.148391 62.99859911 -947.03232)
(5145.917913 62.09450517 -919.6010822)
(5888.052245 15.96182401 -140.2186138)
(5853.51068 19.06499049 -170.807557)
(5818.830509 20.8293245 -203.26534)
(5767.2388 24.11924749 -249.6295087)
(5692.261122 30.6422611 -316.9646719)
(5631.279949 35.62224036 -376.8070429)
(5567.524124 40.798489 -441.3174454)
(5503.58196 46.75104648 -509.6587246)
(5438.918863 52.98281685 -580.9411712)
(5377.119844 59.06046209 -653.0559569)
(5319.037134 65.52051704 -723.5661229)
(5265.846755 72.15241425 -791.1743433)
(5219.744447 78.32377555 -853.6466722)
(5181.161868 84.23289844 -908.8542861)
(5150.35901 89.87249999 -955.4363381)
(5126.42304 94.47695031 -993.1506009)
(5110.641776 98.08331292 -1020.907357)
(5101.337302 101.3725596 -1038.717575)
(5097.504486 103.5988811 -1047.302231)
(5097.865615 105.2540851 -1047.816153)
(5101.63104 106.2363132 -1041.388915)
(5108.034303 106.4094876 -1029.358754)
(5115.792235 105.9029853 -1012.448529)
(5125.017041 105.5288292 -991.6149618)
(5134.162633 104.8150024 -968.3276301)
(5144.050441 103.3536276 -942.8664743)
(5153.775214 101.8203375 -916.0569402)
(5861.033635 20.94732145 -165.3039951)
(5821.195263 24.65133171 -200.7765104)
(5773.721536 29.88269263 -244.4374943)
(5704.135286 37.74899461 -307.2289071)
(5646.147356 44.51930991 -364.3263713)
(5585.004531 52.60911086 -426.3874215)
(5523.24308 60.9283787 -491.9035281)
(5461.170012 69.87730093 -560.2901831)
(5400.668014 79.17379882 -630.5678283)
(5343.645977 88.68725446 -699.6811604)
(5290.951212 98.03374593 -766.4677126)
(5244.318267 107.0577023 -827.9400141)
(5205.560514 115.5238381 -882.5815453)
(5174.232019 123.0792052 -929.9852553)
(5149.820134 129.6313009 -968.3125874)
(5133.107956 135.0021288 -996.7223792)
(5122.806798 139.5706119 -1016.35298)
(5117.255466 143.0124289 -1027.219124)
(5116.345971 145.3167196 -1029.995823)
(5119.261568 146.8186457 -1025.364221)
(5124.100811 147.3930354 -1015.063107)
(5131.203634 147.1667097 -999.7689278)
(5139.114435 146.2568852 -980.705222)
(5148.042114 145.0082909 -958.7744533)
(5157.053841 143.5580656 -935.0159669)
(5166.389308 141.3845294 -909.661858)
(5859.797546 21.27092341 -166.1073284)
(5825.185007 27.79835387 -197.1589802)
(5783.156713 34.80847206 -236.1164646)
(5726.594436 44.14625145 -287.9220517)
(5658.688345 54.28036831 -351.6056173)
(5599.475802 64.41836228 -411.7558809)
(5539.162898 75.5313483 -475.7014647)
(5478.437307 87.39104698 -542.8518032)
(5418.686531 99.44132937 -611.1428344)
(5362.003174 111.6336686 -679.168536)
(5311.039193 122.9726008 -744.4851165)
(5264.901798 134.9798974 -805.9760761)
(5225.822186 145.5183437 -860.876053)
(5194.488375 154.9794265 -907.8842192)
(5170.763957 163.693855 -946.1165346)
(5152.99269 171.2150079 -975.9297512)
(5141.797654 176.9929708 -996.2466965)
(5136.567364 181.4828775 -1007.730377)
(5134.750472 184.7608206 -1012.241543)
(5136.393946 186.3888446 -1009.731844)
(5141.038466 187.0711559 -1000.90769)
(5147.482542 187.240618 -987.1790506)
(5155.107048 186.5801413 -969.8531552)
(5163.3854 185.0272704 -949.356455)
(5172.032168 183.0437994 -926.7659717)
(5180.797669 180.8447681 -902.707666)
(5868.613588 30.59698023 -159.2576552)
(5831.926829 35.46462053 -193.8210378)
(5797.267039 41.49357548 -227.3023703)
(5745.411864 50.84518258 -275.1222751)
(5672.759501 64.62078462 -342.2792955)
(5614.042128 76.43667212 -401.5237344)
(5555.200583 89.14561777 -463.7337726)
(5496.572278 102.0697229 -528.2830164)
(5438.933804 116.3404574 -594.1737648)
(5383.780727 130.6420874 -660.3067377)
(5334.039992 144.8309534 -723.3588281)
(5289.676249 158.635234 -782.7515594)
(5251.382227 171.6976979 -836.3724916)
(5220.283907 183.5514139 -882.894874)
(5196.119411 194.0870174 -921.3422531)
(5178.433383 203.2265728 -950.9128606)
(5166.378798 210.4830813 -972.1970696)
(5159.836078 215.9684854 -985.5047927)
(5157.049077 220.5104012 -991.0891175)
(5158.077266 223.7067238 -990.021854)
(5161.762864 225.4427551 -983.2779645)
(5167.035787 225.5008729 -971.8610626)
(5174.128368 224.857707 -956.3144645)
(5181.700185 223.4626209 -937.8543316)
(5189.667843 221.5301489 -917.155124)
(5198.034806 218.5515714 -894.6695295)
(5892.221068 23.73867145 -139.150266)
(5856.561835 34.0094974 -170.9894616)
(5820.887989 43.74957878 -206.0313539)
(5774.349091 54.16790221 -250.1543584)
(5715.550587 67.49149216 -305.570325)
(5648.629476 82.64334507 -371.0697602)
(5590.112089 97.74621803 -432.6331432)
(5531.43554 113.5069785 -497.0106652)
(5474.670237 130.0861469 -562.4363175)
(5420.604037 146.9128811 -627.5759096)
(5369.677052 163.8877659 -690.9987085)
(5324.358148 180.1157782 -750.2394353)
(5285.874716 195.6873547 -803.7483368)
(5253.40084 209.6333854 -850.9690117)
(5227.591725 222.3871266 -890.6436134)
(5208.052943 233.2616773 -921.9732714)
(5194.72667 242.4521671 -945.1102699)
(5186.816702 249.8054462 -959.9579462)
(5183.169281 255.2323496 -967.5389821)
(5182.660639 258.8908809 -968.8943887)
(5184.973687 261.2796765 -964.1993648)
(5189.81672 262.2996134 -954.6045634)
(5195.640039 262.1204461 -941.5518275)
(5202.191948 260.40178 -924.7572043)
(5209.565188 258.1086127 -905.7790492)
(5225.536322 256.7489768 -885.7539902)
(5854.108329 42.81004982 -176.999314)
(5816.087904 51.42753277 -212.9219218)
(5782.187855 60.61247321 -246.6095182)
(5731.509671 73.94675205 -294.8651643)
(5660.168857 92.6233506 -361.6212729)
(5605.838363 108.8041278 -418.5729574)
(5550.585775 126.2745828 -478.7062221)
(5497.065414 144.1185331 -540.075387)
(5445.742192 162.325081 -601.3035973)
(5397.131887 180.6093666 -661.2739967)
(5353.835014 199.0005226 -718.0679439)
(5316.383755 216.0582629 -770.2312333)
(5284.159569 232.3311752 -817.1259781)
(5258.960256 246.342545 -856.4658415)
(5239.26253 258.9602376 -888.3798053)
(5224.716714 269.7664915 -912.5214983)
(5215.706726 278.6846318 -929.8410596)
(5210.626013 285.5339305 -939.4179378)
(5209.510016 290.2786107 -942.5193184)
(5210.696341 293.4624801 -940.3125223)
(5214.4321 295.022818 -933.4332608)
(5219.436133 295.1805477 -922.5427923)
(5225.208301 294.4544457 -908.4350414)
(5241.926256 292.7496942 -890.3331839)
(5249.803259 291.0058941 -873.247441)
(5867.316698 47.3427701 -164.8109399)
(5833.362747 57.42823237 -195.9677796)
(5802.010171 67.28408231 -227.9526045)
(5758.589484 80.17804475 -270.4982003)
(5703.142049 97.72789708 -323.8468231)
(5639.950492 117.3508451 -386.4348562)
(5588.055726 135.9215964 -443.3816744)
(5536.155623 155.2319712 -502.0219687)
(5486.520236 174.9952352 -560.9463466)
(5440.122217 194.6858357 -618.569152)
(5397.241516 214.471176 -673.8582814)
(5359.42385 233.1053142 -724.9820505)
(5326.788235 250.7381925 -771.5420896)
(5300.540867 266.8786254 -811.2730928)
(5280.07596 281.034699 -844.4444057)
(5264.038426 293.309454 -871.1638818)
(5253.350098 303.3823675 -889.7486309)
(5246.411252 311.4921385 -902.3373608)
(5243.210241 317.4266246 -908.5115072)
(5243.015799 321.451436 -909.399987)
(5244.952694 323.9738857 -905.3636052)
(5248.676865 324.9260595 -897.5287709)
(5253.417905 324.714487 -886.6566773)
(5268.729046 322.0856723 -871.6404415)
(5275.766128 320.7055283 -856.7239488)