/*--------------------------------*- C++ -*----------------------------------*\
| =========                 |                                                 |
| \\      /  F ield         | OpenFOAM: The Open Source CFD Toolbox           |
|  \\    /   O peration     | Version:  v1706                                 |
|   \\  /    A nd           | Web:      www.OpenFOAM.com                      |
|    \\/     M anipulation  |                                                 |
\*---------------------------------------------------------------------------*/
FoamFile
{
    version     2.0;
    format      ascii;
    class       volVectorField;
    location    "3.2711";
    object      U_O2;
}
// * * * * * * * * * * * * * * * * * * * * * * * * * * * * * * * * * * * * * //

dimensions      [0 1 -1 0 0 0 0];


internalField   nonuniform List<vector> 
60268
(
(5691.195849 6.009827876 -413.8870259)
(5647.862539 7.416668344 -465.0514239)
(5615.357702 7.852965457 -510.0946795)
(5582.026145 9.395089117 -559.8385706)
(5549.65913 10.11313452 -607.5505625)
(5517.968519 10.67285233 -654.518748)
(5486.52733 11.74898036 -701.2835124)
(5458.687189 12.69059994 -745.7361108)
(5432.083553 13.44294971 -787.0076743)
(5408.755852 14.38356132 -823.7887685)
(5400.561161 14.86487408 -848.2601327)
(5699.221484 16.75735257 -407.4074944)
(5652.329845 20.47312833 -460.324786)
(5614.98751 23.79053961 -510.550607)
(5582.968626 26.38152567 -555.8561932)
(5551.969469 28.73566733 -602.233425)
(5521.220428 31.75087773 -649.9550041)
(5489.942027 34.13162695 -697.0292375)
(5461.018703 36.5028211 -741.8819493)
(5434.729549 39.15887556 -783.6713401)
(5410.010878 41.8729765 -820.7792625)
(5402.563959 44.0851476 -845.3357138)
(5664.816048 36.24263008 -448.3501305)
(5622.469015 40.68958542 -499.1054718)
(5591.307365 44.92339016 -547.1027607)
(5558.538467 49.22492321 -595.3403734)
(5525.91896 53.40522118 -643.2299239)
(5495.775948 57.6989888 -689.6670906)
(5467.864907 61.96788163 -734.3752653)
(5441.429474 66.20415117 -776.4714546)
(5426.165968 68.67508065 -808.9655889)
(5414.814952 69.31699608 -838.1741727)
(5678.202429 47.21507145 -441.7845939)
(5633.41056 53.89289364 -491.0510832)
(5597.653083 60.0253085 -539.6811348)
(5565.975596 66.75720005 -586.5730208)
(5535.449575 72.81364005 -633.1639014)
(5505.728859 78.82168164 -680.5364289)
(5478.559078 85.14278905 -723.7229703)
(5450.653538 91.32857907 -765.7335528)
(5441.485959 95.34284304 -794.2060304)
(5654.224098 66.61360316 -478.8787803)
(5608.076957 76.25943931 -530.3984264)
(5575.808828 83.694229 -576.5426692)
(5544.744659 91.78544858 -624.0305487)
(5515.198644 99.98730911 -670.1760433)
(5498.525605 105.5645115 -705.413444)
(5477.98133 111.5806926 -743.5204144)
(5457.321496 116.7762299 -778.9249752)
(5638.56931 87.23913507 -509.549196)
(5600.856865 97.22146322 -557.4907163)
(5573.256362 105.8044433 -601.0023562)
(5544.424489 114.154652 -646.8196786)
(5525.914282 121.1986792 -680.886595)
(5771.984585 0.944666929 -285.6766784)
(5727.68169 3.773488951 -329.4972064)
(5694.335773 4.915902393 -368.2173596)
(5658.171012 6.070269319 -411.9130797)
(5605.326911 6.814638495 -470.920291)
(5537.557403 7.960282744 -546.3677555)
(5492.055583 9.025437888 -604.6882738)
(5449.471575 10.76652648 -660.3340807)
(5411.629945 11.31491651 -713.2849776)
(5378.617366 11.97290271 -762.9388078)
(5350.871097 13.08758591 -807.3698241)
(5327.752524 14.35998632 -845.9125418)
(5309.113576 15.1795035 -877.7737349)
(5295.279142 15.52729826 -903.7763046)
(5303.102406 16.2232647 -914.1402837)
(5302.680395 16.86682292 -925.700291)
(5291.791292 17.48369612 -939.4119079)
(5281.094739 17.79575852 -948.0597013)
(5271.525742 18.05145066 -952.1313373)
(5270.495632 17.96740124 -949.4118698)
(5782.802025 14.78724724 -266.8033724)
(5737.82729 16.08742645 -315.3118819)
(5701.841661 17.84233006 -359.3514344)
(5665.174695 19.55796446 -405.3339009)
(5616.662442 22.714893 -461.2216237)
(5558.542825 27.57440014 -526.7652547)
(5501.244911 30.04832307 -595.2876777)
(5459.338101 33.21872711 -651.9413061)
(5421.940842 35.77063275 -705.0890741)
(5388.036897 38.76193543 -754.5049804)
(5358.85175 41.50916967 -799.9826602)
(5335.192886 43.86758676 -838.9323748)
(5316.351243 46.51926085 -871.590071)
(5302.34972 48.86179519 -897.7370961)
(5307.698429 49.73043629 -909.0501294)
(5306.944291 50.50013462 -921.3071216)
(5295.658325 51.69960824 -935.1469616)
(5284.76967 53.16888183 -944.5911735)
(5275.251759 53.8410825 -947.7983944)
(5271.946611 54.15205268 -945.8698754)
(5777.744857 19.87137694 -277.4762863)
(5735.255879 24.84629871 -320.4267921)
(5702.28043 28.12242724 -360.3960535)
(5667.194629 32.07233863 -404.3241023)
(5626.899397 36.89911732 -452.8374123)
(5574.52319 42.84495024 -512.926365)
(5507.871549 49.2781638 -588.4992597)
(5466.741995 54.7271018 -643.2607626)
(5428.55288 60.14584873 -696.6722101)
(5395.872116 64.71954668 -744.9810345)
(5367.414622 69.68118444 -789.8074351)
(5344.166415 73.97398829 -827.7735153)
(5325.945827 77.38003579 -859.8791714)
(5325.653803 81.42510597 -877.5607335)
(5320.520764 82.94648203 -895.669653)
(5314.320416 84.28645482 -911.7117156)
(5301.783113 86.78024214 -926.690195)
(5291.092849 89.23598512 -936.4197451)
(5287.186008 89.82959795 -939.9693433)
(5282.902111 86.97910764 -939.8717624)
(5786.224912 29.90432588 -265.9122011)
(5745.117609 34.96800486 -309.3968379)
(5710.493906 40.20894379 -351.7761398)
(5673.743575 44.94517874 -397.2363703)
(5637.601636 50.96547594 -443.6002123)
(5589.155925 58.24826501 -499.9202599)
(5533.911014 67.46954542 -563.7280137)
(5478.451381 75.51273592 -631.5195963)
(5442.846049 82.26496972 -683.1689676)
(5409.80159 88.8244569 -732.1064217)
(5382.054008 95.46292851 -775.4259027)
(5357.169573 101.2388842 -814.7307134)
(5338.726666 106.3015464 -846.764436)
(5339.765749 109.8681498 -864.8016628)
(5335.105238 113.771023 -883.1784205)
(5324.984216 116.0131467 -901.1476639)
(5311.639056 120.2831762 -917.3961182)
(5299.177851 123.0030662 -928.0747841)
(5298.184206 125.4662756 -931.6188397)
(5794.040435 35.32792723 -262.7951197)
(5752.678548 42.36467465 -305.765846)
(5717.187909 49.18678409 -346.6777994)
(5682.342134 56.17128987 -389.6072127)
(5646.681501 62.98682519 -435.2754034)
(5609.579106 71.30974828 -482.3862968)
(5563.660276 81.34475726 -538.5456803)
(5511.106352 92.64824465 -600.5972638)
(5462.08829 102.4445044 -662.6204778)
(5429.141428 111.0476606 -710.435693)
(5401.687597 119.0812774 -754.1848162)
(5392.864825 126.2895455 -782.9773473)
(5376.032327 133.0579556 -814.377231)
(5363.360154 137.3854775 -841.56941)
(5352.8018 141.9454473 -865.0346789)
(5337.169535 147.9150238 -887.2263776)
(5323.085211 152.4703127 -904.160253)
(5311.197823 156.1721466 -915.456632)
(5308.208798 159.1957578 -919.7947591)
(5766.221282 51.20473368 -295.1732148)
(5726.075487 59.74484856 -336.702629)
(5693.299248 67.39696209 -377.9514527)
(5657.780652 76.75141651 -423.0974565)
(5624.178223 85.39005448 -468.8188039)
(5586.814585 94.96882809 -517.1819547)
(5544.556009 106.5225365 -570.8949192)
(5504.88564 118.2940849 -624.0066578)
(5473.43727 128.4435345 -670.4435694)
(5444.883479 138.6679247 -714.1004056)
(5422.533871 147.0632533 -753.9072658)
(5404.730726 155.7087486 -787.840359)
(5388.430549 162.2906085 -817.7003623)
(5370.264335 168.4102231 -845.8950633)
(5351.871186 176.0917415 -870.0556603)
(5338.036924 181.9583006 -888.1052107)
(5330.218783 185.4665226 -898.8355393)
(5324.321029 187.2626074 -905.9607345)
(5784.354007 57.2160521 -275.7133069)
(5741.682387 67.20676141 -321.8131467)
(5707.914261 76.24870697 -364.1196511)
(5674.182645 85.71074045 -407.2982629)
(5640.53756 96.22570853 -452.472911)
(5607.84625 107.2266253 -497.8484735)
(5574.339886 118.7734371 -544.2839351)
(5540.900755 131.1979501 -591.6772301)
(5510.729601 142.7761099 -635.5327216)
(5482.366397 153.8023427 -678.3636073)
(5456.76479 164.4570991 -718.986693)
(5432.990936 174.823033 -756.8092567)
(5409.355766 185.3191954 -791.8446288)
(5389.910955 193.7401692 -820.7377843)
(5371.674699 201.705972 -845.4521578)
(5363.068823 206.6848126 -861.6864939)
(5355.76191 210.4677317 -874.6964638)
(5762.479718 73.42450627 -307.8395251)
(5721.547729 85.72177297 -351.8127708)
(5688.090152 97.16680191 -394.5918092)
(5656.466925 108.3574683 -437.0939137)
(5624.879932 119.837629 -480.8157279)
(5593.052779 132.5353734 -525.1004906)
(5562.301932 145.4663143 -569.3053933)
(5533.247297 158.4060419 -612.603066)
(5504.94959 171.1746433 -654.8268026)
(5478.831418 183.4367109 -694.5804293)
(5454.582188 195.7297915 -731.7607675)
(5431.627121 207.4291776 -766.3919833)
(5410.830265 218.1073504 -796.2987235)
(5399.111891 225.8395055 -817.6385663)
(5392.079863 230.6587768 -834.9718364)
(5740.097281 92.50014314 -346.2973578)
(5703.380959 105.7398176 -385.9245684)
(5671.383784 117.7075463 -425.992245)
(5641.810855 131.2697857 -466.4055764)
(5612.32109 144.2477628 -507.8782556)
(5582.348962 158.7737531 -549.8598342)
(5553.853594 172.7630661 -591.5550783)
(5527.180512 186.6876335 -630.9379536)
(5501.198202 200.6439827 -669.812)
(5475.872417 214.5314386 -706.7134415)
(5451.609552 227.9405915 -741.8814154)
(5438.554527 237.5855512 -767.0410491)
(5430.258694 245.1533871 -787.9186524)
(5732.716112 109.8709938 -355.1234496)
(5703.586078 122.3432001 -390.7432922)
(5667.79278 138.578442 -433.8797827)
(5636.874222 153.7243501 -476.0724577)
(5606.923074 169.0337103 -518.2417674)
(5579.392361 185.1349853 -558.8782542)
(5552.52645 200.4497443 -598.9865476)
(5527.515099 215.4043811 -637.586502)
(5511.902425 227.3090403 -669.8693939)
(5492.111629 239.6848072 -703.4436134)
(5475.891488 250.8939133 -730.8295772)
(5699.044884 143.1851017 -408.1271232)
(5668.454499 158.2782284 -447.0412113)
(5643.731928 172.5996299 -484.7308088)
(5618.621807 187.6856896 -522.3164262)
(5591.860543 204.7457826 -562.467128)
(5565.199448 221.9970677 -601.1985791)
(5547.54614 235.256526 -632.3514174)
(5841.449652 6.50155879 -187.1641645)
(5798.154326 5.317152288 -227.8525536)
(5762.859423 5.690105134 -265.8606281)
(5709.683147 6.614680993 -317.639423)
(5636.168461 8.512698715 -389.7003331)
(5579.597723 9.237029595 -450.9517644)
(5523.276563 10.22443735 -514.0288309)
(5469.286234 10.94115192 -578.8343867)
(5416.821356 11.7637779 -643.8867267)
(5367.351364 13.10833364 -706.3329333)
(5323.927958 14.20435227 -765.1492464)
(5286.337993 15.31835433 -819.2467678)
(5254.608639 16.07383167 -866.7974823)
(5228.723824 17.15499126 -906.8382311)
(5209.751038 17.93877127 -938.9588326)
(5196.404953 18.38696309 -963.1274206)
(5188.362167 18.8436988 -979.3227498)
(5183.3259 18.79922006 -988.3109506)
(5182.884719 19.37988841 -989.9756783)
(5184.050781 19.49391631 -987.4249808)
(5187.687685 19.52510653 -979.6814525)
(5192.974419 19.77531169 -967.7239482)
(5209.017153 19.18080825 -951.4346027)
(5214.416011 18.74590375 -935.7867547)
(5830.448918 7.796202431 -200.941434)
(5792.129608 10.53759314 -237.4955742)
(5758.925212 12.7934832 -271.8498726)
(5705.786885 15.51034915 -323.4496712)
(5629.297919 19.27655205 -397.4901791)
(5573.720527 23.00939407 -457.0519216)
(5519.67647 26.60805361 -517.9883824)
(5464.521324 30.03583245 -582.2094714)
(5413.003218 34.08617188 -645.3183033)
(5367.140469 37.43285445 -705.4698899)
(5323.874924 40.95087673 -762.8328883)
(5287.111913 44.15187208 -815.2221951)
(5255.726835 47.83475106 -862.2382074)
(5231.138498 50.13469102 -900.9116566)
(5213.049024 52.74805002 -932.303493)
(5199.996387 55.12534835 -956.1325131)
(5191.474417 56.50910656 -972.4449939)
(5187.314055 57.06701533 -981.9840466)
(5186.887274 58.00726267 -984.538941)
(5188.077591 58.705328 -981.8769211)
(5191.679175 59.02942589 -974.3049921)
(5196.448977 58.75374787 -963.6520092)
(5211.655877 57.89244283 -948.5641237)
(5217.177679 57.77308996 -933.2081913)
(5839.007625 16.51800697 -191.7935861)
(5798.373472 19.14021493 -229.9476604)
(5764.017699 21.70446764 -266.3526026)
(5712.626478 26.37242741 -316.9087528)
(5639.626545 33.06856444 -387.2786711)
(5584.980529 37.86273483 -446.3945963)
(5531.240334 43.54400294 -507.9967283)
(5475.783646 49.53967697 -572.167681)
(5424.172526 55.40261272 -635.1565073)
(5376.414785 61.51895428 -696.702388)
(5332.868194 66.51813874 -755.0572199)
(5296.035434 72.42102596 -807.1742779)
(5265.801649 77.48562682 -853.5464305)
(5241.038479 81.84346319 -892.6538025)
(5222.127794 85.45289066 -924.3227106)
(5208.598844 89.43385679 -948.2324636)
(5199.985451 91.72082157 -964.715236)
(5195.691513 94.01209577 -974.3980064)
(5194.892126 95.81472317 -977.2648591)
(5196.507818 96.85181621 -975.1791737)
(5200.097233 96.4989416 -968.3225562)
(5215.202774 97.98577557 -954.7025864)
(5222.68906 96.97381227 -941.606317)
(5224.206987 95.29150053 -927.9550229)
(5843.811615 23.1690225 -186.7847366)
(5804.192463 26.94322189 -223.8650054)
(5771.588081 30.7729837 -258.0843167)
(5721.859841 36.86834138 -307.2656168)
(5652.123661 45.54313787 -375.3154553)
(5598.89981 52.32494578 -433.343044)
(5545.026573 59.69401764 -493.8677283)
(5492.610811 67.82745111 -555.4509788)
(5442.147622 75.68001038 -617.5378632)
(5394.236103 84.44625899 -678.7581101)
(5353.20085 91.57766368 -735.2665969)
(5316.812861 98.86854454 -787.319322)
(5285.716402 105.7718253 -833.7426419)
(5260.006144 111.7665754 -873.6138157)
(5241.28341 117.3473131 -905.3821376)
(5226.884671 122.4154421 -930.65484)
(5216.908011 125.9384336 -948.1064649)
(5211.208717 129.564789 -959.3144699)
(5209.04765 131.7075463 -963.2197112)
(5210.051738 133.1490582 -962.6062062)
(5213.261354 133.7057151 -957.1196308)
(5228.561363 133.7466741 -944.8529412)
(5235.865099 134.4679133 -933.4222147)
(5233.765933 132.4485974 -921.0594876)
(5854.971125 23.99683004 -177.3780972)
(5812.856998 30.29206633 -217.5167673)
(5777.543498 35.89288091 -254.836748)
(5731.833111 43.25547097 -300.0504976)
(5675.889821 53.37084962 -355.8395023)
(5611.973486 63.30454204 -421.8725217)
(5558.838879 73.62677059 -482.0381224)
(5506.769951 83.74673775 -542.7479336)
(5458.31241 93.89269498 -603.0702781)
(5412.069412 104.2514543 -662.0265984)
(5371.696276 114.1404889 -717.1254165)
(5334.845689 123.7593766 -769.4885376)
(5303.537881 133.4652208 -815.7046274)
(5279.251754 142.007609 -854.7973826)
(5259.045978 148.9956556 -887.5112267)
(5244.944402 154.319318 -912.6856245)
(5235.370272 159.5262572 -930.610841)
(5229.208846 164.0260628 -942.3677975)
(5226.573585 167.4854327 -947.9867651)
(5226.056242 169.4767576 -948.2357978)
(5228.405826 170.7026512 -943.8486852)
(5243.215616 169.2617922 -932.6915942)
(5249.084837 169.6011048 -922.6448611)
(5244.582658 170.2304514 -911.5011943)
(5828.003522 41.21973453 -203.1929377)
(5787.028972 47.24495341 -243.7319004)
(5751.097794 53.93605234 -281.7618155)
(5701.56327 64.65069709 -332.1576671)
(5635.999997 76.99933215 -399.3152386)
(5583.583127 88.57838383 -456.9652978)
(5533.062539 100.3661492 -515.5387733)
(5484.434274 112.0882928 -575.3643129)
(5438.849348 124.4176448 -633.6716982)
(5397.802475 136.1437656 -689.0844415)
(5361.560082 147.188153 -741.1123891)
(5331.071423 157.8000693 -786.7174941)
(5304.234219 168.2533431 -827.8323726)
(5283.408806 177.3222138 -861.5000823)
(5268.13553 184.8279761 -887.2736646)
(5257.231384 191.2825649 -906.5687221)
(5250.258393 195.9327536 -919.8970342)
(5246.883057 199.5260858 -927.5172605)
(5246.042717 202.4773493 -929.7293809)
(5257.82533 204.292112 -922.7163577)
(5263.29755 204.3375779 -916.5118091)
(5263.257402 203.6779811 -909.4524426)
(5258.004189 204.8230966 -899.2436439)
(5829.843547 41.82904322 -207.4202319)
(5790.63333 50.99524895 -245.345468)
(5756.814143 59.02498005 -281.076163)
(5712.466337 69.98435772 -325.8108976)
(5657.347267 83.97213598 -381.2957142)
(5596.689103 99.68075896 -445.8914628)
(5548.379753 113.1210812 -500.7372408)
(5502.569672 126.5118533 -556.1427708)
(5459.368262 140.8975992 -610.9765792)
(5420.011625 154.5558099 -664.1056236)
(5384.648782 168.0259625 -713.7897327)
(5355.22814 180.495591 -758.3976116)
(5330.053419 192.0382837 -797.9180733)
(5309.9649 202.6186137 -830.8145827)
(5293.670912 211.1866496 -857.8512385)
(5281.976325 218.2133064 -878.6257303)
(5274.09223 224.8713327 -893.2499277)
(5270.834197 229.8920496 -901.8138058)
(5281.400806 232.3611346 -899.3658326)
(5285.428789 234.4132897 -898.4900356)
(5284.526694 236.5700552 -897.4636706)
(5279.35824 236.7044638 -894.2630423)
(5277.905349 238.0151387 -885.6891956)
(5806.156412 55.77321554 -235.7811159)
(5768.160002 65.25122864 -273.1201644)
(5735.110721 75.39191123 -309.1094527)
(5691.101739 88.58928126 -354.4821065)
(5637.309627 104.3843494 -410.7734509)
(5579.055304 121.505047 -473.951396)
(5532.985378 137.4612293 -528.3041018)
(5490.957813 152.9334488 -581.0056012)
(5451.961334 168.7259162 -632.3210455)
(5416.92499 183.5377959 -680.6384441)
(5386.494474 198.3610294 -724.524641)
(5360.462786 211.0991669 -764.0553075)
(5339.274034 222.9758577 -798.0622374)
(5323.142876 233.9864832 -826.143935)
(5311.620427 243.5876778 -847.3160114)
(5303.425053 250.6431382 -863.5974162)
(5311.315792 255.2061847 -867.6956111)
(5313.009018 259.0403792 -872.041794)
(5311.15966 262.9463942 -875.9854439)
(5303.633747 265.4425014 -879.0055491)
(5299.613928 268.1010764 -876.8843711)
(5298.289274 268.6890692 -872.0564471)
(5822.424846 60.27476225 -220.5678633)
(5784.101526 71.44254758 -258.1141673)
(5750.934034 82.47830553 -293.9513355)
(5718.016092 94.37101758 -330.77891)
(5673.967514 109.5584324 -378.4370001)
(5622.360847 127.341367 -434.5098949)
(5567.846393 146.1898335 -494.8630727)
(5527.367907 163.6456029 -545.3966672)
(5488.196903 181.1900204 -596.4224739)
(5453.699816 197.398317 -644.2179863)
(5423.585655 213.051617 -687.1135413)
(5397.273973 228.2993797 -726.3749645)
(5376.080305 241.7637561 -761.043523)
(5358.917101 253.9669875 -790.4245227)
(5345.834829 264.0568641 -812.9974467)
(5349.135332 271.0005175 -822.8422733)
(5348.439991 276.9079285 -832.8454919)
(5344.292661 282.6908438 -842.6129827)
(5334.492888 287.751855 -852.4139651)
(5324.178822 293.7066761 -857.1307805)
(5322.618016 296.5799637 -856.0259683)
(5809.157905 73.53324941 -236.318302)
(5769.969582 87.32927315 -275.8672596)
(5739.181453 99.25248644 -311.6329657)
(5705.657037 113.3499919 -350.1829155)
(5664.83129 130.6787986 -396.6767466)
(5623.386046 148.9422344 -444.7074145)
(5579.850822 167.6422737 -495.0236548)
(5530.445666 188.9682561 -553.7821275)
(5496.250583 207.0440286 -599.4162297)
(5466.82227 224.4442003 -641.538534)
(5441.505571 240.7806734 -680.1374631)
(5419.551831 255.3865119 -714.5537502)
(5415.878263 265.538979 -734.5322795)
(5405.594182 276.5339397 -755.964607)
(5395.352619 286.0337665 -776.9670045)
(5386.846029 294.9459709 -794.4415323)
(5375.271714 302.7190761 -809.5292851)
(5362.529916 311.2390022 -821.3436587)
(5354.937374 316.3676003 -828.3078194)
(5347.985198 319.7595835 -831.3712236)
(5799.048998 89.04971556 -250.7566146)
(5758.797662 105.0791254 -291.6499462)
(5727.758677 119.1818228 -329.9430275)
(5696.362661 134.3485567 -368.148793)
(5663.321009 151.4398897 -408.3574172)
(5626.135762 170.3704714 -454.0049176)
(5588.153304 190.3030032 -501.0902656)
(5558.82192 207.8485083 -541.7643096)
(5530.644406 225.8853451 -582.2285386)
(5504.510388 243.5488868 -620.7455146)
(5480.5985 259.9532076 -655.9762734)
(5462.993436 274.0649206 -686.8992072)
(5448.975107 287.6169815 -712.8959357)
(5434.58917 299.0821555 -736.4190517)
(5417.841439 311.6046965 -759.801526)
(5402.371159 323.2908067 -777.9671042)
(5392.74968 330.7593555 -790.4044162)
(5386.160447 335.9081547 -799.4396671)
(5784.423871 106.9731671 -276.4396911)
(5748.791481 122.9939269 -313.4064847)
(5718.541688 138.4512481 -351.1053334)
(5690.650292 153.8254925 -386.1330945)
(5661.195285 170.6541532 -424.1192321)
(5632.16881 189.3382022 -462.6037556)
(5605.781347 207.2636569 -499.2465509)
(5579.501424 225.7505645 -537.6226499)
(5553.927095 243.8153654 -573.4143425)
(5529.91026 261.4817891 -608.2303594)
(5507.210497 278.1967662 -641.2944322)
(5486.444784 294.5483735 -672.1768212)
(5466.561398 310.8435565 -699.8364162)
(5454.566876 322.4919408 -720.8685575)
(5440.567049 334.2877952 -740.9145551)
(5425.782892 344.98369 -758.3724082)
(5780.308757 118.844724 -283.9874504)
(5754.097807 134.1017544 -313.8654105)
(5721.015226 154.0220778 -353.3944875)
(5688.767761 172.8024095 -393.3181307)
(5663.960554 190.7945635 -427.8529886)
(5636.896866 210.2292674 -465.9786783)
(5611.254638 229.245689 -501.6609922)
(5585.926643 248.4505839 -537.9314506)
(5561.661159 267.3407998 -572.8129653)
(5539.732205 285.9648538 -605.7232636)
(5525.085845 301.0134644 -632.728862)
(5508.690843 316.0236906 -659.0518951)
(5494.054725 330.0465432 -681.8299489)
(5752.385313 155.8278955 -329.6183426)
(5724.394324 173.0303235 -362.3984578)
(5702.498709 188.9838509 -393.1764568)
(5678.79443 207.6326825 -427.0174859)
(5655.026984 226.0176562 -460.5222801)
(5630.160316 245.6089897 -495.4732167)
(5606.271677 265.0704159 -529.3704881)
(5582.254154 285.253078 -563.0073705)
(5566.724704 301.1578241 -589.6944742)
(5893.399542 4.417239008 -127.9676249)
(5857.488402 2.115528057 -159.3270584)
(5823.389121 2.171477936 -189.9301473)
(5773.180571 2.75054445 -234.005636)
(5699.052902 4.639470105 -299.144861)
(5639.106742 5.76555682 -356.7648417)
(5575.344464 6.68378904 -420.2400634)
(5510.596367 7.770041057 -486.6074151)
(5445.976404 9.409629076 -556.0248274)
(5383.42187 10.75337307 -626.5458373)
(5323.581859 12.31040279 -697.0873854)
(5267.757042 13.50078295 -764.8978815)
(5219.55716 15.03749018 -827.8346598)
(5179.11246 16.39948799 -883.3114037)
(5145.895994 17.73289277 -931.8008849)
(5119.872256 18.9853882 -972.0400892)
(5102.379705 19.71665484 -1001.73501)
(5091.462306 20.72442519 -1021.924526)
(5085.859172 21.07203279 -1032.974803)
(5084.762924 21.42458478 -1035.367155)
(5087.344038 21.61739483 -1031.061507)
(5091.840416 21.66787261 -1021.604879)
(5099.083625 21.48377144 -1006.062973)
(5107.758753 21.5790346 -986.9149137)
(5116.523567 21.79477718 -964.7489126)
(5125.60518 21.21232374 -940.5617931)
(5134.77881 21.00694538 -915.1044453)
(5879.266092 4.182036496 -140.4966896)
(5849.556407 7.482000964 -165.4647904)
(5820.897988 9.684349535 -191.5505205)
(5772.591541 11.83800279 -234.4831605)
(5698.640625 15.58599977 -298.4416376)
(5639.137353 19.34835034 -354.4144149)
(5576.283228 22.72858394 -416.5777997)
(5511.815156 26.52538343 -482.8577376)
(5448.460834 31.25154294 -551.3776927)
(5385.136409 34.89901022 -623.1885745)
(5324.350084 39.13067305 -694.9072047)
(5269.205676 43.20121605 -762.4164345)
(5220.260537 46.8393584 -825.7316611)
(5178.821378 50.75687762 -883.141578)
(5145.76782 54.18698138 -931.7303599)
(5120.139004 56.52043881 -971.2353659)
(5102.283783 59.28910018 -1000.872397)
(5090.920315 61.15909844 -1021.159002)
(5085.835313 62.33525593 -1032.103381)
(5084.786247 62.94636093 -1035.308397)
(5088.866581 64.29497093 -1030.581052)
(5094.038587 64.66278896 -1020.154256)
(5101.090637 64.16246313 -1004.840808)
(5109.508972 63.74029428 -986.127211)
(5118.594444 63.00025827 -964.1661894)
(5127.931746 62.23134506 -939.9654253)
(5137.374694 61.23201135 -914.1763549)
(5895.77109 14.79513744 -127.1190997)
(5862.337838 17.77774593 -155.3299502)
(5829.07477 19.54093232 -185.7199858)
(5779.421404 22.41793797 -228.9826152)
(5706.528828 28.35019729 -291.9161158)
(5647.181467 32.85663318 -348.1582266)
(5584.843017 38.44118677 -409.7216737)
(5521.684061 44.15074322 -475.2663288)
(5458.661629 49.626675 -543.298825)
(5396.174898 55.88179656 -613.4099646)
(5337.287579 62.2107355 -682.8972211)
(5282.645671 68.56851171 -750.0955024)
(5234.022772 74.29779012 -812.505458)
(5192.218438 80.41493179 -869.4303165)
(5159.501996 85.93409679 -917.4035946)
(5133.499214 90.47366247 -957.014028)
(5115.772618 94.40298407 -986.8780257)
(5103.788546 98.24517961 -1008.751226)
(5097.743314 100.2629177 -1020.302945)
(5096.49673 102.372924 -1023.97927)
(5098.886417 103.143698 -1020.604664)
(5103.806978 103.6948866 -1011.992247)
(5110.271809 103.7032312 -997.6761725)
(5117.551491 103.2744619 -979.6842036)
(5126.705661 102.5455549 -958.0942757)
(5135.960199 101.910618 -934.9983287)
(5145.093521 100.3841077 -910.4431844)
(5870.220431 19.10217581 -150.2685746)
(5832.417867 22.45278487 -183.1790686)
(5786.616328 27.30863556 -223.7996014)
(5717.983526 34.58290997 -283.2463586)
(5661.539253 41.2988905 -336.4062243)
(5602.487474 48.7351207 -394.9870961)
(5541.844929 56.88448713 -457.8417014)
(5480.338406 65.73920004 -523.2200758)
(5420.518314 74.19608446 -590.7380847)
(5361.930022 83.59997018 -658.466338)
(5308.939695 93.08851147 -723.9956082)
(5260.304607 101.2921802 -786.1534802)
(5219.490474 109.5531993 -841.6722701)
(5185.440466 117.5934321 -890.5286793)
(5159.035385 124.3031008 -931.3709141)
(5139.276324 130.5206761 -963.2938808)
(5126.55033 134.8479817 -984.9686083)
(5118.448538 138.6220474 -998.7167198)
(5115.3056 141.4404757 -1004.942744)
(5116.793472 143.335834 -1003.293017)
(5120.615483 143.6512492 -996.4744822)
(5126.939962 143.2033079 -984.0413462)
(5134.168863 142.9427647 -968.0527862)
(5141.377719 142.5776531 -948.5078207)
(5149.303022 140.7682663 -926.4968848)
(5157.394683 139.3652499 -902.8262348)
(5868.658288 18.75968808 -151.0135783)
(5835.130199 25.33423441 -180.1852635)
(5795.105274 31.95887429 -216.296033)
(5739.623408 40.49659657 -265.5994572)
(5674.498019 49.64612653 -324.9420132)
(5615.702623 59.62801479 -382.3120213)
(5557.568912 70.27698962 -442.7987489)
(5497.565445 81.32558157 -506.8234556)
(5437.907684 93.43989392 -573.1219495)
(5380.822274 104.5244876 -640.0611228)
(5328.300453 116.3229239 -703.8255536)
(5281.150701 127.1004374 -764.3171829)
(5240.664119 137.8377841 -820.2854691)
(5206.065789 147.9075431 -869.2617917)
(5179.05058 156.8655018 -909.8010465)
(5159.717491 164.5545481 -941.7792918)
(5146.749885 170.8829494 -964.5582472)
(5138.538015 175.2622398 -979.6915485)
(5135.268981 178.9874484 -986.9515544)
(5135.792561 181.812235 -987.041739)
(5138.51168 182.8972208 -981.2543535)
(5143.767317 183.0543954 -969.98835)
(5150.311385 182.4247115 -955.0255532)
(5157.615262 181.1511132 -937.4627267)
(5164.936143 179.8728859 -917.4651552)
(5173.64205 178.0180368 -894.9757588)
(5877.807061 27.93197788 -144.5815507)
(5841.383966 32.59188601 -177.1712756)
(5808.184322 38.03932701 -207.9453267)
(5758.340597 46.738439 -252.8977845)
(5687.368539 59.70313542 -316.1496951)
(5630.265437 70.77267189 -372.1336469)
(5572.238142 82.74390861 -430.8116494)
(5514.446143 95.45854706 -493.6534917)
(5456.045623 108.8770749 -558.2086974)
(5400.662064 122.4423745 -622.1505206)
(5349.885247 136.7541102 -684.6699886)
(5304.643977 149.8924466 -743.5327706)
(5264.820331 162.6139134 -797.8590995)
(5232.183853 174.5176962 -844.8013513)
(5205.427014 185.6096345 -884.922683)
(5184.332692 194.8095617 -917.9025356)
(5169.927692 202.2587587 -941.7569212)
(5161.004011 209.2431023 -957.3133736)
(5156.735235 214.1293043 -965.9108914)
(5156.399889 216.9841269 -967.6126469)
(5158.570848 219.0199789 -963.7832646)
(5162.861835 220.233488 -954.6444966)
(5168.745619 219.873987 -941.7973639)
(5175.704546 218.9003725 -925.7083365)
(5182.955442 217.3223359 -907.2258686)
(5190.557195 215.036186 -886.2091411)
(5901.096917 20.96257708 -124.8254486)
(5865.664195 30.52158278 -155.0944032)
(5831.428859 39.71511565 -187.493905)
(5785.96591 49.13820524 -228.9608278)
(5729.852305 61.95921398 -280.8225198)
(5664.471598 76.2510548 -342.7121383)
(5606.806166 90.27788918 -401.0852883)
(5549.702842 105.3345328 -463.1210129)
(5493.060352 121.0647663 -526.1397625)
(5437.78206 137.4584876 -589.3284556)
(5386.329023 154.0906664 -651.3617764)
(5340.020677 170.134127 -710.8022526)
(5299.762431 185.1109048 -765.2587876)
(5264.890009 199.8687603 -813.5007286)
(5237.043 212.6373897 -854.9129851)
(5215.393849 223.933316 -888.2436022)
(5199.393593 232.9241574 -913.3938176)
(5189.50001 240.3020837 -931.2354458)
(5183.728393 246.5446219 -941.4878933)
(5181.534265 251.2452521 -945.5031492)
(5182.312346 254.087626 -943.280652)
(5185.755869 255.9043821 -936.5162333)
(5190.665611 256.1243701 -925.3916633)
(5196.481905 255.1227611 -911.6109652)
(5203.247329 253.348402 -894.6392887)
(5218.170146 251.8083635 -875.9780287)
(5863.135777 38.75156762 -161.308481)
(5826.808867 46.64962187 -194.8570971)
(5793.470821 55.52037947 -226.8484018)
(5744.052549 68.1045243 -272.5241883)
(5675.573565 85.31715465 -335.2118316)
(5621.420695 100.4528785 -388.7481141)
(5567.306765 117.2869477 -446.6762769)
(5514.459572 133.7940287 -505.6158241)
(5462.179708 151.5626587 -566.0188781)
(5413.416804 169.9057519 -624.1726529)
(5368.506774 187.8440521 -680.3786726)
(5328.957468 204.4966357 -732.7074387)
(5295.138769 220.516518 -780.7349088)
(5267.643544 235.0056865 -821.4988143)
(5245.643193 247.7114204 -855.3434152)
(5229.275824 259.5121406 -882.149712)
(5218.403917 269.0355592 -901.1414261)
(5211.817974 276.1026482 -912.937613)
(5209.080085 281.3294368 -919.2121387)
(5209.162294 284.613832 -919.5793112)
(5210.890799 286.884867 -915.442383)
(5214.720136 288.0565213 -907.0068296)
(5220.208835 288.2029675 -894.4626957)
(5236.083408 286.837802 -877.6545895)
(5243.489492 285.6308278 -862.1284761)
(5875.878491 43.11410195 -150.2133693)
(5843.000347 52.6738556 -178.9391134)
(5812.240308 61.83027879 -208.8266085)
(5770.076088 73.82338145 -249.1440041)
(5716.368347 90.16301265 -299.2715023)
(5654.351362 108.9238307 -358.6093534)
(5603.21377 126.0791371 -413.0176327)
(5552.000702 144.7995654 -468.9736537)
(5501.97615 163.7890149 -526.2897535)
(5455.945008 182.2222464 -581.9487386)
(5411.931147 201.4419842 -637.0078263)
(5370.817445 220.6010381 -689.4330153)
(5337.608814 238.0220558 -735.0988077)
(5309.694944 254.3378254 -776.4957368)
(5287.092977 268.8280861 -811.4403747)
(5269.653521 281.4322695 -839.2946368)
(5257.272457 291.9301545 -859.7666229)
(5248.866138 300.7516227 -875.2138253)
(5243.739006 307.3929525 -883.952697)
(5242.623348 312.0235313 -887.3038763)
(5242.618729 314.6854477 -886.0423984)
(5244.62084 316.2987688 -880.1795956)
(5248.256488 316.9653234 -870.6488915)
(5263.11944 314.7116536 -857.1595087)
(5269.560549 314.0530251 -844.2498152)