/*--------------------------------*- C++ -*----------------------------------*\
| =========                 |                                                 |
| \\      /  F ield         | OpenFOAM: The Open Source CFD Toolbox           |
|  \\    /   O peration     | Version:  v1706                                 |
|   \\  /    A nd           | Web:      www.OpenFOAM.com                      |
|    \\/     M anipulation  |                                                 |
\*---------------------------------------------------------------------------*/
FoamFile
{
    version     2.0;
    format      ascii;
    class       volScalarField;
    location    "3.2711";
    object      wallShearStress_mixture;
}
// * * * * * * * * * * * * * * * * * * * * * * * * * * * * * * * * * * * * * //

dimensions      [1 -1 -2 0 0 0 0];


internalField   uniform 0;

boundaryField
{
    symmetry
    {
        type            symmetry;
    }
    inlet
    {
        type            calculated;
        value           uniform 0;
    }
    orion
    {
        type            calculated;
        value           nonuniform List<scalar> 
1990
(
0.7686495301
0.1152217218
0.7485484639
0.09901650263
0.6693880717
0.07334435173
0.7133155213
0.0003787491306
0.7314249167
0.0004272897932
0.7176645371
0.6278885067
0.0004934818277
0.6504325396
0.7306134749
0.009659509246
0.8841685221
0.1839593212
0.8632338116
0.0002333600574
0.0002585635306
0.7474805014
0.0002699340229
0.7567514777
0.0003023609923
0.7756814051
0.0007075054917
0.7909836257
0.9905906443
0.2224490914
0.8753187661
0.8704753968
0.8687703472
0.0002176143185
0.9015266064
0.00022746417
0.8310414918
0.0004609899377
0.8838004342
0.7786872849
0.001246091897
0.9197030268
0.0244021532
0.9214714916
0.000181233161
0.9263619517
0.0003181762208
0.8989355209
0.0004441799132
0.9538210807
0.000854274438
0.839610961
1.040512504
0.0001290299201
0.0001280781696
0.9727550698
0.0002653631663
1.030977205
0.0004229269111
0.9651632046
0.9724713817
0.538062668
0.06868858912
0.0001184475924
0.000118735437
0.0001348879914
1.023448212
0.0001960537735
1.069984704
0.0005407079815
0.9988858333
1.104312636
0.9954240217
0.006758434298
0.07815914399
0.0001077575466
0.0001436893411
1.051123149
1.117450449
0.0005860720168
1.034544412
1.136915275
1.05328391
0.00329870503
1.249660199
0.007508324271
0.7707263286
0.1301566258
0.0001254921553
1.033584652
0.0001487798217
1.101313945
1.16330453
0.0003342395468
0.000650166345
1.092701788
0.002214185223
1.127056777
0.004000562887
1.012726889
0.02480395869
1.023326728
1.026227281
1.047798471
1.083919674
0.0001433448812
1.150403308
0.0003642587075
0.0008152829949
1.19534833
0.001737151082
0.003041146119
1.203126765
0.005449450433
0.01602632288
1.093081766
0.04119219681
1.083406973
8.791731266e-05
1.071978762
8.772234191e-05
1.071471072
0.0001660432498
0.0004194176559
1.152624608
0.001037924461
0.002400904893
0.004151511119
1.246450913
0.01125972296
0.02862384012
0.5949324454
0.06970029432
7.705469475e-05
7.824441728e-05
0.0001012905657
1.041463186
0.000286031819
1.153128847
0.0005608652955
0.001464420219
0.003364571928
1.26214541
0.009919720483
0.024360511
1.432065838
0.04148179588
0.9279780023
0.9432051025
0.9750555707
9.922078099e-05
1.084773676
0.0003989928398
0.0008529023837
1.104549469
0.002423988648
1.225444423
0.01345176972
1.575020163
0.04883245361
0.9486571093
0.1921517864
0.1058524162
9.999965579e-05
0.9839300792
0.0006143265105
1.093884316
0.001423443705
1.010188747
0.0124675279
1.532491437
0.04568800427
0.03053005612
1.207552345
0.1174174997
0.100044052
0.7606368749
2.810617048e-06
0.7973702495
0.8762510604
0.8640984713
0.01201161922
1.696133903
0.04333808666
0.02858018658
1.3805644
0.1897363087
0.1618950366
0.1469898874
0.114108584
0.0006758868379
0.0006433485467
0.001114830298
1.053114209
0.01033009609
1.570028052
0.03217988094
0.7973437313
0.3503399408
0.2857409655
0.2827017181
0.2552539512
0.1946763646
0.1491751208
0.1129678316
0.09001235659
0.0008111851141
0.0007835968636
0.0008197345505
1.783478988
0.001211371887
0.008651617924
0.9303657446
0.5514742493
0.5003842286
0.03775454021
0.4236708251
0.3888204618
0.3027738622
0.2510058375
0.2202042432
0.1878317539
0.1574467244
0.7639525495
0.6585527737
0.001057020751
0.7411606635
0.667100132
0.001059472146
0.6960903636
0.6539009337
0.63665048
0.001054892872
0.6366901493
0.6162667476
0.6086143419
0.0011361661
0.482298895
0.4800567797
0.4591181909
0.04072080564
0.2973553208
0.2442851885
0.1955533622
0.1538753076
0.6029963704
0.585668121
0.001456501167
0.5703819893
0.5808553773
0.548564168
0.001462477635
0.5216777924
0.511981216
0.5084465793
0.001541947311
0.4336688867
0.3919214091
0.3750692769
0.001465228641
0.5126793677
0.5296979122
0.4956885678
0.002265919478
0.5097037498
0.4729747458
0.002163469986
0.4214947774
0.3900463958
0.3415169316
0.002251183704
0.6571627086
0.6529120413
0.6680837167
0.4302132377
0.7637779518
0.4200341211
0.1076359518
0.00694268295
0.007026175419
0.6901652632
0.6565251148
0.7139380165
0.39224441
0.7126012522
0.3594695813
0.08206761004
0.007294289869
0.007325169936
0.7380134707
0.7170108184
0.3016241739
0.2488862958
0.6431977551
0.8079315827
0.834213892
0.2210309649
0.4913471183
0.02309563186
0.7208129737
0.09646357733
0.302596866
0.7332148704
0.7736332159
0.7360936484
0.7262191744
0.6585349814
0.7379392163
0.7818877997
0.7346158326
0.6497961958
0.714707115
0.6557998792
0.722789646
0.7387356897
0.6976463531
0.6918567311
0.676470688
0.637381771
0.001666910785
0.7477470343
0.7548588269
0.689952776
0.6954696904
0.6994703449
0.7118584902
0.7491539223
0.6770236614
0.7651247047
0.7159587121
0.0459280737
0.7762337804
0.8445828071
0.5583536837
0.7896036101
0.4184516963
0.02527039161
0.1152882501
0.01204354566
0.8429883778
0.8235083943
0.4671354226
0.1433206304
0.8522781349
0.8584744041
0.7856047236
0.8773945119
0.7911819086
0.8696353462
0.8667172089
0.793579467
0.7800948816
0.7995855676
0.0002547015226
0.8884166064
0.8958639787
0.7984148288
0.8031369513
0.7945022336
0.806666763
0.7588485198
0.8106897436
0.811888166
0.8363130422
0.7546566196
0.8000494579
0.8128121254
0.7749288054
0.7353743711
0.8262691515
0.8304234078
0.7372983493
0.7589580489
0.7696796331
0.7089993455
0.8169798119
0.7649918394
0.8761211418
0.8895105169
0.9302887481
0.4432549083
0.7279643905
0.1351001718
0.9756676907
0.9661792545
0.8831020878
0.8763016135
0.892489893
0.9585958661
0.8777545
0.8692145869
0.8844366804
0.8933913994
0.882541108
0.0002370396609
0.904151975
0.9101516315
0.9112100703
0.8419997845
0.9544747772
0.8692837318
0.8730511748
0.8985182061
0.7957457702
0.8882374165
0.9032021057
0.9513182927
0.8616606236
0.8387847716
0.8945656049
0.9257644395
0.8001048373
0.8451521087
0.8424564507
0.8888364834
0.820852439
0.8679868381
0.8877869218
0.948954677
0.6584127002
0.8562363569
0.2948333328
0.1006161282
0.9588324582
0.9860836686
0.9893183071
0.0001626578584
0.0001447044956
0.9467960365
0.984677818
0.9749213811
1.01843352
1.00137362
0.9171594544
0.947893359
0.9294688319
0.9686639987
0.9875278408
0.969536159
0.9441231402
0.9801128366
1.005355016
1.001049818
0.9339590031
0.9144252131
0.9604488119
0.8728321191
0.8847898251
0.9143508092
0.9394250855
0.8960091762
0.9383588696
1.02737938
1.165191867
0.7206868372
0.877853511
0.1511254087
0.9620828053
0.9772535366
1.005147583
0.9763620831
1.006634613
0.0001604914127
0.9940016916
1.021397737
1.018135867
1.032138341
1.019139211
1.076549309
1.036568368
1.052434685
0.9486136232
0.992667607
1.032914829
0.995461747
1.063530837
1.001552864
1.039301538
1.042910921
0.9399623615
0.9881630806
1.008510407
1.014148104
0.9265684958
0.9578321786
0.9914716327
0.9870747903
1.014845595
0.9034008151
0.9808126414
1.097637665
1.10769239
1.023389408
0.5390218256
0.2437443062
1.006390706
1.03462166
0.0001193534917
1.013043424
1.022577322
1.045932229
1.037045422
1.043462546
1.057876669
1.06681362
1.068369987
1.106230458
1.037761865
1.0736506
1.057601474
1.096490605
1.108328863
1.144672635
1.036345043
1.047424865
1.070391491
1.003172839
1.053747273
1.009822984
1.019242533
1.05278532
1.035118236
1.068905916
1.04848867
1.192794406
0.9717839327
1.140810777
1.061663013
0.6751288548
1.024249526
1.051057105
1.05427156
1.059312521
1.059468997
1.07641918
0.0001141493538
1.067356261
1.074209586
1.122175673
1.116791671
1.13430317
1.099098318
1.11466423
1.088869208
1.156152791
1.029361984
1.054262661
1.095561611
1.076534453
1.113060275
1.056927414
1.10163525
1.060025216
1.101289479
1.131395544
1.087716725
1.22597424
1.246216624
1.077057713
1.123862152
1.109302645
1.092685771
1.108468288
1.103354327
1.102792868
1.056682604
1.077096299
1.107661493
1.064046732
1.160487327
1.177925066
1.134431587
1.052486358
1.089672045
1.087026066
1.100568913
1.135720222
1.142329435
1.193215069
1.14543541
1.170896455
1.221614527
1.168557036
1.217065677
1.16753868
1.349170167
1.379963696
0.6975689722
1.070404923
1.062014736
1.024714829
1.063294074
1.071458393
1.028502353
1.062699368
1.064133065
1.051984914
0.0001543694828
1.090463816
1.103082109
1.108116753
1.063432251
1.105739726
1.146778855
1.144335148
1.181535915
1.094563035
1.151521994
1.087527493
1.241045729
1.254689099
1.257442815
1.247504632
1.258620075
1.345218841
1.29233344
1.474551431
1.069862585
1.003370003
1.08579499
1.005362147
1.001117553
9.046972119e-05
1.077680332
1.03354705
1.013828888
1.086344238
1.074909414
1.131838074
1.116867589
1.040480977
1.101637292
1.129295065
1.074994102
1.224758589
1.187480103
1.213542075
1.197218752
1.289189467
1.211475826
1.254374958
1.209220324
1.285185117
1.527467897
1.647906977
1.075990935
1.022657861
1.036908469
1.028437788
8.206086077e-05
1.008575954
1.011130596
1.03710441
1.025945055
1.057354598
0.9601828021
0.9880888351
1.019488748
1.044722138
0.9960094983
1.130881522
1.145973487
1.086392058
1.172893979
1.116653299
1.196503777
1.17247463
1.247504451
1.183599984
1.221009989
1.181435599
1.358098675
1.308257618
1.40532591
1.666663713
0.9492289481
0.9821885594
0.9329119533
0.9916188311
0.9613120632
0.9453792384
1.011897194
1.021282183
0.9288162305
1.066397904
0.9907811747
0.9965110137
1.054127249
1.054794423
1.113460722
1.205461136
1.142056273
1.0651414
1.144836298
1.213920789
1.15689594
1.327831889
1.391309585
1.177458113
1.673313682
1.815680973
1.352161188
1.175516138
0.8563446676
0.8551472067
0.860282433
8.019934018e-05
0.8774493222
0.8990831738
0.884177977
0.9090376729
0.9620748639
0.8512000364
0.885346159
1.034200433
0.9329612294
0.9545661242
1.044562564
1.084146336
1.027081391
0.9703500006
1.116905627
1.223934427
1.289332768
1.653777812
1.25242232
1.56073074
1.346344799
0.9111621347
0.923036086
0.7719326215
0.8382049588
0.7739828298
0.8751498659
0.0007929285481
0.0007260932562
0.8767552458
0.9579396778
0.9808798163
1.070398549
1.03002286
1.077066234
1.14376071
1.079383477
1.243808885
0.8948878416
1.248149711
1.54535475
1.647825166
1.638131281
0.9097185881
0.1370489187
0.3085139829
0.5948940258
0.4405655438
0.6819633048
0.5590986497
0.8798879853
0.9920006734
0.8961053139
1.18126084
1.591899489
1.345349161
1.715522401
1.666352748
1.676233982
1.58307256
0.4362447387
0.1072042199
1.528203835
1.558652812
1.670069219
0.8955317537
1.830228803
0.6853776213
0.4168249606
0.3155451132
0.5566852655
0.5881675446
0.524150785
0.5667547662
0.5408311707
0.5056099485
0.5376178438
0.3502170527
0.9939187014
0.6530163179
0.655660046
0.6541418438
0.5140346402
0.03232299215
0.002356486964
0.3638760293
0.7726361401
0.778335033
0.683237607
0.7425692569
0.713426374
0.0004349918132
0.7510755934
0.004141956509
0.01618315001
0.0002027134317
0.0002066391971
0.816531503
0.8563318241
0.8358535998
0.8061723894
0.0007457070836
0.5114494737
0.80993508
0.9471844813
0.9507696629
0.9619364231
0.9559959857
0.0001699605666
0.9872493416
0.9658721931
0.0001790380773
0.9215475361
0.0004123890818
0.857333462
0.001378714221
0.6203716019
0.8858407293
0.3753496487
0.1123963658
0.01245269204
0.04328937852
0.9812822417
0.9724365158
0.0001424929073
1.038127947
0.0001992836889
0.0001833885156
0.9247873623
0.0003127342474
0.0007505190572
0.0009729353735
0.9361142877
0.004133717093
0.9995066696
0.997841078
1.011388566
1.056651876
0.0001530772593
0.0003111226536
1.042180047
0.0008443658755
0.9823798148
0.001453294602
0.001716735137
0.002677534752
0.003942684211
1.002170572
1.036235052
0.0001170246552
0.0001065014229
1.042893251
1.031084658
1.075597214
1.096758577
0.0002602212113
1.069778364
0.00103095072
0.001023509732
0.001834323273
0.002129609174
1.067469962
9.213153304e-05
1.081776405
0.0001072434106
1.112701068
1.101871782
0.000231516727
0.001245322957
0.001251425718
1.231537543
1.271073395
0.0086235923
0.01318568669
0.01413801589
0.1972714619
0.08572311604
9.005028027e-05
9.655748487e-05
0.0001084487111
1.088136933
1.12804402
1.14774168
1.204623978
1.280875281
0.2946356585
0.0001124535209
0.9931817878
0.000255926204
1.16001197
1.134410664
1.28573471
1.532548255
1.446728814
0.03650982973
0.9878332971
1.021696928
1.03454716
1.066722068
1.081400548
0.0001730329594
1.244163604
1.169942562
0.7785319364
0.0564936044
0.06462260855
6.839129661e-05
7.765364171e-05
8.09574631e-05
0.0001973904336
0.0002677316499
1.091022258
0.008170673545
0.01037127693
1.336051745
0.0212998832
0.04695043043
0.06482468191
0.07761571076
0.8716679975
6.768369288e-05
7.532661974e-05
0.9154180235
0.9508710879
0.9969545816
0.000220255547
0.007601707514
1.339266939
1.433107448
0.01626010838
0.01978487976
0.08849944388
0.3087764422
0.2205905413
0.1604441679
0.0006110948214
8.107885541e-06
0.0001274652075
0.0001397183015
0.0001674853099
0.0006603419405
1.180083023
0.003652372458
0.006284792852
1.236874291
0.01844375387
0.06309380799
0.9640332211
0.3039766318
0.2409837579
0.2545872763
0.9093557514
0.94332169
0.6823778553
0.633050369
0.001390371939
0.004418843479
0.4964873442
0.06881447037
0.04675314128
1.536369768
1.510163192
1.522991437
1.527084422
1.583097679
1.673659988
0.7217115089
0.7999228619
0.6194109787
0.5461932971
0.5841638832
0.5502031911
0.4447200279
0.38678677
0.3705555288
0.3381684702
0.08866991243
0.05923052455
0.07794043512
0.6058645671
0.6286218743
0.6578895027
0.6258121152
0.6100676693
0.5578631135
0.5708455881
0.5274591784
0.5178503788
0.4918045537
0.4722363618
0.4100099034
0.3881839554
0.3675901576
0.2989968607
0.1428637748
0.1928447318
0.09587587309
0.06401596196
0.08601232495
0.5708524211
0.5468003657
0.5476675831
0.5239766095
0.500703799
0.3498832787
0.29710338
0.1888999254
0.2437339942
0.1355336872
0.1032554155
0.5005733319
0.1088885338
0.4271967546
0.4593258645
0.421364111
0.03873493443
0.007677824296
0.1359510234
0.0003252443415
0.0003318312633
0.0003541179134
0.0004885438275
0.0003031245852
0.0002741553453
0.0003290468069
0.0003883484228
0.0003864087643
0.6627449168
0.003172254024
0.0006283113289
0.002358694174
0.0007203903682
0.5849246029
0.2175607645
0.003537066475
0.04753584879
0.806611705
0.0002412041706
0.0002131258914
0.0002121048611
0.000292435626
0.0002359778575
0.0002910454623
0.000239145398
0.0002200079839
0.7684478727
0.0003271094222
0.0003314915782
0.0002580904866
0.7493421571
0.000422391126
0.0003807215196
0.0003691341358
0.7414833989
0.0006662881483
0.000561288739
0.0005028970387
0.6168809468
0.07203579881
0.0009400084696
0.000791871399
0.004699620038
0.2155912784
0.02133063711
0.08246474257
0.0001993657915
0.0001682907583
0.0001697459557
0.0001870505509
0.0001747760625
0.0001985817216
0.000197805056
0.0002254660067
0.0003119236426
0.0003134147475
0.0002208282666
0.0002968076342
0.0002909802006
0.0003192682913
0.0002847898853
0.7843201813
0.0005453561595
0.0004591774014
0.0003972962856
0.0006735721814
0.0006937858773
0.0004656141482
0.001225079464
0.006801043275
0.001041222283
0.0009123489706
0.3249737428
0.03418836367
0.001902631772
0.007721092499
0.0001608112268
0.0001443269825
0.0001515993184
0.0001550861767
0.0001823271042
0.9297508477
0.0001948895477
0.0001498597852
0.0001891932415
0.0002505353439
0.0002206037858
0.0002115992968
0.8978345107
0.0002914809572
0.0002827645751
0.000250632882
0.0004384959391
0.000455056554
0.0003693235935
0.0006182083378
0.0006498103565
0.0004539626294
0.001108954219
0.0007229996855
0.001092667358
0.0023736316
0.003266513542
0.001192739477
0.001782260036
0.3887960008
0.1779400312
0.04801354039
0.0138425755
0.0001326680454
0.0001183100794
0.0001237351001
0.0001150866539
0.0001264726753
0.0001805294322
0.0001690561154
0.0001481693844
0.0001816951474
0.0002567233985
0.0002230057876
0.0003428846182
0.0003224845896
0.9550137899
1.043088415
1.006880043
0.0004333606102
0.0002795732729
0.0004545943256
0.0006892247933
0.0006384394501
0.0004755729467
0.001214019351
0.0009725791786
0.0008932792719
0.001719422233
0.002630675732
0.001741039311
0.002516714295
0.00129909132
0.8829836434
0.01922337617
0.003457794282
0.1524804512
0.08557007332
0.007344010596
0.02894024271
0.0001180547528
0.0001254480151
0.0001153067901
0.0001057858459
0.0001588008351
0.0001189127061
0.0001541097776
0.0002242237392
0.0001670123123
0.0001780931208
0.0002307473272
0.0003005800338
0.000251760374
1.001151672
1.039629471
0.00038634306
0.0003628586152
0.00032946728
0.0006025408891
0.000640530691
0.0005564619566
0.0009863890843
0.001656873182
0.0009824230019
0.0009557646307
0.001844382682
0.003106519844
0.004814419107
0.004090157874
0.007019157306
0.003443805814
0.6966486991
0.2214018982
0.3644973858
0.12731603
0.02787925547
0.01178988705
0.04341446538
0.01246301431
9.338174546e-05
9.310052001e-05
0.0001108546948
0.0001231753721
0.0001131559915
0.0001362246589
0.0001503066248
0.0001165418948
0.0001276897971
1.051475372
0.0001895071686
0.0001781670204
0.0001869112635
0.0002404387598
0.000378917524
0.0002549292256
0.0002334613162
0.0003203512546
0.0004206524712
0.0003587796848
0.000704718754
0.0007054054593
0.0005804402196
0.001204072344
0.001099859568
1.067509857
1.11383528
1.177753384
1.08803675
0.003192722407
0.003164430973
0.002044166157
0.001772787548
0.004445090355
0.005864927793
0.003553072884
0.007197536516
1.233832784
0.9581753088
0.471282588
0.5805801381
0.1938914778
0.05134586515
0.05469371336
0.01285018123
0.0222274459
0.01563867079
0.009110768295
0.008092998327
9.626612344e-05
8.423067242e-05
8.537090792e-05
1.030866716
0.000103181749
8.841582301e-05
0.0001018829528
0.00014193788
0.0001035020207
0.000134081459
0.0001774029873
0.0001584527279
0.000217764263
0.0003043579376
0.0002933400511
0.0002218369361
0.0004341006694
0.0003469552534
0.0005036147621
0.000739541711
1.098989208
0.0007735903575
0.0008643776572
1.114930569
1.160129179
0.002278482052
0.001541146511
0.001914664792
0.002561540667
0.003518621232
0.004064154706
0.004364019263
0.007243352407
0.008926408424
0.007367590401
0.007802777728
0.00789817954
1.124249931
0.8297682188
0.07406187835
0.02913554803
0.01744229372
0.02400972166
0.2696172193
9.357667525e-05
8.836368651e-05
7.533404623e-05
8.826508541e-05
0.0001142308253
0.0001006539409
0.0001002096247
0.0001140268113
0.0001452127711
1.027264978
0.000192907718
0.0002188634466
0.0002104799347
0.0003521010725
0.0002263975245
0.0003585678856
0.0005568701484
0.0003821421709
0.0006307081609
0.000886728948
0.0009675762924
0.001163228689
0.001986271508
1.143352822
1.174220996
0.002254278125
0.002760680692
0.003522095752
1.176644844
0.007255741874
0.008653279582
0.00447139538
0.006029240837
0.005492639454
1.093169208
0.008579127991
0.01280761925
0.01312949475
0.016386422
0.009440840464
1.446160983
0.8684241117
0.9724841104
0.4488633926
0.1047231126
0.1762131353
0.04562194167
0.02171079342
0.02746959742
0.03148418086
0.0382789977
0.0168964169
0.01678242342
0.02286344876
9.485951086e-05
7.094022284e-05
7.573696567e-05
8.933773927e-05
9.869815899e-05
0.0001134044169
0.0001250576856
0.000118959499
0.0001973176768
0.0001938786299
0.0002868072772
0.0001705285207
0.0004284864482
0.0004397576247
0.0004772987081
0.0007349800841
0.0008913770883
1.168280861
0.001368346236
0.001719074308
0.0011846327
0.005227757409
0.004978789255
0.006905095327
0.003024417375
0.003170833447
0.002704901762
1.126467734
0.006767081386
0.01043049583
0.01092787646
0.01314034399
0.01601770245
0.008050996795
0.01801144493
0.01972225282
0.02241577462
0.03485260891
0.01403477792
0.01572749419
0.02123555869
1.481972209
0.8506553135
0.5810998244
0.3080258283
0.1779920805
0.3074814704
0.1191046993
0.08412042763
0.04535070614
0.06075406298
0.05131577309
0.03411432809
0.03393150874
0.03623482576
7.495507033e-05
7.995484543e-05
8.855862272e-05
7.847657999e-05
9.216496581e-05
0.0001279683918
0.0001390238584
9.860257932e-05
0.000222655172
0.0001711479377
0.000227006691
1.075093665
0.0004091142641
0.0004724942461
0.0003557342455
1.121234971
0.00105639431
0.001286568162
0.000674696267
0.003748888177
0.003799019405
0.005108727808
0.002076196787
0.002210750964
0.001929512831
0.009020793901
0.005947626473
0.006709458656
0.00681697904
1.612984023
0.01744316492
0.02904247992
0.01868665024
0.02303002746
0.0248062082
0.01157076242
0.01606590976
0.01178523362
1.763042469
1.461206143
0.08259145249
0.06725745022
0.06338107042
0.06788933867
0.05535602905
0.043360415
0.03688377585
0.03649685352
0.02338026733
0.02982016543
0.04250168549
1.240135523
0.8751483114
0.4211632363
0.4433466478
0.1299632905
0.1160159656
0.07525390056
0.09167656616
6.569618744e-05
6.400419992e-05
6.99374327e-05
9.806993744e-05
8.214684951e-05
0.0001552135811
9.50782802e-05
0.0001675292522
0.0001851544744
0.0003047209434
0.0005677450124
0.0006969635792
0.0005193992517
0.00356881
0.001527747503
0.001864940886
0.001110410646
0.003208891979
0.005056387874
0.00640968336
0.007767710306
0.002807064216
0.00582391914
0.01724562275
0.02198363436
0.02597745127
0.01076997495
0.01685957466
0.01334685212
1.725655181
1.390837349
0.07204311024
0.05436300634
0.04338710878
0.03362445916
0.03087961696
0.05409142578
0.06234856452
0.03923610396
0.0315962785
0.02594151612
1.548827428
0.5972629276
0.1922174613
0.1421915659
0.1242908075
0.1174059713
0.0705905214
0.08358655423
0.1018017494
0.08553503739
6.410415227e-05
8.137127871e-05
9.708552936e-05
7.674067507e-05
7.914772082e-05
0.0001594170015
0.0001623519057
0.0002561257114
0.0003680176291
0.0004774285261
0.000875821123
0.001141132019
0.000705325312
0.001230077469
0.001606327174
1.181819061
0.003284878423
0.004978947266
0.009233097001
0.005686857743
0.002306686014
0.002846327788
0.004652451049
0.02171353802
0.02736166065
0.009479267739
0.01563918039
0.01220592958
1.797959625
1.811758518
0.07703118135
0.07568337355
0.03666904677
0.0477868752
0.05171228785
0.03788423257
0.03448465945
0.02475008585
0.04320307066
0.8585904547
0.4502393924
0.3224907885
0.2599583386
0.2040580769
0.1299409614
0.1560376786
0.2008191614
0.181862803
0.1875848099
0.1201224807
0.1334661134
0.1301283736
0.1494435731
0.08262161917
0.1197374128
0.09929498278
0.1105578874
0.0617763203
0.1010507516
0.04528663139
0.06185141439
0.7300444797
0.182345705
0.1896852093
0.001431844125
0.0006289873348
0.001400095042
5.619997789e-05
3.284013224e-06
4.663780846e-05
0.0003084907447
0.0001327760464
6.978453735e-05
1.033132986
0.0007967427499
0.0004710400133
0.001996362007
0.004432153407
0.001743443713
0.003332715428
1.471020325
1.351459859
0.01585651425
0.02141683782
0.008086933265
0.01086256733
0.007785448334
0.01544838357
1.596816928
1.236167117
0.5830791027
0.05446975689
0.05277005582
0.03765931265
0.03567627518
0.02517182874
0.04380234887
1.705169264
1.130234221
0.6082350091
0.3463574506
0.3152703801
0.2687752021
0.2440903524
0.2220185407
0.2139650801
0.2400999021
0.2056135303
0.1664104014
0.1958213748
0.1746305298
0.1334942162
0.1183268724
0.08816921198
0.08713462141
0.1307635185
0.07537858216
0.09743686918
0.09853618844
0.0756735963
0.1160910165
0.05651073434
0.07385324485
0.2832216516
0.2204465401
0.0007397652033
0.0007234891113
0.0006598757985
0.000737013778
0.0006727104078
0.0007262801077
0.0005067810132
0.0004104687498
0.0007071995171
0.0009893253542
0.0008512376391
0.00241028553
0.00126661438
0.003778405744
0.000606066971
1.387086058
0.5948974193
0.006949544259
0.01002958446
0.01330208782
0.02036432914
0.00616304168
1.369956843
0.6899308104
0.5633229732
0.5217815925
0.5009280613
0.5258904811
0.397479398
0.4761389798
0.4226542796
0.4700103807
0.3697628488
0.09104619967
0.09486257405
0.06424513677
0.05187345419
0.04522338038
0.03636634901
0.01926012653
0.02841260514
0.04457804223
0.01673765715
0.02030072776
0.02542403565
0.8779500098
0.4679195065
0.4419052785
0.3424537461
0.4489043034
0.3777506082
0.3084705239
0.3331663662
0.3374757815
0.3304529153
0.3420974293
0.2780003822
0.3136993903
0.2851146845
0.2553293841
0.215830528
0.2226701652
0.1659266794
0.142612827
0.1697595894
0.1759646035
0.1984787496
0.1382513926
0.1352531557
0.1548370469
0.0860032607
0.1134563954
0.06512649009
0.07735944628
1.542846131
0.7455046064
0.6862566931
0.7380737701
0.7547906154
0.7268664462
0.652525273
0.0009344530352
0.000916967341
0.0008266873401
1.551900902
0.7021484189
0.6555188932
0.7128253679
0.7234271742
0.7132903662
0.6681464322
0.6321455801
0.0009049307677
0.0009040407119
0.0008322632598
1.091894235
0.7283242669
0.6748874362
0.6336265388
0.6437971504
0.6354992512
0.6488067361
0.6874291385
0.0009165521052
0.0009586553451
0.001069684783
1.050373695
1.163086156
0.6895424158
0.673635334
0.5760695286
0.6008201848
0.6310493379
0.5522417129
0.5518974153
0.5497702864
0.5726513144
0.4814627193
0.0005710806533
0.0039349994
0.0009614179079
0.0008798493754
0.009449452696
0.6055604758
0.5445534062
0.5268999331
0.5005996471
0.5413782698
0.5295069534
0.5001808159
0.4449954767
0.489474477
0.4860185749
0.4069382412
0.3515539226
0.428960136
0.360607188
0.3855822463
0.3248358236
0.3107561604
0.2816294192
0.2702835214
0.2446661823
0.1117931887
0.1247290199
0.05703223125
0.05242010577
0.03639955433
0.02612536629
0.01415667715
0.01929217176
0.02670772975
0.4421966123
0.4621239629
0.3808784577
0.4275910919
0.3463811694
0.3074175993
0.3377818507
0.3003454569
0.2951018179
0.2737447621
0.2548238101
0.2768941758
0.2247856554
0.2695127327
0.2288120034
0.1885304197
0.2371990578
0.118811469
0.1259765578
0.1833293762
0.1457619941
0.1247662125
0.1468181908
0.06640027195
0.09276218668
0.6593198302
0.7051985447
0.6847194474
0.6499872852
0.6582953895
0.5794637041
0.6369069903
0.5852267218
0.6001054763
0.5885911039
0.5639714153
0.5586430531
0.589866053
0.001216235603
0.001187547971
0.001053314228
0.001456437809
0.6441317331
0.5583483545
0.6469979763
0.5794617081
0.6197348423
0.5822135694
0.5983010316
0.5352014413
0.5773203525
0.5337159859
0.5574846908
0.55202011
0.001221191244
0.001207188239
0.001054547962
0.5999627165
0.6180875302
0.5517299502
0.5907084008
0.5402331824
0.5619968042
0.5509587883
0.480022795
0.4970338197
0.4883846731
0.5116779417
0.4616319933
0.4694842601
0.001272929547
0.001294416616
0.5299569206
0.5389519551
0.4745203771
0.4188415802
0.4627780334
0.4657407592
0.4283453672
0.4251181854
0.4582327321
0.4016215504
0.3896494107
0.4391613117
0.3971112197
0.3436551891
0.3712308872
0.3005697726
0.3611491558
0.3295579275
0.2409811743
0.2888664641
0.2086992059
0.2385695338
0.1541618151
0.2099326019
0.1322325202
0.1541168795
0.07487419671
0.001204698613
0.001711838367
0.001299874571
0.01718850985
0.05727833683
0.01333774763
0.3500371456
0.4035759506
0.3452705074
0.2582827374
0.2271535912
0.1751112169
0.2025331505
0.1695104696
0.08572241351
0.1188348453
0.05380457222
0.5514197725
0.5401625508
0.5325717665
0.5673443568
0.5331851562
0.5266115218
0.5154817178
0.5096492774
0.5244221533
0.5077201988
0.4991871971
0.001754569118
0.001794216114
0.5195232454
0.4965153483
0.4954583232
0.511768312
0.5452401407
0.4996988817
0.5043660968
0.4855049156
0.4910224803
0.4978984322
0.4285553231
0.4867331148
0.4416968304
0.4684314612
0.4600767839
0.4419440956
0.001805349503
0.00184250253
0.001496341617
0.001851524477
0.4608650004
0.4600408575
0.4574876531
0.4126230272
0.4304181734
0.3892755616
0.3849486366
0.3597859448
0.4088085166
0.371397367
0.2633814943
0.3277524514
0.2967257753
0.2685377316
0.001954564125
0.001760978866
0.001517867062
0.02081873374
0.3242751619
0.3573968462
0.270697692
0.3166623307
0.2126846402
0.06152233491
0.01948701755
0.5066190253
0.488107398
0.4633827467
0.4796794686
0.4920390304
0.4663086131
0.002506207186
0.2491917824
0.001997179934
0.002212044672
0.4562574579
0.4213053208
0.008826429009
0.4350890096
0.05625255337
0.1370834807
)
;
    }
    spline
    {
        type            calculated;
        value           uniform 0;
    }
}


// ************************************************************************* //
