/*--------------------------------*- C++ -*----------------------------------*\
| =========                 |                                                 |
| \\      /  F ield         | OpenFOAM: The Open Source CFD Toolbox           |
|  \\    /   O peration     | Version:  v1706                                 |
|   \\  /    A nd           | Web:      www.OpenFOAM.com                      |
|    \\/     M anipulation  |                                                 |
\*---------------------------------------------------------------------------*/
FoamFile
{
    version     2.0;
    format      ascii;
    class       volScalarField;
    location    "3.2711";
    object      wallHeatFlux_N2;
}
// * * * * * * * * * * * * * * * * * * * * * * * * * * * * * * * * * * * * * //

dimensions      [1 0 -3 0 0 0 0];


internalField   uniform 0;

boundaryField
{
    symmetry
    {
        type            symmetry;
    }
    inlet
    {
        type            calculated;
        value           uniform 0;
    }
    orion
    {
        type            calculated;
        value           nonuniform List<scalar> 
1990
(
1993.325292
208.0456612
1845.080569
175.1770989
1520.658923
128.2611899
1915.746233
0.5747177525
1944.595489
0.6292991032
1908.047068
1656.836491
0.7647006205
1685.649939
1984.966347
15.15520962
2249.227118
349.4913586
2501.349829
0.3412004697
0.3970948211
2097.184023
0.4321830107
2118.407853
0.4703561946
2130.546386
1.082403834
2060.80283
2432.375679
448.3720615
2644.339517
2614.072038
2619.790546
0.3198088079
2710.720904
0.3397753823
2382.111239
0.7033373822
2533.041891
2148.412245
1.888962679
2640.922341
41.67770818
2952.667053
0.2709871649
2900.216221
0.4992383622
2680.500996
0.6788657134
2830.786487
1.331121234
2381.83267
2868.179482
0.1795777599
0.1920146437
3255.85915
0.3855083247
3378.155979
0.6395642919
3008.322523
2815.057986
1294.553389
120.8683737
0.1819161742
0.1633482417
0.2020336357
3683.037181
0.2998382053
3777.556666
0.8142223332
3335.655647
3483.696287
3106.623633
11.07226278
150.432261
0.1650761611
0.1959530199
4065.436166
4158.788343
0.9034423835
3659.529349
3824.97535
3483.134405
5.382131356
4058.289291
12.57918181
1919.481961
266.1038133
0.1810401323
4466.300041
0.2252789165
4560.029755
4560.768198
0.5290093102
1.01971828
4090.142418
3.5925139
3889.519016
6.652946863
2652.275562
43.99952549
4876.658519
4857.600511
4883.433483
4999.994028
0.2141659526
5105.393574
0.5708873665
1.309414578
4758.061714
2.792793778
5.030722923
4405.860673
9.102034064
28.58437984
3030.898466
76.09122577
5474.505767
0.1389093097
5508.665776
0.1228557048
5339.021604
0.2517947398
0.6549482392
5201.391179
1.650369044
3.926242967
6.941472733
5070.626045
19.79314503
52.45440388
1406.861943
134.1852754
0.1082041266
0.1134397863
0.1371668477
5569.582055
0.4144079858
5717.339706
0.8747878728
2.354849749
5.593661268
5588.758447
17.43364075
45.31212053
4768.580715
77.90675071
6107.042361
6132.322685
6206.23162
0.1642934282
6248.613651
0.6293310746
1.355269843
5941.400012
3.923496392
6102.478268
24.051087
6003.129331
94.35185006
2437.551805
408.1088876
211.3161873
0.1598113092
6571.729309
0.9763792241
6627.39098
2.26944613
6919.693186
22.16565441
6608.175141
88.42864381
57.20737455
3393.071934
241.5056115
203.8352698
7115.828334
0.01631659069
7148.548421
7293.078883
7458.749673
21.19808411
7431.483345
82.92641482
53.03139813
4198.326306
407.9236371
341.4280718
308.074779
234.4923324
0.9224656874
0.9064422816
1.567597125
8541.992321
17.9552977
5233.417302
59.64696932
1889.783615
790.0927297
631.7746238
619.74148
557.3063928
417.180749
313.6899864
229.9383372
179.6529265
1.123001925
1.046242791
1.121634271
6547.33514
1.682604155
14.92142864
2289.519048
1288.423408
1150.394753
70.62158085
969.9249257
878.9028125
671.8479588
543.2426574
467.8152373
393.1806625
326.9179126
1846.700954
1578.544677
1.441122317
1788.694683
1585.916807
1.423485839
1684.895326
1560.744829
1496.904252
1.442362808
1498.583492
1456.934354
1433.070121
1.538147932
1111.818083
1115.956501
1046.794594
75.38947821
653.3918791
528.8503661
415.1941013
318.0120822
1421.391307
1367.425528
1.951048746
1339.744083
1362.420227
1278.272463
1.958119744
1212.033244
1182.906965
1159.565039
2.088890366
981.1723114
874.259162
822.5945396
1.952543261
1192.879128
1206.990772
1139.452305
3.08051857
1157.135033
1074.374572
2.876868889
949.7086928
864.9842108
729.86369
3.036648378
1707.578614
1701.828815
1725.831738
914.1354189
1941.83205
880.0869466
193.106309
10.55293453
10.71486585
1771.871986
1712.822085
1854.274247
809.9956094
1691.770258
735.8492427
143.0049221
11.18538936
11.23901752
1905.097176
1953.396677
592.5421853
490.9669318
1546.828082
2151.098774
2118.172252
421.3699059
1035.408593
37.65167019
1802.767486
174.6814284
605.0492604
1987.507109
2135.207113
2007.427424
1956.394746
1714.053007
2010.387741
2155.47711
2006.745433
1716.184672
1903.015745
1743.961418
1972.635905
1994.352887
1848.252729
1838.115398
1823.556146
1669.901113
2.412463423
2014.52535
2052.283637
1831.41325
1839.13567
1857.392506
1813.693579
2019.546708
1782.246264
2211.12811
1561.670824
75.75837589
1965.604062
2211.635397
1186.588561
1843.916165
840.9007898
41.07983462
208.818058
18.63776055
2330.856535
1945.554246
947.9838334
264.8747449
2496.343427
2508.049945
2216.077346
2517.682341
2230.257779
2557.859661
2554.61843
2233.639772
2212.566067
2336.387337
0.371890203
2595.322887
2623.674887
2264.736364
2272.836318
2300.41987
2304.755321
2122.491695
2282.470198
2317.159904
2428.495537
2093.999671
2254.686644
2294.292563
2111.001169
2003.293141
2342.681584
2304.842858
2002.017043
2054.954067
2132.059807
1917.651775
2227.848895
2065.733183
2303.766226
2289.80489
2543.768247
896.4511522
1801.906049
252.8390194
2970.329958
3049.62806
2780.010988
2644.299774
2783.342046
3020.412878
2739.707393
2602.965746
2734.043679
2744.057448
2637.107957
0.3354187053
2741.438183
2768.153398
2722.336511
2457.528302
2940.548046
2524.098842
2637.77475
2703.454341
2330.629818
2577.826526
2702.62729
2800.627306
2547.509619
2394.472575
2608.693143
2679.822542
2222.329025
2463.87302
2333.799134
2491.866574
2305.014082
2308.076077
2418.936251
2722.250491
1400.058256
2320.313336
577.2586856
176.3546812
3090.195184
3309.36264
3346.554626
0.2282816024
0.2232897788
3078.886436
3330.290986
3290.148952
3224.547553
3260.635156
2952.948395
3076.941041
2907.356107
3133.872497
3174.051543
2993.033044
2869.359214
3066.695587
3063.414917
3124.119397
2938.773331
2675.958215
2915.758563
2551.996315
2565.241586
2747.69016
2689.556542
2585.209823
2559.40091
2911.404695
3065.116542
1584.639358
2287.918169
276.1667883
3379.812834
3388.341256
3624.208706
3402.403157
3623.638289
0.239284928
3467.215279
3527.571132
3622.400663
3653.374787
3477.010852
3616.065419
3632.626396
3649.43579
3185.413701
3448.859474
3490.272509
3301.78596
3552.867432
3194.897819
3274.991876
3434.556621
3008.539222
3174.943519
3212.031827
3162.370197
2825.000836
2864.495429
2958.51936
3121.468072
3125.537592
2695.183374
2961.389911
3289.060397
3213.59273
2821.430373
1144.194165
476.6021442
3769.08097
3915.604003
0.1806419453
3780.777457
3782.3264
3965.102694
3783.339946
3802.214369
4030.658659
4084.507845
3856.152038
4165.686996
3849.343514
3915.556676
3777.832073
3951.418304
3902.124618
3977.488413
3550.164069
3515.744599
3692.285006
3479.957138
3570.543705
3329.614304
3192.821194
3416.023656
3279.365559
3336.888639
3198.867638
3318.2218
2347.159832
3568.791539
2845.304049
1596.119591
4169.853426
4359.462392
4373.929543
4161.10551
4384.520677
4426.592646
0.1626655878
4164.230667
4185.771364
4606.136917
4251.353204
4506.050171
4384.647624
4397.568169
4126.349442
4470.760764
3883.197043
4048.095513
3926.183279
4069.097238
4086.22832
3886.41569
3960.082286
3684.087555
3756.837491
3749.607222
3518.939191
3331.750913
3574.711144
4615.981878
4949.108305
4970.251167
4713.548219
4951.045332
4979.681538
4782.224582
4673.296713
4716.861499
4771.941603
4482.193425
4972.070361
4939.016111
4566.425537
4249.583828
4515.489163
4486.875693
4323.193889
4308.449422
4471.38374
4446.435071
4224.972924
4129.665404
4407.360141
4200.753028
4284.561051
3977.841215
3889.470587
4126.120367
1517.507545
5183.023936
5190.071079
4869.76039
5188.983858
5164.235281
4838.187252
5194.547473
5187.944346
4907.376196
0.2284407646
5202.026637
5210.966171
5031.631445
4783.354127
5025.990871
4774.236784
5056.89895
5071.320923
4829.128127
4911.749237
4492.3381
5073.074151
4601.387999
5020.157792
4729.518099
4441.770136
4705.656708
4157.181501
4869.478863
5522.490374
5523.785218
5399.04926
5497.482914
5446.421692
0.1312387226
5341.098384
5454.473152
5099.685507
5491.144407
5269.030088
5347.957944
5597.595471
5360.802648
5418.644809
5431.360809
4992.764401
5627.578149
5142.757504
5149.617508
5314.261409
5514.216896
5231.194532
5231.532043
4850.02929
5170.409966
5515.691361
5237.613872
2977.265097
5768.289952
6138.627912
6215.583527
0.1202283789
5754.882358
5798.604268
6196.833914
6190.347318
5842.804707
5752.895094
5818.228921
5839.983772
5870.272604
5472.045767
6120.301174
6172.601309
5591.130288
5729.425674
5844.354112
5641.232634
5905.245814
6061.678804
5700.207487
5743.029364
6138.881777
5653.413727
5979.181243
5937.893963
6350.931123
6582.331413
6580.179905
6124.262532
6574.805495
6555.744978
6084.430235
6754.101426
6131.337914
6339.001649
6276.371108
6392.0671
6052.628581
6109.270187
6366.819092
6529.6439
6287.568058
6547.206149
6217.243282
6462.360134
6427.743461
5937.492515
6163.894641
6575.352855
6692.319025
6844.799442
5939.584815
4286.256642
2924.697015
6635.999217
7102.176157
7097.117627
0.1187591526
6624.436515
6634.8693
7125.919581
7218.009539
6732.150418
6742.508783
6825.52524
6932.070774
6885.063388
6918.964091
7171.969445
7141.160827
6560.281324
7256.738422
6566.889167
6502.60881
7193.443044
7668.066405
7435.533736
7906.480215
3465.45208
7546.652845
7547.568681
7109.613731
7146.805457
7300.449865
7321.827665
1.097674553
1.019786084
7380.418448
7317.417047
7403.841003
7482.767243
7617.134963
8040.042346
7207.975683
8275.810046
8520.951381
7952.255696
8632.566624
7877.610401
7283.3794
6287.333565
8075.148221
9313.516076
9206.065123
8591.342903
9158.091017
8932.995179
8914.670445
8712.746412
8872.817308
9270.731352
9028.546832
7709.336232
8414.070915
7258.020722
5446.118544
6475.188226
4806.141008
996.6553238
218.7613768
8041.089232
7606.797595
6257.822989
2258.9078
5713.55408
1628.633913
938.6269438
690.9463471
1304.046581
1367.633605
1205.421787
1316.600393
1249.694328
1179.35756
1241.136771
762.5999354
5508.807059
1709.092974
1735.746781
1703.403842
1209.172272
53.77632275
3.463939941
775.8262904
2137.947873
2146.064725
1826.063872
1990.554061
1960.002961
0.6603387535
2018.570269
6.036071902
25.85663197
0.2776047285
0.3122514264
2459.684304
2470.848097
2460.915009
2224.560413
1.147398769
1198.971282
2122.889894
2974.033748
3113.689468
3037.288208
3067.196043
0.255378213
3071.917143
3103.993939
0.2560679599
2841.30953
0.6539393113
2450.501372
2.134852463
1535.386431
2394.499059
798.1700578
199.6998431
19.25703037
76.96235997
3390.865878
3254.11354
0.2197626938
3363.862022
0.3050359658
0.2755351519
2946.942577
0.4718708561
1.204136901
1.505203173
2758.700492
6.680786181
3577.871737
3733.417632
3634.303892
3802.304843
0.2229834731
0.4741799293
3463.407118
1.35999441
3176.604372
2.308156826
2.739382023
4.366312411
6.381354844
3904.155063
4108.703931
0.1591982352
0.1579209923
3927.530855
4187.696056
4097.153236
4229.823025
0.4040160979
3930.145
1.652075548
1.625242288
2.953190476
3.470300334
4635.252114
0.1286411019
4630.261147
0.1605050317
4531.102799
4682.381376
0.3434463746
1.970717828
2.015922031
4102.554404
4241.578116
14.63156141
22.87906982
24.5999914
409.8112505
168.7294268
0.1371608069
0.1349390905
0.16772203
4744.006493
4574.328313
4704.629016
4644.098204
4561.242068
632.7616242
0.1774906211
5029.223867
0.3883951354
5321.545029
5009.209401
5161.030371
5136.911945
3901.989894
68.13900408
5712.033282
5470.324331
5759.697886
5474.398379
5844.428311
0.2608135761
5626.116704
5378.09045
1886.24624
109.8760123
124.3013465
0.1027106783
0.1237386777
0.1127718419
0.2997133879
0.4015413246
6149.208557
14.26574389
18.20773221
6205.324825
38.92856122
90.7240259
126.6236562
154.2770914
6579.945801
0.08593581378
0.110402181
6572.213543
6378.456453
6786.893857
0.3512995934
13.16864996
6419.842167
7080.790488
29.36519425
36.406902
178.7838513
662.2708335
473.2862087
331.4478899
0.8473742783
0.01904732459
0.189383673
0.2100362197
0.2531365347
1.025646449
7536.725499
6.085473038
10.78089641
8317.74303
33.72096506
123.7706739
2422.059358
668.9336073
526.0812916
556.6608367
8157.760719
8192.76761
8680.080539
9121.571989
2.145943236
7.343015583
1135.929204
135.140883
88.84337202
8168.302908
4417.570836
7843.694099
4468.602346
7500.48846
5325.273304
1704.139127
1910.936879
1451.460188
1284.113698
1367.888026
1286.299001
1026.750887
869.8778528
833.9588822
748.1025005
178.3213439
113.6771296
153.2593874
1442.225896
1471.788547
1568.864628
1470.849817
1454.045578
1299.937645
1326.247466
1226.996531
1203.409398
1113.068685
1075.921064
919.7460835
876.396641
813.0933631
646.7125249
295.3835482
402.3439933
191.77617
122.8614806
167.2122997
1325.210337
1282.465603
1270.53316
1195.572763
1142.431756
758.0717257
632.0666803
395.1243934
512.1284174
275.1985926
204.2537595
1130.419282
212.1873422
954.892426
1022.654924
930.8223811
63.55800094
11.67316761
262.1385704
0.4828762622
0.51722054
0.497930073
0.7583406826
0.4677423019
0.4098654411
0.5089876945
0.5779470623
0.5997535662
1769.542888
4.797834623
0.9365122344
3.413791844
1.086770034
1430.8253
434.0759882
5.246588662
83.57147911
2348.070292
0.3557241411
0.3220756523
0.3050226629
0.4339718933
0.3631612885
0.4334159629
0.3715685677
0.3331923147
2170.34907
0.5012070315
0.5187902369
0.4106093101
2067.71011
0.6517131692
0.5547820199
0.5610666208
2032.748528
0.991307867
0.835915965
0.7815492298
1422.506464
125.1876903
1.4055668
1.24198712
7.210902942
445.122574
34.05034604
142.7956064
0.2910538259
0.2523987113
0.2485458126
0.3012247793
0.2599755859
0.2827276908
0.3061309826
0.327653384
0.4568446147
0.4867571004
0.325763222
0.4496417529
0.4295092524
0.4768460081
0.4375508559
2212.089128
0.8126880284
0.6849125991
0.5944623108
1.029776643
1.0547251
0.7308425749
1.9851542
10.61742592
1.601224272
1.444741385
695.8158695
56.37388567
2.895589748
11.6703627
0.2567217181
0.1992203815
0.2317630316
0.2337079319
0.2686302207
3040.733741
0.2890802821
0.2230631154
0.2768460475
0.3835180757
0.3281276552
0.3324180935
2778.605633
0.4479702301
0.424641382
0.4010986384
0.6742867065
0.6860826695
0.5651496469
0.9442094967
0.9791181073
0.6931408861
1.722364841
1.134358111
1.698126638
3.770140471
5.082130529
1.848411673
2.803486809
823.001135
332.6129729
83.21933645
21.71007609
0.1880458457
0.1784204217
0.1787216712
0.1705354362
0.1878593514
0.2733248023
0.232207246
0.2477067733
0.2644274513
0.3973583738
0.3297169249
0.5204731495
0.4792523545
3183.023259
3373.661343
3366.789998
0.6726732618
0.4176289281
0.6942190731
1.062845809
0.9704730437
0.7190283323
1.903868584
1.524226441
1.354005995
2.699193349
4.167267908
2.771931049
4.020148063
2.091909459
2255.269421
32.80186119
5.667966244
290.0807344
152.4224408
11.81881081
48.44568786
0.1654249445
0.1821100358
0.1732234776
0.1559790047
0.2379133113
0.1772711774
0.2353955735
0.3129498089
0.2473883027
0.2719206128
0.3581595351
0.4694236738
0.4003787107
3467.000329
3707.414784
0.5828593609
0.5397332405
0.4873533396
0.9241457184
1.018317132
0.840763628
1.576068969
2.652035626
1.519316642
1.491756108
2.954882892
5.0762513
7.773219706
6.68602953
11.58816417
5.6145687
1573.728094
461.2220395
741.9562046
237.3309629
46.97819658
20.201901
77.05528998
21.22420351
0.1252235668
0.1403224437
0.1553506622
0.1921382512
0.1631206141
0.2052226762
0.2246530958
0.1799592114
0.1786801363
4261.422356
0.2808403832
0.2697495489
0.27561065
0.3604717468
0.5598233365
0.4003813113
0.3364434749
0.4917285876
0.6329790458
0.5114284353
1.110215472
1.110799049
0.9001784327
1.936011407
1.765353287
3589.094738
3691.865213
4057.369101
3683.436698
5.195309504
5.219649644
3.286375051
2.90423001
7.436782788
9.79311378
5.959472584
12.10231849
3897.053502
2352.610541
1073.990556
1197.486336
374.1779599
95.30596391
96.22951388
22.31883999
38.38728362
27.27886006
15.27220643
13.61749657
0.1427228405
0.1314937148
0.1229355608
4655.294705
0.1375264323
0.1444953865
0.1470099022
0.2132488397
0.1511646631
0.1969608055
0.2584717884
0.2373532206
0.3331399916
0.4569890659
0.4543933476
0.3362863223
0.6949834756
0.5433274915
0.7901191679
1.144935744
4342.469355
1.246982334
1.39845526
4084.701943
4316.917114
3.733055202
2.513202632
3.082697063
4.208814921
5.896970307
6.820806775
7.262812738
12.40326418
15.36350015
12.58328573
13.48390534
13.50910743
2879.961398
1810.640949
143.9733638
52.27341811
30.92381067
42.79657626
558.26924
0.1302984085
0.1118541207
0.1092957343
0.1299531672
0.1539295673
0.144142451
0.1445798471
0.1805799933
0.2088601385
4963.658622
0.2952209359
0.3209391193
0.3078638181
0.5666131758
0.3515348453
0.5632823618
0.8841897743
0.5741842235
1.013343199
1.401626828
1.549806518
1.8538281
3.19853692
4529.244283
4851.534611
3.73587326
4.567082982
5.833452015
4647.135285
12.39250392
15.01569296
7.530146825
10.27636186
9.509395852
4730.992821
14.83897465
22.05416023
23.01237666
29.25215209
16.5610445
3893.743526
2005.339185
2271.629498
951.7546758
210.3157212
343.7409281
84.57795455
39.03431603
49.10831772
57.74540405
70.73548531
30.24957861
30.08567752
41.85141902
0.1229498992
0.1072591661
0.1045216513
0.1309235626
0.1572785815
0.1644593361
0.1926584121
0.1798525817
0.295988216
0.2947922793
0.4357487372
0.2505841498
0.6471395333
0.6777829094
0.7394811772
1.171922405
1.3808353
5196.380372
2.199535524
2.712356299
1.921035849
8.773049202
8.449841635
11.99940716
4.978853593
5.295751427
4.486594479
5323.635872
11.70179199
18.0325993
19.25733991
23.46559439
28.87465921
14.01517319
32.73374344
35.26630091
40.80934071
65.48535885
25.1440436
28.64892558
39.09969131
4159.540746
2088.640616
1293.706138
668.0122642
373.9922286
632.6168252
241.926871
161.0697429
84.39756412
116.5253013
97.80333534
63.50949281
63.29330353
67.72115983
0.1114858755
0.1008318094
0.1305820017
0.1190892425
0.1414337129
0.1873964368
0.2118898753
0.1412089031
0.3309803016
0.2654911225
0.3472184639
5797.914457
0.6224290771
0.7298030378
0.5585592584
5547.636054
1.721859599
2.031779203
1.059067098
6.187108935
6.474005965
8.711236438
3.39971813
3.58674463
3.143664041
15.70107921
10.13868262
11.64126039
11.79411722
5886.57697
31.13932826
54.65565149
34.11163879
42.83428503
46.08732063
20.71415523
29.13906723
21.10444443
5405.238178
3776.337267
163.2521442
131.5446629
123.608089
133.2302891
106.3127477
82.71422729
69.72143407
68.55876848
43.19124331
55.81810285
81.59168968
3104.391562
2020.225828
968.3323034
947.4406616
256.4890556
231.8508231
147.0820591
181.7233627
0.09685035824
0.08998832757
0.09442701537
0.1511782963
0.1209380919
0.2330270087
0.143594366
0.2540627547
0.2729558572
0.4731895843
0.8750170075
1.075514455
0.7791139217
6.023821717
2.466544778
2.984976976
1.77404987
5.379454953
8.622870904
11.08168153
13.66361909
4.645251228
10.03935313
31.04858746
40.91367144
48.33743807
19.06009186
30.48912974
23.9775187
6281.168583
5030.708187
143.3103288
105.9534193
82.38933341
63.6544395
57.82226628
105.9228181
122.6350053
75.49883759
60.13734689
48.71134005
4308.201817
1329.298196
399.4316011
293.8908334
255.2425915
240.4517277
139.3484623
166.0824067
207.5807577
172.8697422
0.09635683709
0.1140885809
0.1495118752
0.1227728554
0.1181789482
0.2321195806
0.2450905524
0.3928583851
0.5683472221
0.744786779
1.391577753
1.814921999
1.060487098
1.957320399
2.596884559
6712.781954
5.454076669
8.400675364
16.09789462
9.815197399
3.836303902
4.698713183
7.881502939
40.475246
50.99558714
16.68348851
28.19137282
21.89908758
6918.098492
5678.120698
154.4377287
151.9788756
69.29627014
93.04732372
100.6836111
72.35397839
66.34717271
45.97087685
82.82818943
1969.947067
1019.544017
704.404097
569.281677
438.3887203
269.6610011
330.6418597
430.8439877
387.5795135
402.3943863
249.1215541
279.2290068
270.511724
312.4397709
165.0755552
248.612775
202.3066648
225.9446214
121.7405133
206.6595178
87.88281067
121.09542
1639.366233
384.9753621
404.1169341
2.056850138
0.8658966606
2.019745688
0.0959878557
0.01958516858
0.06695471139
0.4666758367
0.2111651359
0.1355629802
7217.105805
1.253095831
0.7340552241
3.223174611
7.465226456
2.812928919
5.585055634
7785.168774
6913.051499
28.4995729
39.60735921
14.07877772
18.93170937
13.45435966
27.95813445
4679.572437
3286.972976
1383.645532
106.5600135
102.3376042
71.01089337
67.96522842
46.59385836
83.9282909
5753.979395
2787.23465
1362.343169
771.2299314
699.5794765
590.3706659
530.7763187
484.9814862
463.0464578
520.6259097
439.4171342
353.3725366
416.5381701
370.0802191
276.2063072
242.0025644
178.1052152
174.5749409
272.8132782
150.840693
197.1519791
202.2882488
151.0929948
238.5394582
111.0770266
146.6414166
620.5353876
476.5997204
1.020171168
1.003865583
0.9322163192
0.9984147164
0.966564002
1.020936111
0.656305772
0.6968846377
0.9730877593
1.35949412
1.158216414
3.870164494
1.900633758
6.237826041
0.7616647398
3966.531923
1403.31539
11.62017689
17.45507927
23.5863069
36.5413862
10.53072981
3590.771952
1602.830855
1335.581548
1211.588174
1156.913702
1217.800194
909.5750952
1086.444204
957.0914228
1074.234089
826.1547204
183.2457024
189.4665614
126.5845426
100.2734378
86.13990363
68.39128775
34.96656288
53.00339413
84.37197579
30.11380633
36.93783278
47.31346537
2146.345988
1071.858458
1010.264312
767.5246723
1016.804083
855.0319186
689.146935
747.9185072
751.8436314
737.3579615
760.0070022
612.3756028
697.6294919
626.2950713
553.047517
463.8241919
475.9958815
352.3890972
299.0343029
358.5696381
374.5282377
424.0842574
285.8324706
281.7068734
323.378559
173.496988
231.0166897
128.6909068
152.9921234
4499.719112
1835.900937
1657.112316
1771.153378
1821.296082
1736.291386
1553.481922
1.266840717
1.237832871
1.154574935
4489.859526
1694.629177
1569.273547
1703.292777
1751.748
1714.128613
1590.012723
1504.553386
1.246834134
1.227164524
1.140397629
2745.730903
1760.590224
1628.628118
1505.944826
1529.500811
1505.937219
1533.088259
1622.516014
1.26291465
1.314446266
1.467508787
2691.933693
3004.092413
1652.641043
1580.574578
1342.668345
1420.101568
1486.369243
1286.282709
1298.464856
1290.121625
1317.112367
1104.005318
0.7549852339
6.548385603
1.329692568
1.211568169
15.63190503
1427.414024
1270.849498
1229.287825
1165.780611
1259.719939
1232.736696
1144.698044
1017.275357
1133.114604
1110.696094
928.7525194
792.3015292
965.6468415
803.0545491
861.6128912
714.1706159
680.4060815
609.4839555
586.0585932
520.1140479
227.0086769
252.256007
110.7480191
99.85109064
67.4258693
48.1905647
25.24595207
34.4385893
49.35892035
1019.48581
1042.868447
861.8818122
970.6352177
772.231002
680.1077835
746.7013071
663.2390548
643.2390997
595.3029798
555.047765
601.0801277
480.3312828
591.4320532
492.1679931
394.7980525
514.2807063
245.0611181
258.3478329
387.6564357
304.2131773
252.7178411
304.937807
130.6413252
183.2330039
1555.310989
1700.078975
1645.478605
1558.534263
1555.942031
1358.125837
1517.1464
1368.269147
1427.320136
1383.586519
1317.252425
1291.237195
1383.215299
1.622932791
1.608581502
1.426429425
1.971915922
1539.251373
1316.937336
1541.565444
1389.44035
1446.693358
1378.011524
1396.009424
1247.987012
1343.235401
1242.420729
1293.842449
1294.32789
1.673519029
1.647180869
1.438425552
1407.8527
1455.500388
1295.680876
1373.727099
1238.539042
1301.668524
1288.728035
1098.863192
1136.165993
1113.451486
1162.013715
1041.370325
1053.063662
1.76005516
1.740582
1221.133565
1240.302062
1077.326013
954.1303634
1060.379998
1054.828293
960.2926563
957.6412303
1041.826203
899.6900649
864.7006064
1000.504788
884.7904986
761.5137509
827.1084809
659.1890842
790.6589871
723.60294
519.1035173
622.9760823
442.9446618
504.309456
318.7982161
436.5128253
270.5468657
313.5531552
146.3595109
1.629167343
2.324249293
1.772640185
30.60868072
109.3775978
22.43768985
784.0849383
905.2226754
760.6437166
552.7226173
485.400026
370.3309959
432.6359926
354.9560347
170.4722843
237.4504407
103.4565755
1293.227487
1254.973278
1237.479544
1314.500673
1221.919347
1209.47662
1181.455464
1171.974398
1190.546478
1162.752752
1138.580979
2.36521249
2.469945735
1198.857002
1136.504327
1133.230913
1175.794971
1261.282887
1139.852703
1154.532844
1112.71597
1120.565197
1139.689106
965.5871587
1095.248913
995.5902153
1055.50895
1035.941007
979.3147695
2.423400635
2.530088072
2.00944845
2.423517284
1044.805789
1025.461518
1026.051078
923.5044109
957.677137
858.122246
851.6796922
782.2963036
906.8423081
809.4009246
564.6979138
704.2002767
626.6209232
563.6170262
2.614204691
2.334957096
2.025895377
34.71808176
714.005869
790.2304564
585.5903003
689.1744985
437.95659
115.0655133
31.63672395
1148.520241
1086.069545
1045.854924
1069.121068
1106.112157
1034.289875
3.357161291
524.734133
2.577314256
2.981965915
1008.059907
923.0472566
12.65303761
934.2943607
102.817101
236.8529187
)
;
    }
    spline
    {
        type            calculated;
        value           uniform 0;
    }
}


// ************************************************************************* //
