/*--------------------------------*- C++ -*----------------------------------*\
| =========                 |                                                 |
| \\      /  F ield         | OpenFOAM: The Open Source CFD Toolbox           |
|  \\    /   O peration     | Version:  v1706                                 |
|   \\  /    A nd           | Web:      www.OpenFOAM.com                      |
|    \\/     M anipulation  |                                                 |
\*---------------------------------------------------------------------------*/
FoamFile
{
    version     2.0;
    format      ascii;
    class       scalarField;
    location    "0.00026/lagrangian/dsmc";
    object      ERot;
}
// * * * * * * * * * * * * * * * * * * * * * * * * * * * * * * * * * * * * * //


99999
(
3.277284189e-21
1.139233733e-20
4.002361318e-20
4.19377486e-20
8.968904938e-20
1.03091657e-20
2.529394701e-20
3.89065157e-22
1.096571815e-20
6.005923163e-20
4.068893991e-21
1.400026469e-20
1.12716318e-19
3.341186192e-21
1.497898941e-19
7.61030752e-20
4.11450095e-20
5.311185735e-20
5.118168531e-20
2.699971934e-20
3.950236697e-20
6.283295367e-20
4.211796891e-21
5.010297393e-20
1.345533678e-19
1.214669922e-19
6.843122858e-20
5.130195357e-20
2.17457249e-21
1.186067829e-21
4.167980148e-20
4.644401274e-20
1.663701532e-20
5.183949386e-20
3.65810899e-20
7.018536051e-21
4.186190872e-20
1.285803383e-20
3.87182883e-21
1.590777328e-20
4.818077654e-21
2.285311149e-21
7.408252719e-20
1.185949567e-19
1.453418995e-19
5.259983088e-21
7.84218827e-20
5.292538953e-20
1.902319036e-20
1.677162827e-20
2.080140251e-20
5.654967586e-20
1.642156362e-21
1.099084206e-19
7.024436217e-20
3.891327554e-20
1.015584583e-19
6.424328385e-20
1.258269394e-19
3.393634996e-20
2.451907973e-21
1.870565215e-19
2.517335641e-20
1.340034568e-20
3.632798175e-20
1.411201788e-19
1.267953314e-20
2.971925273e-20
7.022576202e-21
2.431069282e-20
3.428348432e-20
2.664418459e-20
3.419576693e-19
1.236210354e-19
1.09497752e-20
1.462035128e-20
1.308211632e-20
3.914189715e-21
4.135970255e-20
6.93086376e-20
1.020733399e-19
6.656815013e-20
5.118087001e-20
4.73971109e-20
4.430961882e-23
1.203568226e-19
2.795483591e-20
5.813891884e-21
6.710019478e-20
7.412123151e-21
7.131689975e-20
1.675089614e-19
2.374825734e-21
6.017805495e-21
3.421235343e-20
2.126045428e-20
1.051895071e-19
2.56435401e-20
2.227099882e-19
4.010858936e-20
6.722170471e-20
5.709662545e-20
5.41710082e-20
1.02190788e-19
9.671246756e-20
1.509095814e-20
8.680981714e-21
8.943876241e-20
3.497256419e-20
1.364192041e-19
1.167469604e-20
7.303156838e-20
1.357152316e-19
1.653400636e-20
2.519997184e-20
6.050131906e-20
1.187748588e-19
2.577939334e-20
4.850493057e-20
2.942839838e-20
4.475716717e-20
1.217704507e-19
1.502132223e-20
7.265242597e-20
2.159511432e-20
4.106803428e-20
6.292055185e-20
1.714280282e-20
1.291010059e-20
5.432229235e-20
7.073738936e-20
2.719458964e-20
2.814845285e-20
8.044848975e-21
2.980512056e-20
2.97664755e-20
1.403705934e-19
1.05880804e-19
3.632847761e-20
6.46260051e-20
1.27719824e-19
1.070625375e-19
3.812385734e-20
4.011528972e-20
1.485717196e-20
1.81770969e-20
9.411944666e-21
2.508688634e-20
1.026796271e-20
2.581775662e-20
3.13224781e-20
4.173111594e-21
2.551265334e-20
8.279643116e-20
6.000159864e-20
9.214735118e-21
1.443767546e-20
4.325511025e-20
1.480277354e-20
2.642119482e-21
4.083276119e-20
5.993953308e-21
1.465721436e-19
1.737174957e-20
3.427354049e-19
4.728176754e-20
3.584657581e-19
2.508885847e-19
4.937050082e-20
2.750313812e-20
7.215014716e-20
8.294027424e-20
1.215640306e-21
8.435915484e-22
2.680317761e-20
4.69323491e-20
6.769782879e-20
2.722576123e-20
2.141343387e-19
1.063072353e-19
1.732337925e-20
1.380177062e-19
1.298582477e-21
1.115198796e-20
2.617098324e-21
1.191946872e-20
3.878638919e-20
2.463585453e-20
4.304510923e-20
3.100924173e-20
6.187305775e-19
8.183031851e-20
1.630478768e-21
4.072582691e-21
3.086044779e-20
1.576028898e-20
3.990084795e-20
3.480455194e-20
9.287783729e-20
1.597893031e-20
1.366762808e-20
1.193819828e-20
7.202016437e-21
1.578836679e-20
1.066371039e-20
5.55241857e-20
7.863589675e-20
7.174365253e-20
3.417699697e-20
8.687268764e-21
1.21304406e-19
1.719708326e-20
3.253134285e-20
2.240454674e-20
1.002588266e-19
1.116580852e-19
9.787940443e-20
7.067784235e-20
8.528706789e-20
7.175267637e-20
4.362310735e-20
7.858993809e-20
1.49072347e-19
8.91645183e-20
5.688657125e-20
1.040467474e-19
4.865152936e-20
7.134808653e-20
7.326091686e-20
5.678126623e-20
6.604823881e-20
7.784988188e-20
2.753155381e-20
3.499234345e-20
1.678948012e-20
8.409617354e-21
1.183789305e-19
2.165242517e-19
9.505104691e-21
1.92711826e-20
1.798213402e-20
6.975340591e-20
2.82481976e-20
7.423530776e-21
1.68590628e-20
4.115917263e-20
2.028403697e-20
8.494945023e-21
3.547777619e-20
1.160805275e-19
7.350247411e-20
5.115502051e-20
1.021935325e-19
3.468740393e-20
4.824659626e-20
1.450368461e-20
6.542952546e-20
2.130606096e-20
3.009484071e-20
9.169153553e-21
9.040155766e-21
1.133004895e-20
2.471159032e-19
9.795888756e-20
3.407144354e-20
8.484954085e-21
7.63309201e-20
1.627270625e-19
2.14324459e-20
1.275382891e-21
2.128172184e-20
1.094552774e-20
6.657680528e-21
1.3581286e-19
8.775262575e-20
4.470763362e-20
6.077051975e-20
2.988934487e-20
1.569362737e-19
6.32242964e-20
3.177040251e-19
8.081377037e-20
2.749116999e-20
3.294930467e-20
1.458715508e-20
4.013662231e-20
2.814034906e-20
7.090701242e-20
9.122888845e-20
1.38851917e-19
7.538876482e-21
1.226820878e-19
3.201687908e-20
4.279383588e-20
4.019773925e-20
1.258481288e-20
7.212056343e-21
2.273501843e-19
2.479517843e-19
1.899517121e-20
2.311442486e-20
6.918741778e-20
9.314874679e-20
1.200509938e-19
2.425872018e-20
1.080073606e-20
4.029044005e-20
4.248087385e-20
2.872115021e-20
9.583521322e-20
2.015933073e-20
5.496230231e-20
1.010107154e-20
9.166673467e-21
9.505595279e-20
1.048588942e-19
7.930682397e-20
3.596110895e-20
7.901733658e-20
5.508576265e-20
6.908151131e-20
7.294456869e-20
5.394141016e-20
9.433963969e-21
5.499894812e-20
3.258056343e-20
1.94230558e-20
3.797328302e-20
4.96741749e-20
4.162957406e-20
7.103749839e-21
4.107415345e-20
2.609294991e-19
3.676354743e-20
8.515111677e-20
1.411051119e-20
3.476728632e-20
1.347993223e-20
3.377903509e-20
1.657592306e-19
2.127295946e-19
1.310819369e-19
4.857931876e-21
6.298219852e-20
7.190022909e-20
1.8545944e-20
1.670737351e-22
5.238123847e-20
1.486664183e-19
1.792568316e-20
9.115842292e-20
1.925336959e-20
8.346680742e-20
3.233543442e-20
1.004195783e-19
1.367805258e-23
4.128191741e-20
1.215226209e-21
5.882018156e-20
1.795096582e-19
6.450369795e-20
1.093425145e-19
1.960896514e-20
1.330128563e-20
1.054389528e-20
5.923796897e-21
2.863262029e-19
3.099640257e-21
1.570302563e-19
4.008528673e-20
6.817675465e-20
1.032847313e-19
4.37019177e-20
1.049254372e-19
4.867603913e-20
3.104825421e-20
8.355202559e-21
1.07684757e-19
6.127600685e-20
1.563325366e-21
1.546105413e-20
9.562955173e-21
2.825847337e-20
1.781076357e-20
1.972437454e-20
2.260948693e-19
7.558361689e-20
4.005713477e-20
1.320628223e-20
1.571285799e-19
7.087636783e-20
3.382833116e-20
1.183565302e-19
3.599112784e-21
5.99477791e-20
2.350057822e-19
7.512253352e-20
3.601725064e-21
3.125749398e-20
1.242079244e-20
4.609242094e-21
2.79290002e-20
2.352903251e-20
2.130094375e-20
1.897211552e-20
5.33598753e-20
7.367407174e-20
6.132838299e-20
3.159126343e-20
1.239569665e-19
2.17270452e-21
2.674902437e-20
1.311396052e-20
1.325104533e-21
4.223995709e-20
1.560172674e-20
3.185383357e-20
2.393248532e-20
1.395161516e-19
3.904107828e-20
2.200083724e-20
7.457185537e-20
1.301981605e-19
7.662406092e-20
4.774576207e-20
8.428053996e-20
7.574667034e-21
4.118440049e-21
1.907144358e-20
2.328206487e-20
6.285801304e-20
3.152215417e-19
1.827423501e-20
6.636157486e-20
1.820343182e-19
4.847882377e-20
1.229389806e-20
9.579369441e-20
7.288143396e-20
9.086906758e-20
4.584014739e-20
1.106608269e-19
6.481960664e-20
8.591207209e-20
3.089833795e-20
1.239724184e-19
1.010108394e-20
2.728555255e-21
7.227120751e-20
2.100073331e-20
4.870192141e-22
5.152576744e-20
1.201078414e-19
7.516495151e-20
8.755107847e-20
5.614463936e-20
2.38789487e-20
1.643641812e-20
3.759076164e-20
1.263114982e-19
1.556374004e-20
1.030091486e-20
8.892149602e-20
5.632369585e-20
5.491681375e-20
6.144162026e-20
1.148811525e-19
1.17452498e-20
4.778319353e-21
1.865131453e-19
7.101257861e-21
9.271510007e-21
1.252288172e-19
3.839110653e-20
1.078647816e-20
1.102643117e-20
4.374707423e-20
3.87870204e-20
2.857566105e-20
1.237108686e-19
5.602752976e-20
2.089830334e-20
6.683812014e-20
1.183396524e-19
1.178725495e-19
1.291604356e-19
1.954328575e-20
6.855960701e-21
8.24200741e-21
2.742748829e-20
1.672194312e-20
8.051425428e-21
9.034219244e-21
1.055836878e-19
5.006140726e-20
4.672272458e-20
9.141744018e-20
4.426143882e-21
5.489403029e-20
2.637045381e-20
1.004433956e-19
5.23203024e-20
1.60799259e-19
4.799783777e-20
2.895580783e-21
9.809942608e-20
1.041529954e-20
1.516729405e-20
3.702265692e-20
1.315240045e-20
8.674367462e-20
3.03347581e-20
5.942443414e-21
1.318309013e-20
3.869104947e-20
4.712609472e-20
4.504363542e-21
7.080449496e-20
1.381469009e-20
5.089974658e-20
2.0359934e-20
1.55751056e-19
6.090585924e-20
2.686701456e-19
1.331329529e-19
4.749106011e-20
2.705154529e-20
3.216944464e-21
6.003782844e-21
5.711764875e-20
8.569031045e-20
2.686748646e-20
1.042833021e-21
4.424834277e-20
1.924847156e-20
5.638979091e-20
4.627245413e-20
1.293594169e-19
2.240520958e-21
5.529987664e-20
1.131775517e-19
6.564131331e-20
2.002265882e-20
2.797368144e-20
3.228604025e-20
5.085950348e-20
3.766913937e-20
3.985052369e-20
5.183044901e-20
1.182039345e-20
3.914070173e-20
7.903060564e-20
1.2349967e-20
7.218111764e-20
1.314985795e-19
6.331370696e-20
3.81954361e-20
2.705662573e-20
6.805873912e-20
9.229628411e-20
3.765502464e-20
1.4442582e-19
1.356224222e-20
1.510639179e-20
8.985622912e-20
9.069791794e-21
1.583102601e-19
1.201575118e-19
1.825317139e-19
1.712632189e-20
3.776855386e-20
7.655541859e-20
4.326690344e-20
1.266488467e-19
2.779545196e-20
1.690563718e-19
2.988495268e-20
4.949464696e-20
2.633909981e-20
3.307948113e-21
2.755892412e-20
1.0834522e-19
1.3453946e-19
1.139240225e-20
4.854190155e-20
5.964083633e-20
3.420791799e-20
1.236205339e-20
9.536957995e-21
1.884043444e-20
6.316345232e-20
1.06311354e-20
1.190009379e-19
2.284143261e-21
5.054639706e-20
1.927059507e-19
1.988878364e-19
3.213974682e-21
2.626762284e-20
1.896250878e-20
1.564845386e-20
8.639608065e-20
4.994136153e-20
2.021103235e-20
2.36439854e-20
4.843947612e-20
4.532612282e-21
3.131963705e-20
8.60663021e-20
1.030715501e-19
1.549865918e-20
1.140032413e-20
1.767595109e-21
6.942829824e-20
4.734991498e-20
1.199995317e-19
2.435714988e-20
5.615446096e-20
2.626037641e-20
1.633815871e-23
1.058982868e-20
1.707907569e-19
6.696965194e-20
2.206541034e-20
2.13520971e-20
7.84639966e-20
3.651655658e-20
4.55854924e-20
3.020084831e-21
2.208507903e-20
1.471074147e-21
3.453572551e-20
8.889416778e-20
1.02035057e-19
9.2829002e-20
3.374322109e-20
4.206540063e-21
2.962386633e-20
6.881500982e-20
1.507755858e-21
1.813066486e-20
2.19460506e-20
5.702691289e-20
3.624036229e-20
1.2645988e-21
8.926053361e-21
5.872466251e-20
7.207514614e-21
1.124340115e-19
7.695756732e-20
2.259985374e-20
2.341894883e-20
2.166417234e-20
1.263866626e-20
2.909676142e-21
4.098465291e-20
5.413546494e-20
9.305244195e-20
1.108243872e-19
6.631881726e-20
1.162721667e-20
2.617411022e-19
7.087426127e-20
1.776683268e-20
1.955136034e-20
1.095515662e-20
2.834305647e-20
5.500074665e-20
7.022566242e-20
1.931534309e-20
2.474405451e-20
6.549738326e-20
8.595140696e-21
3.024766261e-21
7.771742257e-20
6.954724577e-20
1.212473105e-20
1.362169406e-20
3.874850807e-20
1.171494147e-19
4.397722009e-20
9.869862488e-20
1.070920487e-19
6.741467298e-20
6.744909804e-20
1.34835905e-19
4.370447808e-20
6.983385458e-20
8.732337615e-22
3.841437424e-20
1.91505289e-19
6.964080634e-20
4.471991085e-20
1.07587536e-19
1.805047644e-19
4.285290367e-20
1.235858242e-19
1.839588877e-19
2.12159967e-20
1.153041539e-19
1.612853049e-20
3.870806168e-20
5.463058178e-20
1.467950192e-19
2.961034429e-20
5.902072398e-20
1.135017599e-19
6.209591059e-20
3.937019791e-20
8.736586729e-20
1.464236493e-21
7.897326776e-21
1.409903558e-20
3.148310264e-20
7.940670376e-21
9.673866399e-21
1.125223169e-20
4.87753433e-20
5.5159547e-20
2.183498954e-20
8.497336107e-21
2.526242981e-21
3.693741615e-20
2.154268289e-20
5.572146089e-20
8.727376072e-20
1.269595825e-20
2.517759318e-21
5.360412894e-20
4.718466653e-20
1.029680197e-20
5.275758271e-20
3.386321945e-21
4.930635128e-20
2.356133793e-20
8.866971688e-20
5.532435746e-20
1.855096467e-20
3.431763991e-21
1.095769198e-19
1.520911251e-19
1.583739238e-19
5.030546355e-20
2.816154897e-20
4.797000054e-20
7.148018346e-20
3.680359964e-20
2.384476421e-20
1.161632398e-19
4.143222806e-20
4.157619834e-20
4.113630929e-20
4.931050199e-20
8.684790409e-20
6.110175871e-20
2.465219036e-21
2.324466512e-22
8.071009349e-21
2.859011228e-20
2.184378459e-20
6.500325858e-20
8.341197328e-20
1.428527246e-21
1.416395995e-20
8.933267263e-21
4.542287402e-20
1.645734033e-19
4.197108819e-20
3.312537672e-21
1.660358182e-20
1.16858584e-19
3.184848238e-20
9.221982432e-22
8.006064297e-20
1.676304682e-19
1.362467532e-20
3.362034966e-20
8.625260945e-22
7.739871465e-20
6.914398846e-20
2.184650275e-20
3.839740453e-20
2.745883686e-20
3.048437669e-19
4.320365921e-20
1.55430837e-19
1.181236081e-20
6.101668048e-20
9.787017349e-20
2.040825105e-20
3.151936886e-20
1.276386258e-20
1.841252975e-20
9.539021684e-21
2.54412806e-20
9.382880122e-20
1.232202645e-19
6.4196721e-20
9.81309202e-21
4.197472562e-20
1.15431468e-19
9.729493776e-22
4.231174439e-20
1.334461915e-20
1.206142993e-20
1.107731628e-19
2.888726884e-21
8.174655908e-20
1.181854135e-20
5.627368902e-20
2.13227434e-21
2.776257377e-21
3.283139271e-20
1.897501534e-20
6.860826113e-20
3.093302456e-20
3.216942961e-20
5.974785094e-20
1.382731053e-20
2.550707583e-20
4.43110569e-20
2.256570923e-20
3.914816523e-20
1.457308329e-20
2.008736232e-20
3.050453167e-20
3.012339204e-20
1.176418704e-20
2.670413242e-19
1.579620692e-19
3.52385708e-20
6.372849644e-21
2.656714587e-20
2.407676629e-20
6.895366511e-20
5.245074492e-20
6.239513047e-21
1.086852922e-19
1.492660862e-20
8.204833476e-20
4.781718613e-20
9.187722108e-22
9.555507515e-20
5.094104927e-21
4.525700605e-20
9.715684079e-21
1.052130766e-20
1.638323631e-19
1.773393975e-19
5.440853893e-20
2.03274932e-21
1.974865548e-19
5.442783516e-20
4.58099279e-20
9.353709243e-20
6.164573984e-20
1.930284071e-20
4.535742705e-20
3.703573489e-20
1.503550404e-19
3.765441492e-20
2.340616088e-20
1.068243521e-19
8.648980063e-20
5.968752178e-20
1.215807083e-20
6.996963955e-20
6.05995854e-20
1.797423684e-19
6.039427624e-20
1.361948061e-20
1.715595255e-19
7.107161048e-20
1.534182704e-20
2.247794857e-20
8.516240566e-21
1.069766212e-19
7.895163695e-20
8.615966311e-21
1.788423983e-19
2.569164344e-20
8.73554799e-20
1.156585029e-19
9.852784213e-20
5.109811851e-20
1.003475687e-22
6.53127435e-20
2.201003808e-19
6.106326198e-20
3.728003607e-20
7.28383894e-22
6.19098116e-21
3.841485477e-20
2.319940886e-20
1.311508747e-19
3.830107202e-20
1.793090596e-19
7.368912265e-20
2.659549493e-20
2.468147107e-20
5.045444986e-21
1.240527246e-20
8.636387748e-21
1.708384515e-20
1.092725698e-19
9.775670777e-20
6.123816636e-21
3.801719473e-20
2.996601371e-20
1.652180576e-20
4.246127843e-20
8.392305797e-20
2.358422894e-20
4.089538396e-20
1.041588809e-19
1.223890471e-20
1.261098242e-20
2.314011899e-19
7.563031225e-20
6.3869177e-21
1.029388933e-19
1.348482641e-19
5.629487549e-20
1.874979384e-19
3.290346211e-20
4.084696992e-20
1.678377968e-19
3.938393989e-20
2.595806706e-20
1.151920644e-20
1.541992049e-20
7.914437112e-20
3.25249374e-20
4.954623729e-21
3.415860157e-21
1.061716511e-19
2.561016662e-21
9.091105235e-20
7.235982925e-21
1.674346469e-20
9.99686523e-20
4.131084866e-20
6.745135037e-20
3.706221224e-20
4.611168407e-20
2.319300161e-20
1.925842006e-20
4.148022265e-20
7.026751e-20
8.566433798e-20
2.012609105e-21
1.237053736e-20
6.899252521e-20
2.4760215e-20
7.928980631e-20
1.327240539e-19
4.811493121e-20
6.050527644e-20
1.717449578e-20
8.815257477e-21
2.462974358e-20
2.181943608e-20
8.219255386e-20
1.432345734e-20
5.05531938e-20
7.411097814e-21
1.592125444e-19
6.508476399e-21
1.465230455e-20
1.563922211e-19
3.049886271e-20
7.504510267e-20
1.138291512e-20
3.021977259e-20
2.563760348e-20
2.452716493e-20
2.993943884e-20
8.223511368e-20
1.18844392e-19
2.006424225e-20
4.324628542e-22
1.797864244e-20
5.141062327e-20
6.32438734e-20
2.183483638e-20
2.704522678e-20
1.457972828e-19
1.962295651e-19
1.232811402e-19
5.485136847e-20
9.4629858e-20
5.219077713e-20
6.355265751e-20
3.825887143e-20
5.375100032e-21
1.205747115e-19
5.210715701e-21
6.813339431e-20
3.938284405e-20
8.158829939e-20
9.158913718e-20
2.024818278e-20
7.223971658e-20
9.147946406e-20
3.72725384e-20
6.815521986e-20
1.705597741e-19
2.464284958e-20
6.395257476e-21
1.04459e-19
3.356420007e-20
1.205645825e-20
6.773506394e-20
2.713350203e-20
5.170180475e-21
4.691166397e-21
1.231790658e-20
2.319325364e-20
3.995649167e-21
3.177724665e-20
1.127685618e-21
4.222464845e-21
6.741840336e-20
1.307248888e-20
1.532550176e-20
1.229527233e-20
1.290804243e-19
2.409768891e-19
9.879662403e-20
4.392132543e-20
3.964713447e-20
7.280399745e-21
1.165561489e-20
3.283596358e-20
5.152294965e-20
1.836691306e-19
6.813882103e-20
1.79502445e-19
2.24176343e-20
7.301630954e-21
8.242923595e-20
2.921446751e-20
3.688183318e-20
2.009201443e-19
1.247593567e-19
1.778961921e-20
5.602620657e-20
8.398403144e-21
3.613296828e-22
5.709450105e-20
9.014376004e-20
2.223040348e-19
6.333830783e-20
1.008978511e-19
1.028603515e-19
1.160180537e-20
2.658651277e-19
7.403536233e-20
5.859752943e-21
3.469439898e-20
1.497052597e-19
4.911195087e-20
1.724412609e-20
1.594242206e-20
9.655077757e-21
1.409371115e-19
7.60783572e-20
4.101446206e-20
1.043411792e-20
3.870096378e-20
7.940832315e-20
3.139190787e-20
3.740450208e-20
6.593889792e-21
9.298413719e-22
1.857630918e-20
3.075441554e-20
1.130348549e-19
4.323882335e-20
1.462072078e-20
9.910103892e-21
4.364335655e-20
2.047363569e-20
3.530824995e-21
2.382278523e-21
5.923106224e-20
1.751976098e-21
5.182945762e-20
2.459572331e-19
1.701041438e-20
7.936323608e-20
6.786780001e-20
1.426829184e-20
2.447428087e-20
4.539915447e-20
6.641261671e-20
3.955266708e-20
1.358547821e-19
3.29109699e-20
6.626733965e-20
1.051869908e-21
5.069741582e-21
1.764213826e-19
1.273592228e-19
2.578055469e-20
2.55927253e-20
3.558647009e-20
2.064547373e-20
4.421957204e-20
4.075179805e-20
2.820044127e-20
1.270326413e-20
1.919952491e-20
8.457515789e-20
1.493248609e-20
2.621110228e-20
9.395740268e-21
1.423901326e-20
1.790840003e-20
8.68298194e-20
2.459536441e-19
3.469227609e-21
7.983724322e-20
9.776881527e-20
2.532807583e-20
1.015365727e-19
1.354406414e-20
9.990522188e-20
1.869519506e-20
1.819011441e-20
1.545548146e-21
2.579954149e-19
3.097177297e-21
8.560816371e-20
3.584161772e-20
7.744108629e-20
5.582258165e-20
3.912725965e-19
5.602131068e-22
1.23613177e-20
1.201372339e-19
8.972713141e-20
6.270492672e-20
7.48537761e-20
1.069069209e-20
5.299810155e-20
6.980794149e-20
5.851031066e-20
2.799024431e-20
4.48802397e-20
5.038112373e-20
1.683387348e-20
4.29002487e-20
4.901409041e-21
2.059862283e-20
1.451388424e-20
1.453605041e-19
1.201592963e-19
2.169435365e-19
5.982554968e-20
4.637635072e-20
6.038534747e-20
9.259638742e-22
1.790244738e-20
5.286469458e-20
7.452463681e-20
1.282601402e-19
7.797723305e-21
6.547207173e-20
4.862558985e-21
4.519875634e-20
6.306241342e-20
2.280400818e-20
4.215209121e-20
2.883501708e-20
1.993537462e-20
4.428720483e-20
1.121183882e-20
1.160183967e-19
2.533680621e-21
3.065468366e-20
1.098677076e-19
5.109876748e-20
1.038023679e-19
7.536416904e-20
3.361494156e-20
2.40233491e-20
1.604462746e-20
9.737847061e-20
8.808038908e-20
4.291487373e-20
2.568340303e-19
3.730773099e-21
1.354539057e-19
4.023741616e-20
3.12018378e-21
7.78958618e-20
2.755421932e-20
1.342444879e-19
5.653785171e-20
1.257414666e-19
1.381712502e-19
1.705801923e-19
7.113175579e-21
1.332170672e-19
6.847027872e-20
1.924437581e-20
2.211471368e-20
3.133509323e-20
3.466955315e-20
8.636997745e-21
1.942844183e-20
2.41494879e-22
2.433165845e-20
1.070189747e-20
1.926110547e-19
3.421826378e-22
4.043571156e-20
1.618705041e-19
5.304027393e-20
6.895600045e-20
1.117624779e-20
8.324395271e-20
5.30970992e-20
1.89505508e-20
4.823472255e-20
7.37399832e-22
7.375296742e-20
4.182838515e-20
2.924093047e-21
5.814314127e-20
1.233276751e-19
1.266162579e-19
3.157089156e-20
3.760994284e-20
2.910453256e-19
4.633595455e-20
9.255486659e-21
2.511001922e-20
3.44171255e-20
1.358302103e-19
1.628773308e-20
1.679096908e-21
7.105630896e-20
2.379130013e-20
2.332110703e-20
2.895739493e-19
7.664920811e-20
8.58365037e-20
1.895658819e-21
7.299453772e-20
2.427179356e-20
8.618516094e-21
8.885719276e-21
3.503087743e-20
5.725000001e-21
4.984417979e-20
5.378394768e-21
3.394160845e-20
9.925476595e-21
2.057001137e-20
2.634878169e-20
7.141000088e-20
4.317270688e-20
2.491971262e-20
2.140099974e-21
8.546225633e-21
9.783892684e-20
8.659603152e-20
2.521786667e-20
9.478413498e-20
7.573213387e-22
4.235610922e-20
1.685284257e-20
3.663552904e-20
3.811524731e-20
1.946070465e-20
1.267187336e-19
1.090259094e-20
1.678536515e-19
1.129694244e-20
1.066567679e-19
2.097844789e-19
3.225869892e-20
7.894803233e-21
6.536627182e-20
4.821866752e-20
7.838050569e-21
6.277457398e-20
1.197190537e-20
1.490013833e-21
6.165906273e-22
1.287304103e-20
4.260959246e-20
6.77977573e-20
3.120789516e-20
8.586671302e-20
4.165559378e-20
3.733372254e-21
3.931846126e-20
1.425840596e-20
7.069909097e-20
7.347814209e-20
8.762146859e-20
2.520517111e-20
5.863947686e-20
1.104924424e-20
5.59777215e-20
1.151870137e-19
4.302362975e-20
9.983496318e-20
1.266137903e-20
3.238333773e-20
6.274217748e-20
4.947510925e-20
1.502899941e-20
5.641342163e-20
3.369363985e-20
4.601619234e-20
9.642203933e-21
2.868966132e-20
2.843602993e-20
1.942070385e-19
4.657014194e-22
7.132909748e-20
3.629735943e-20
6.936636184e-20
9.4523002e-20
3.917436682e-20
2.625350874e-20
5.862606998e-21
1.398263301e-20
1.343954492e-20
5.174874431e-21
9.839937134e-20
2.299401788e-20
1.147471225e-20
2.917469212e-20
2.194102884e-20
1.467635002e-20
3.770534717e-21
6.018280122e-20
5.417056066e-20
6.875469723e-20
5.450444831e-20
8.833390673e-20
6.657677537e-20
2.001688341e-20
4.327604013e-20
7.562630645e-20
5.038612778e-20
1.089233325e-19
8.382608291e-20
5.82118083e-20
1.33962046e-20
2.268766598e-20
8.799042934e-20
2.172025334e-20
2.658867676e-19
6.108286453e-20
2.028762681e-21
1.1999632e-20
3.085034719e-20
1.618186175e-19
7.432844026e-20
7.512897766e-20
4.649461778e-20
6.100652108e-20
2.100197161e-20
1.049304218e-19
2.10048129e-19
1.392311123e-21
5.879345911e-20
2.208731723e-20
5.812053328e-20
1.363577128e-22
6.136374551e-20
3.717902793e-19
6.222392868e-21
1.556017759e-20
3.585430804e-20
8.555038932e-20
1.446416168e-20
3.60897003e-20
1.782239401e-20
8.484430915e-20
9.62182313e-21
5.097409238e-20
1.776132972e-19
7.65464805e-20
8.007607125e-20
5.073357465e-20
8.029927326e-20
1.481155421e-20
1.093752762e-19
2.594011561e-20
9.699919855e-20
9.307998259e-20
5.244219309e-20
4.170796245e-20
8.040639196e-20
7.734422936e-20
1.669794319e-20
1.22441735e-20
7.040433598e-21
1.223244896e-19
1.116885567e-20
6.164791486e-20
5.785860034e-20
9.949928644e-20
5.355618015e-20
1.500573344e-20
7.343576142e-21
2.328713305e-20
6.843740289e-20
8.947450288e-20
1.187136397e-19
3.310214737e-20
1.129743596e-19
4.012236302e-20
8.271345391e-20
8.435557755e-20
2.921376465e-20
6.56469009e-21
2.630333375e-20
2.760373256e-20
3.077857466e-20
4.278701151e-20
4.601884752e-20
2.913519717e-20
6.023732834e-20
2.109811755e-20
7.44173106e-21
1.190626218e-19
2.619025527e-20
1.540356146e-20
1.034904286e-19
5.089947128e-20
1.984102108e-20
5.046644166e-20
1.760250329e-20
7.43442021e-20
4.240834029e-20
2.701974999e-19
9.291972535e-20
9.992503588e-20
1.888544068e-20
3.821236876e-21
1.600395628e-20
1.338420439e-20
3.868540056e-20
1.774819022e-19
1.309388005e-19
3.304540533e-20
3.185183026e-20
5.992179149e-20
6.028800995e-20
3.689019537e-20
4.300607303e-20
4.145809328e-20
2.884318215e-20
4.047150128e-20
9.025921468e-20
7.150981697e-21
4.90699996e-20
1.876337172e-20
5.25596208e-20
9.458689198e-20
4.211966746e-20
5.927901367e-20
1.917033677e-20
4.054046011e-20
1.344086946e-19
3.262395992e-20
1.916996376e-19
7.249610618e-20
4.595490222e-20
5.274939216e-20
6.419478219e-20
3.972336035e-22
9.324634077e-20
7.454600631e-20
5.072647309e-20
5.617953175e-20
4.099989398e-20
4.769413486e-20
3.231854538e-20
1.355982487e-19
1.344729528e-19
6.659192466e-20
1.384668817e-19
1.450593801e-19
8.186229792e-20
5.488014618e-21
4.705684719e-21
4.98950815e-20
6.74012982e-20
1.803246387e-20
1.615061034e-19
5.523221551e-20
2.490659357e-19
1.649995855e-20
9.53312628e-20
2.3688116e-20
1.987113487e-20
3.450278197e-20
1.037905712e-19
2.625343269e-20
1.472758497e-19
1.411688281e-20
8.802472909e-20
1.597607131e-20
6.625037867e-20
1.020352556e-19
1.882242533e-20
7.191399536e-20
1.181864298e-19
9.361770522e-21
1.165842084e-19
1.270643967e-19
6.557421011e-20
1.731203871e-20
6.728452682e-21
1.498491908e-19
1.394471067e-20
2.433564678e-20
3.012703049e-20
2.745599277e-22
8.796632867e-20
2.673328183e-20
3.942204695e-20
1.252367742e-20
1.888408746e-20
8.317078443e-20
5.366846374e-20
2.589469504e-20
3.145587255e-20
4.654775915e-20
2.177336295e-20
7.4926976e-20
4.297114352e-20
7.079088398e-20
2.243746731e-19
7.290870218e-20
4.063558145e-20
6.584814455e-20
1.415983828e-20
8.084031302e-20
1.226750818e-19
1.830689049e-20
1.119981509e-19
7.632732017e-21
2.176425735e-20
5.287932758e-20
1.7770221e-19
1.073101644e-20
1.995862935e-20
9.669839398e-21
1.867786288e-20
1.100529926e-19
2.22644899e-20
1.297986313e-20
1.43798915e-19
4.551245124e-21
7.077974531e-20
1.18744936e-20
1.043659426e-19
1.29491169e-20
7.16641546e-20
1.980024501e-19
5.826211257e-20
3.408148639e-20
6.326094995e-20
1.035452011e-20
3.095781066e-22
2.482153028e-21
5.47020788e-20
3.080369888e-20
4.20846892e-20
4.976470869e-21
2.302683427e-20
8.854172684e-20
3.773800818e-20
1.68279524e-19
5.351458074e-20
4.969207064e-20
1.510707681e-19
4.346965501e-21
1.000491418e-19
4.551846953e-20
1.037601067e-19
1.05390094e-19
1.037255198e-19
5.687055228e-20
9.139617755e-21
1.851755803e-20
3.753335355e-20
9.661112904e-21
3.241740387e-19
6.878158472e-21
2.864179549e-20
3.741131092e-19
2.107778661e-20
6.633837422e-22
9.853143633e-20
1.558612991e-19
1.172646366e-20
3.388755709e-20
6.375516342e-20
1.470140818e-19
7.069601125e-20
2.534610818e-20
4.302403789e-20
4.188328893e-20
2.399211674e-20
1.506669963e-19
1.557356966e-20
8.756205595e-21
6.828765913e-20
6.509850687e-20
1.126737334e-20
3.373073326e-20
8.646541561e-20
2.007943071e-19
1.251855089e-20
1.683500638e-21
2.850808352e-20
4.596280369e-21
4.992809417e-20
6.817069837e-20
1.529529286e-19
8.954330999e-20
1.520380266e-20
6.114232448e-20
6.652706244e-20
1.222230697e-20
2.955238926e-20
5.208143608e-20
1.231382291e-20
7.643881865e-21
4.65333372e-20
1.957662143e-20
6.061200133e-21
5.630521037e-20
5.718203643e-20
2.250120249e-19
1.26005131e-19
8.361788239e-20
2.101905016e-19
3.101646852e-20
4.111795312e-20
1.028293531e-19
1.048194399e-19
1.799464173e-19
8.242317515e-20
1.469969442e-19
7.632615787e-20
6.046841009e-20
1.075271447e-19
1.837081572e-19
2.76155475e-20
2.8988986e-20
1.330248155e-20
3.80252106e-20
1.476394716e-20
7.424891228e-20
7.436111395e-21
6.347314498e-20
5.05714572e-21
1.939252506e-20
6.828763223e-20
6.606279517e-20
6.748038616e-21
1.190752516e-20
1.648811332e-20
1.003715723e-19
2.359364321e-20
1.110659798e-19
6.907839665e-20
2.853722014e-20
6.219676308e-22
7.796958995e-20
1.428121612e-19
2.285299997e-20
7.057878636e-20
9.851042941e-21
3.528061506e-21
3.637366125e-20
1.299112594e-20
5.254339107e-20
7.266689211e-21
4.376412261e-20
6.567301122e-21
4.246727428e-20
4.860963341e-20
3.357766852e-20
3.064469921e-20
7.314441929e-20
4.931384771e-20
3.128464592e-20
4.47142464e-20
1.748055029e-19
6.496150257e-20
4.910805372e-20
1.115278947e-19
1.252570444e-19
6.646235347e-20
2.82984763e-20
3.489386221e-21
4.210955908e-20
4.488694055e-20
1.000845998e-20
4.140610146e-20
2.199619003e-21
4.219077213e-20
5.360942231e-21
3.304913146e-20
2.118332326e-20
5.545256874e-20
4.222593152e-20
6.556282586e-20
7.984275992e-20
1.552704516e-19
6.80923848e-20
2.852684214e-20
2.170962661e-20
3.599831205e-22
5.673595702e-20
4.436517084e-20
5.014740594e-20
7.888360524e-21
1.140877385e-20
1.329877448e-19
3.57416572e-21
1.901464112e-19
2.370417592e-19
6.969827004e-20
6.872123554e-20
8.418018238e-20
1.676033791e-20
4.658260598e-21
2.515651728e-21
2.708276283e-20
6.477083398e-20
3.181669206e-20
9.262433743e-20
3.247797062e-20
2.00133659e-20
1.980483812e-21
4.564144426e-20
1.717629662e-20
7.850946519e-20
8.904352785e-21
1.282512367e-20
8.693563533e-21
4.798600358e-20
9.542258054e-20
2.301429104e-20
3.867359089e-20
1.330171684e-20
3.601286009e-20
7.272958116e-20
1.15022319e-19
2.704476323e-20
9.471815029e-20
3.948153785e-20
1.966462039e-20
1.037304899e-19
3.286877758e-20
2.428812158e-21
4.524365795e-21
6.738820869e-20
3.877736136e-21
7.350417187e-20
5.375630012e-20
5.453399674e-20
1.008279667e-19
2.270051684e-20
9.808325458e-20
1.949975326e-19
2.656658927e-20
1.104904415e-19
2.632318628e-20
8.724000026e-21
9.9330791e-20
6.956497673e-20
2.207025324e-21
2.472991931e-20
2.945359466e-20
1.252923988e-20
4.21541266e-20
1.00019877e-19
6.653113735e-20
9.834266364e-20
6.626687013e-20
1.78675936e-21
1.978427736e-20
1.128787591e-20
1.538694336e-20
3.099772259e-20
4.598060969e-20
5.487131689e-20
8.66993494e-20
4.734268399e-20
9.193353978e-21
1.289587448e-19
6.752458821e-20
4.025817367e-20
1.768354991e-20
3.763527613e-20
2.03420645e-19
2.887471964e-20
2.09654969e-20
8.713950547e-20
7.482539158e-20
3.231182477e-20
4.304120579e-20
1.363338512e-20
5.401121686e-20
9.018101529e-22
7.38332436e-20
7.399965963e-20
2.080322049e-20
1.554513208e-19
4.192424944e-20
1.697541812e-19
1.561674756e-20
1.731428854e-21
6.589722544e-22
9.749165374e-20
3.246584435e-20
3.773850119e-20
6.201826711e-20
6.221117818e-20
2.535030376e-20
3.737633692e-20
4.096629737e-20