/*--------------------------------*- C++ -*----------------------------------*\
| =========                 |                                                 |
| \\      /  F ield         | OpenFOAM: The Open Source CFD Toolbox           |
|  \\    /   O peration     | Version:  v1706                                 |
|   \\  /    A nd           | Web:      www.OpenFOAM.com                      |
|    \\/     M anipulation  |                                                 |
\*---------------------------------------------------------------------------*/
FoamFile
{
    version     2.0;
    format      ascii;
    class       volScalarField;
    location    "0.55";
    object      Ma_Ar1;
}
// * * * * * * * * * * * * * * * * * * * * * * * * * * * * * * * * * * * * * //

dimensions      [0 0 0 0 0 0 0];


internalField   nonuniform List<scalar> 
1000
(
0.009104595156
0.01132589519
0.00878339245
0.01245688087
0.01332337043
0.01319692407
0.01330844687
0.01015100499
0.005592566244
0.01227156239
0.007855728848
0.005792766635
0.004804707922
0.009387009759
0.00853682441
0.007446461302
0.005242090766
0.006098290109
0.007534418207
0.01181810822
0.009938590778
0.01033300488
0.007589181321
0.01237853777
0.01422504163
0.01190403176
0.01410718561
0.01374291704
0.01176195404
0.007308907003
0.01083953019
0.00866944602
0.006973014682
0.01172263565
0.01242872037
0.007655802329
0.01240229591
0.003184335149
0.007343208235
0.008147042336
0.01072164702
0.005354869443
0.0137918653
0.012100002
0.01335328495
0.01448223625
0.0141735002
0.01193713889
0.008409145758
0.007154233581
0.005903260852
0.01165946233
0.01397736253
0.006836372675
0.005992072718
0.008009820218
0.01109650313
0.01257350761
0.01320056123
0.00942314279
0.01133136817
0.0103521414
0.008685905177
0.007495840023
0.005298431581
0.01046608852
0.008439961272
0.01147410732
0.01497738968
0.01541761646
0.01086269979
0.01401852654
0.009775833954
0.007634520938
0.01046508706
0.0104827951
0.01058554687
0.01088088242
0.01199025784
0.01378286696
0.01289084155
0.01174400214
0.01137396518
0.01749427333
0.01443885166
0.0182373484
0.01688828007
0.01122738807
0.007896127568
0.01003668362
0.01415797067
0.0157124994
0.01798900333
0.01717398387
0.01337059013
0.01627974842
0.01312068012
0.01044281823
0.01054202667
0.01239040309
0.01116638339
0.01521633027
0.01313116868
0.01144583554
0.01524283597
0.01558943579
0.01808607223
0.01460412281
0.0153022681
0.01725568413
0.01025371729
0.01679642237
0.01517817487
0.01654520697
0.01964381505
0.01869153017
0.01403936992
0.01493487738
0.0161507146
0.01391585432
0.01038306899
0.02038479154
0.01845880565
0.01638492189
0.01850571994
0.0168256587
0.02313851563
0.02478217125
0.02679345616
0.01769181586
0.02198134434
0.02215357718
0.03178691202
0.02952700913
0.02621009461
0.02625929035
0.02018570479
0.02400047534
0.02849501967
0.02870826861
0.03112696602
0.03021698595
0.02634176899
0.02324259053
0.01983458295
0.0357822418
0.03018687895
0.02992908048
0.02390741878
0.02482311751
0.02802959582
0.03404875234
0.03417181922
0.04234500006
0.04258602083
0.03836886379
0.03848889732
0.03476974603
0.03661984712
0.05212483025
0.04467249536
0.04598288152
0.04777403679
0.04421504076
0.04385791275
0.0283773771
0.03679155849
0.03741798758
0.04272696346
0.05422107099
0.04299669685
0.04344149204
0.04275106022
0.04109911982
0.04925611789
0.0570526639
0.05857003077
0.0506660796
0.05563226557
0.0549231105
0.05883844417
0.06950164368
0.06515468038
0.08384101239
0.08608971134
0.09017564679
0.08806065727
0.09883721373
0.1047137735
0.1098336942
0.1086234006
0.1221481776
0.1459875967
0.1602628803
0.1835389055
0.2098081571
0.2282928051
0.2914546478
0.362586888
0.5328602877
0.009279593811
0.009002535194
0.009446194224
0.004596087686
0.01286821411
0.006784828673
0.009342760726
0.01271684009
0.01327882491
0.009039877881
0.01389016739
0.01003695868
0.01025104502
0.007156377044
0.005782824207
0.004790216614
0.008090578615
0.008170781779
0.01061484728
0.008054680929
0.01086259058
0.009011233111
0.01183720867
0.006445023266
0.008059272469
0.01203837152
0.009315957389
0.006096013852
0.007388344479
0.01223022646
0.01112812309
0.003852571816
0.005761972011
0.01153483111
0.006842567679
0.009530451727
0.005526834615
0.009562881119
0.01035032813
0.009412304848
0.01073906745
0.01042971374
0.008133389023
0.01212048676
0.0133315439
0.01211915758
0.01025357056
0.009486380877
0.01209610532
0.01015400218
0.006827641277
0.008962403311
0.005567145608
0.01202977706
0.01160259641
0.01352302108
0.005910667133
0.009393708636
0.007629549122
0.01388694592
0.008111946812
0.01212025424
0.01232280399
0.01148860115
0.01627453553
0.00880669227
0.01271909991
0.01123948708
0.008611013301
0.008145701816
0.01628665982
0.009300955363
0.01201330273
0.01062620143
0.006118390024
0.009579632251
0.01020446551
0.007852805897
0.01261161205
0.006952508612
0.01049770734
0.01680552331
0.007137821921
0.01076773737
0.009921149631
0.005071096699
0.007040274896
0.009464372927
0.01579666295
0.01257379223
0.01429149225
0.0157949325
0.0179423877
0.02054545702
0.02181506492
0.01342522293
0.01474882903
0.01262564726
0.01342538145
0.01292447174
0.01250955077
0.01023112607
0.01342558537
0.01785296901
0.01532154057
0.01537559929
0.01142282006
0.01475820794
0.01497251948
0.01662654397
0.02435366487
0.01761527223
0.01652130104
0.0172433092
0.01249811631
0.01679811858
0.01596425365
0.01685146301
0.02024428181
0.0158065194
0.01813308254
0.0231729815
0.01678646548
0.02214950848
0.01936362549
0.01650638501
0.01445443718
0.01603769886
0.01581355598
0.02871076701
0.02856628429
0.02682290548
0.02180953263
0.02106256774
0.02014049599
0.02489603209
0.02331420364
0.02631915696
0.01949938797
0.02114161585
0.02639430253
0.02621242879
0.02633252053
0.02434830281
0.0226950562
0.016891214
0.02099045798
0.02211315858
0.0308160408
0.034407102
0.03402485286
0.0357215366
0.03845220842
0.03143171623
0.02241975625
0.02125790575
0.02488049237
0.03415203005
0.04284053692
0.02804118297
0.04758663811
0.0390288312
0.03545216157
0.03140953254
0.03696288009
0.0468473979
0.04395699545
0.04168552777
0.03968204609
0.03324821039
0.0465102043
0.04167837662
0.04851671025
0.0524520864
0.05318034405
0.05201280992
0.05128209996
0.0597489535
0.05548907716
0.06296507613
0.05140583023
0.07603617818
0.06323018097
0.07799597587
0.08010558221
0.09462075183
0.09521648563
0.08267649439
0.09712813952
0.1090982508
0.1271292903
0.1341098366
0.1609376543
0.149116324
0.1769104124
0.2168469362
0.2465139419
0.2844596886
0.3494862073
0.5196951742
0.009512832108
0.003919590953
0.01075144351
0.006103976088
0.005072560281
0.006625918532
0.01163502215
0.01328607576
0.008618495439
0.00368932977
0.005548918405
0.01069289404
0.006941408509
0.009678835694
0.01227530923
0.008066083152
0.01152434914
0.009794997112
0.00769219507
0.004250019435
0.008077542654
0.009800646087
0.0044096892
0.01096316841
0.007616493894
0.006131189005
0.01125003516
0.005396831584
0.009036541536
0.007759195232
0.006734772946
0.01279675933
0.01269283558
0.006956355858
0.01078817978
0.009891154108
0.008038743403
0.01017490218
0.01012856474
0.009837697979
0.01214289378
0.01196353227
0.01015671054
0.006824783365
0.007543864194
0.007842377325
0.01076559361
0.01129236097
0.01051606444
0.0152116583
0.01490247654
0.01171050008
0.0137412215
0.01260800409
0.01093332596
0.009175400486
0.009476245295
0.01163728001
0.008456155667
0.006277601417
0.01387875074
0.01236627775
0.00756676165
0.01011688823
0.01147502308
0.0124053616
0.0103724079
0.01132154251
0.01190639849
0.01357658793
0.009500359722
0.01639928278
0.01019545312
0.009178235734
0.01135422069
0.0127849546
0.01492348053
0.01306614335
0.01501256759
0.01209084918
0.0137529058
0.02110782951
0.01910529128
0.01105450307
0.01275989911
0.01062072039
0.01202630275
0.01425283184
0.01250310543
0.01134661202
0.01693652706
0.006243673627
0.01178727253
0.01022292898
0.01486941422
0.01158065486
0.009351818357
0.01792277468
0.01575291507
0.01432697537
0.0159808744
0.01498635573
0.01197291129
0.01209997198
0.01122271355
0.01748082436
0.01532330437
0.01358601029
0.01157416623
0.01223202665
0.01166892522
0.01153861219
0.01289155205
0.01391295519
0.02218500874
0.01541654207
0.02091386532
0.01684234379
0.0157456212
0.02183608149
0.02810234719
0.01487349843
0.02672990515
0.01320437981
0.01825475303
0.02451939671
0.02050278321
0.01082531495
0.01596989284
0.02562973895
0.02786105888
0.02306654197
0.0196230734
0.01842279074
0.01772431922
0.01678515691
0.01919680331
0.02030946786
0.02450583245
0.02185951027
0.02212435671
0.02130300638
0.02938199762
0.03399786837
0.03387689591
0.01592852823
0.01569606024
0.02497435255
0.02394103529
0.02240623334
0.0213669352
0.02231103025
0.02947112977
0.03158626417
0.02725769545
0.03896114835
0.03335552936
0.03551904814
0.03470883891
0.03052249535
0.02408116638
0.03417462144
0.03918714784
0.03230686215
0.02878463554
0.03019704579
0.03854702455
0.05238096025
0.04839016195
0.04979673581
0.05208856952
0.04447051408
0.03971879325
0.04815592914
0.05243371919
0.0398172791
0.05289146034
0.06497993171
0.05528045535
0.06799636911
0.0652586295
0.0657366672
0.08346634296
0.07347620086
0.07921538448
0.08779722214
0.09898055806
0.09020268652
0.1039954426
0.08776218642
0.1228097293
0.1422192847
0.1527981545
0.161346996
0.1681468459
0.188737096
0.247679898
0.2955638942
0.3905439561
0.5343055871
0.009393584891
0.004590331237
0.0053676395
0.01125172257
0.008713997849
0.005153555291
0.003460887943
0.006209980434
0.006366337024
0.006029827601
0.006457129727
0.006757334323
0.01136487216
0.008485472062
0.006211907099
0.006700220416
0.008813696827
0.004746244136
0.007713770246
0.008006959388
0.008092519459
0.01097835357
0.008026735015
0.008596062881
0.009589897312
0.004638462613
0.003552640418
0.006016073357
0.007176251297
0.01019296423
0.01105087568
0.00624702523
0.01084282756
0.00897350055
0.005204238165
0.009038976774
0.01083397544
0.01478110285
0.01376919507
0.01614772537
0.010201796
0.01192921617
0.009395837862
0.009747778389
0.009212932929
0.002336187224
0.006536708415
0.01159805331
0.006279766859
0.006165451527
0.01138132888
0.009492093004
0.005707667605
0.00548336627
0.008733432819
0.01364405482
0.008527495773
0.008060023212
0.009286544065
0.009394725152
0.004992192727
0.01201265745
0.01001941021
0.009566834836
0.01200463462
0.01329678697
0.01173089496
0.01105808955
0.007939318654
0.009409204767
0.006406509634
0.01013420451
0.009213261325
0.01327087261
0.01360067208
0.01027440848
0.01498430967
0.01314694659
0.01516442655
0.01605122494
0.01358689832
0.007153107758
0.00905047415
0.01344244063
0.009446614594
0.01346311681
0.01535028588
0.01547305286
0.01523847725
0.01462891796
0.008723881424
0.007838246418
0.008916712908
0.007816405101
0.007577223974
0.01566625227
0.01117864851
0.006959509505
0.009754872951
0.01691356771
0.01880741585
0.01873144829
0.01469645719
0.01231359178
0.01687185347
0.01505213704
0.01462656737
0.01703071821
0.01555879419
0.01844010363
0.01513080555
0.01603025741
0.01572446311
0.01445564626
0.01243239365
0.01867645091
0.01535381951
0.01391906593
0.01275781985
0.01788659098
0.01804931357
0.01810353891
0.01265440544
0.01910925427
0.01560598036
0.01693769442
0.01921335152
0.02938992563
0.0210533288
0.019199811
0.0117470095
0.01859263389
0.02489050818
0.02594723061
0.02279326179
0.01732332793
0.02413288775
0.03109359229
0.02561941644
0.01719242668
0.02147742508
0.02833015711
0.02951811569
0.02429443934
0.02441076075
0.02531444423
0.02947799232
0.03013062179
0.02274199499
0.02434613831
0.02726077212
0.02266876726
0.0266588035
0.02712292933
0.02735838008
0.02363680948
0.02426051744
0.02877543661
0.02550988891
0.03182189411
0.03023565494
0.03476651246
0.03899113074
0.03111449212
0.03953598019
0.03897321437
0.04046069528
0.03757947235
0.03472196499
0.05009314881
0.0441684229
0.04638336692
0.04037619343
0.04642314295
0.04560233023
0.05188586367
0.05606652956
0.05827562472
0.06853021669
0.0701145537
0.07369624446
0.07357661407
0.06024234711
0.08158036335
0.07447567939
0.06245840544
0.09139928567
0.102534031
0.09743470313
0.1235588351
0.1184622752
0.1155543246
0.1404691694
0.1674590728
0.1679698783
0.1884930421
0.1980988031
0.2471739393
0.3325253056
0.5175103362
0.005637688887
0.009309047198
0.01033115807
0.006851666781
0.008088443887
0.007064037936
0.006848819997
0.007565238927
0.01051934024
0.011653671
0.006928862197
0.009383382754
0.01102541328
0.005469727795
0.01040659924
0.01083141634
0.01228866517
0.01082784662
0.009861672786
0.01171670775
0.00588694011
0.008158523614
0.007555405093
0.0082356088
0.005191119278
0.009039950707
0.01290776966
0.01028340098
0.008682425566
0.00435791068
0.007808212422
0.008454189937
0.009651937422
0.01006064047
0.009269278955
0.01033291329
0.01010582989
0.008788698394
0.00445823302
0.003504354004
0.003089721688
0.006361756334
0.006713219573
0.00675880449
0.007705360387
0.01251573482
0.01144782839
0.005486462692
0.00766437525
0.009712083543
0.009644284535
0.008058548205
0.01178379199
0.01246414023
0.01494134222
0.01171197773
0.01068753813
0.01004540957
0.01309164539
0.01340620782
0.0122254222
0.009908947455
0.01129514218
0.01516462686
0.01297278439
0.007254451315
0.01412879618
0.008910927196
0.01076099301
0.01045256818
0.01029275487
0.0133365375
0.01729278313
0.01515546973
0.01555815613
0.01348374701
0.009552867636
0.01016009933
0.01243523287
0.008734138919
0.008505718175
0.007253479755
0.009772078091
0.008468824668
0.01003817846
0.01283827023
0.01137096774
0.008383844012
0.01062576204
0.01582758637
0.01280270161
0.01466941883
0.01207625678
0.01174306733
0.0120986584
0.01189869961
0.01866911339
0.01966079638
0.01463639574
0.01110021546
0.01171720225
0.01426956717
0.01243611521
0.0176005682
0.01326618841
0.01309279307
0.01471326858
0.01784013936
0.01422256703
0.01518301052
0.01582399625
0.02250248241
0.01797164155
0.01985358626
0.01602409574
0.01619590271
0.0141362384
0.01555691944
0.02373982438
0.01841027917
0.0202159637
0.01836280304
0.01834609298
0.01762763879
0.02117477469
0.02522717873
0.01739102172
0.01408834023
0.02302801422
0.01211180726
0.01914707864
0.01552422477
0.0149599633
0.01951254738
0.02175059504
0.02284989198
0.02144049036
0.01883629061
0.02363195664
0.025898592
0.02508395112
0.01043662457
0.0174943502
0.02336487347
0.02274944943
0.03187560648
0.03359905917
0.03606093256
0.03187081383
0.03298252387
0.02580276294
0.02728097159
0.02381738283
0.0272879251
0.03481408125
0.0395160207
0.03957784267
0.03945977241
0.03391611273
0.02787325072
0.02711155092
0.02247604311
0.02839852991
0.04764387565
0.04169721315
0.04157801355
0.04218680086
0.03580813193
0.03370928846
0.02777585043
0.04559478212
0.0536249791
0.05161482696
0.05380543221
0.05229641793
0.04805047839
0.05635937883
0.05416272472
0.06132456791
0.07025324254
0.07282628634
0.06693101353
0.07006318806
0.07220442741
0.08463919636
0.08149544241
0.09895227056
0.1018981981
0.1148276289
0.1106812991
0.1261780926
0.1293330416
0.1383130706
0.1512544289
0.176569811
0.187713436
0.215147401
0.2337093825
0.3204843048
0.4925054435
)
;

boundaryField
{
    bottom
    {
        type            calculated;
        value           nonuniform List<scalar> 
200
(
0.009104595156
0.01132589519
0.00878339245
0.01245688087
0.01332337043
0.01319692407
0.01330844687
0.01015100499
0.005592566244
0.01227156239
0.007855728848
0.005792766635
0.004804707922
0.009387009759
0.00853682441
0.007446461302
0.005242090766
0.006098290109
0.007534418207
0.01181810822
0.009938590778
0.01033300488
0.007589181321
0.01237853777
0.01422504163
0.01190403176
0.01410718561
0.01374291704
0.01176195404
0.007308907003
0.01083953019
0.00866944602
0.006973014682
0.01172263565
0.01242872037
0.007655802329
0.01240229591
0.003184335149
0.007343208235
0.008147042336
0.01072164702
0.005354869443
0.0137918653
0.012100002
0.01335328495
0.01448223625
0.0141735002
0.01193713889
0.008409145758
0.007154233581
0.005903260852
0.01165946233
0.01397736253
0.006836372675
0.005992072718
0.008009820218
0.01109650313
0.01257350761
0.01320056123
0.00942314279
0.01133136817
0.0103521414
0.008685905177
0.007495840023
0.005298431581
0.01046608852
0.008439961272
0.01147410732
0.01497738968
0.01541761646
0.01086269979
0.01401852654
0.009775833954
0.007634520938
0.01046508706
0.0104827951
0.01058554687
0.01088088242
0.01199025784
0.01378286696
0.01289084155
0.01174400214
0.01137396518
0.01749427333
0.01443885166
0.0182373484
0.01688828007
0.01122738807
0.007896127568
0.01003668362
0.01415797067
0.0157124994
0.01798900333
0.01717398387
0.01337059013
0.01627974842
0.01312068012
0.01044281823
0.01054202667
0.01239040309
0.01116638339
0.01521633027
0.01313116868
0.01144583554
0.01524283597
0.01558943579
0.01808607223
0.01460412281
0.0153022681
0.01725568413
0.01025371729
0.01679642237
0.01517817487
0.01654520697
0.01964381505
0.01869153017
0.01403936992
0.01493487738
0.0161507146
0.01391585432
0.01038306899
0.02038479154
0.01845880565
0.01638492189
0.01850571994
0.0168256587
0.02313851563
0.02478217125
0.02679345616
0.01769181586
0.02198134434
0.02215357718
0.03178691202
0.02952700913
0.02621009461
0.02625929035
0.02018570479
0.02400047534
0.02849501967
0.02870826861
0.03112696602
0.03021698595
0.02634176899
0.02324259053
0.01983458295
0.0357822418
0.03018687895
0.02992908048
0.02390741878
0.02482311751
0.02802959582
0.03404875234
0.03417181922
0.04234500006
0.04258602083
0.03836886379
0.03848889732
0.03476974603
0.03661984712
0.05212483025
0.04467249536
0.04598288152
0.04777403679
0.04421504076
0.04385791275
0.0283773771
0.03679155849
0.03741798758
0.04272696346
0.05422107099
0.04299669685
0.04344149204
0.04275106022
0.04109911982
0.04925611789
0.0570526639
0.05857003077
0.0506660796
0.05563226557
0.0549231105
0.05883844417
0.06950164368
0.06515468038
0.08384101239
0.08608971134
0.09017564679
0.08806065727
0.09883721373
0.1047137735
0.1098336942
0.1086234006
0.1221481776
0.1459875967
0.1602628803
0.1835389055
0.2098081571
0.2282928051
0.2914546478
0.362586888
0.5328602877
)
;
    }
    top
    {
        type            calculated;
        value           nonuniform List<scalar> 
200
(
0.005637688887
0.009309047198
0.01033115807
0.006851666781
0.008088443887
0.007064037936
0.006848819997
0.007565238927
0.01051934024
0.011653671
0.006928862197
0.009383382754
0.01102541328
0.005469727795
0.01040659924
0.01083141634
0.01228866517
0.01082784662
0.009861672786
0.01171670775
0.00588694011
0.008158523614
0.007555405093
0.0082356088
0.005191119278
0.009039950707
0.01290776966
0.01028340098
0.008682425566
0.00435791068
0.007808212422
0.008454189937
0.009651937422
0.01006064047
0.009269278955
0.01033291329
0.01010582989
0.008788698394
0.00445823302
0.003504354004
0.003089721688
0.006361756334
0.006713219573
0.00675880449
0.007705360387
0.01251573482
0.01144782839
0.005486462692
0.00766437525
0.009712083543
0.009644284535
0.008058548205
0.01178379199
0.01246414023
0.01494134222
0.01171197773
0.01068753813
0.01004540957
0.01309164539
0.01340620782
0.0122254222
0.009908947455
0.01129514218
0.01516462686
0.01297278439
0.007254451315
0.01412879618
0.008910927196
0.01076099301
0.01045256818
0.01029275487
0.0133365375
0.01729278313
0.01515546973
0.01555815613
0.01348374701
0.009552867636
0.01016009933
0.01243523287
0.008734138919
0.008505718175
0.007253479755
0.009772078091
0.008468824668
0.01003817846
0.01283827023
0.01137096774
0.008383844012
0.01062576204
0.01582758637
0.01280270161
0.01466941883
0.01207625678
0.01174306733
0.0120986584
0.01189869961
0.01866911339
0.01966079638
0.01463639574
0.01110021546
0.01171720225
0.01426956717
0.01243611521
0.0176005682
0.01326618841
0.01309279307
0.01471326858
0.01784013936
0.01422256703
0.01518301052
0.01582399625
0.02250248241
0.01797164155
0.01985358626
0.01602409574
0.01619590271
0.0141362384
0.01555691944
0.02373982438
0.01841027917
0.0202159637
0.01836280304
0.01834609298
0.01762763879
0.02117477469
0.02522717873
0.01739102172
0.01408834023
0.02302801422
0.01211180726
0.01914707864
0.01552422477
0.0149599633
0.01951254738
0.02175059504
0.02284989198
0.02144049036
0.01883629061
0.02363195664
0.025898592
0.02508395112
0.01043662457
0.0174943502
0.02336487347
0.02274944943
0.03187560648
0.03359905917
0.03606093256
0.03187081383
0.03298252387
0.02580276294
0.02728097159
0.02381738283
0.0272879251
0.03481408125
0.0395160207
0.03957784267
0.03945977241
0.03391611273
0.02787325072
0.02711155092
0.02247604311
0.02839852991
0.04764387565
0.04169721315
0.04157801355
0.04218680086
0.03580813193
0.03370928846
0.02777585043
0.04559478212
0.0536249791
0.05161482696
0.05380543221
0.05229641793
0.04805047839
0.05635937883
0.05416272472
0.06132456791
0.07025324254
0.07282628634
0.06693101353
0.07006318806
0.07220442741
0.08463919636
0.08149544241
0.09895227056
0.1018981981
0.1148276289
0.1106812991
0.1261780926
0.1293330416
0.1383130706
0.1512544289
0.176569811
0.187713436
0.215147401
0.2337093825
0.3204843048
0.4925054435
)
;
    }
    inlet
    {
        type            calculated;
        value           nonuniform List<scalar> 5(0.009104595156 0.009279593811 0.009512832108 0.009393584891 0.005637688887);
    }
    outlet
    {
        type            calculated;
        value           nonuniform List<scalar> 5(0.5328602877 0.5196951742 0.5343055871 0.5175103362 0.4925054435);
    }
    back
    {
        type            symmetry;
    }
    front
    {
        type            symmetry;
    }
}


// ************************************************************************* //
