/*--------------------------------*- C++ -*----------------------------------*\
| =========                 |                                                 |
| \\      /  F ield         | OpenFOAM: The Open Source CFD Toolbox           |
|  \\    /   O peration     | Version:  v1706                                 |
|   \\  /    A nd           | Web:      www.OpenFOAM.com                      |
|    \\/     M anipulation  |                                                 |
\*---------------------------------------------------------------------------*/
FoamFile
{
    version     2.0;
    format      ascii;
    class       volScalarField;
    location    "0.55";
    object      Ma_Ar2;
}
// * * * * * * * * * * * * * * * * * * * * * * * * * * * * * * * * * * * * * //

dimensions      [0 0 0 0 0 0 0];


internalField   nonuniform List<scalar> 
1000
(
0.4790896426
0.3485187627
0.2734980109
0.2106708379
0.1910522073
0.1709589196
0.1597906519
0.135242905
0.1282478316
0.130934636
0.101465617
0.08959452446
0.09435353254
0.1150615372
0.09370067398
0.09227714606
0.09195236941
0.08673522274
0.06810670069
0.07832374593
0.07241894363
0.08349384844
0.07247716937
0.05948635369
0.05811446215
0.05615991448
0.05366260619
0.05363029271
0.05013974319
0.04683301018
0.05415780339
0.05210562153
0.03103673944
0.03172684112
0.04216762055
0.04332922964
0.04470893197
0.04552448286
0.04332939472
0.03392210341
0.03535789181
0.02617962003
0.02877043936
0.03309789697
0.02217538701
0.02660581651
0.02272065776
0.02803146365
0.02361047274
0.03221536696
0.02414796817
0.02928133414
0.02608102115
0.02874807098
0.02919067705
0.03460336292
0.0316670409
0.0312233545
0.02408594944
0.02047394706
0.02033230319
0.01925879752
0.02228125964
0.02880854967
0.02772668087
0.02847166886
0.0215911241
0.01694931697
0.02009937823
0.01900570015
0.0190567436
0.02328799112
0.01642977829
0.02459993513
0.02306656465
0.02382473041
0.0184435599
0.01927520658
0.01254544152
0.01725206265
0.01685366257
0.01205196871
0.01303099938
0.01625297526
0.01463235402
0.01483870844
0.01864480917
0.02057227505
0.02047466147
0.02129113202
0.01539107047
0.01761573619
0.01928769545
0.02582389029
0.02100515136
0.02629792927
0.02330067786
0.02027318477
0.01631106343
0.01694860289
0.01405645038
0.016459485
0.01310244984
0.01581087052
0.01656237693
0.01986386356
0.01619419787
0.01015044593
0.009895586059
0.01375052196
0.02252232691
0.0209723959
0.01632380516
0.01581073712
0.008940739932
0.01464014329
0.01609047657
0.01759062831
0.01632330312
0.01424363908
0.01138634894
0.003166984531
0.007618184012
0.01316180217
0.01881029154
0.01391873655
0.007909025628
0.01003408106
0.007761740551
0.007239057928
0.006721280684
0.009929677822
0.009185723901
0.01303859697
0.01069056379
0.02134834875
0.01382270196
0.01471558994
0.01712113038
0.01469592326
0.01405645488
0.01346094984
0.01347598248
0.01427477269
0.01018813959
0.01331713732
0.008148831585
0.008390492247
0.00846438004
0.009196152649
0.009292177025
0.007858524905
0.0005117130342
0.005213688536
0.008510414033
0.008375819833
0.01042859193
0.009148183925
0.01062722089
0.0104782708
0.01808980847
0.01684832905
0.01101546135
0.008229649887
0.009909864588
0.008768768296
0.01182513586
0.007978675051
0.004580145716
0.006253550724
0.009644052941
0.01152320363
0.01131916691
0.007382148401
0.007434387047
0.004061311611
0.004071786679
0.009069840611
0.007057878499
0.006704238826
0.006572741459
0.01083320422
0.01024136938
0.01284969808
0.01129591122
0.01294942003
0.01243638732
0.01439334778
0.01157156891
0.01197041895
0.01160809165
0.01055138167
0.01597296705
0.01375090039
0.01112216125
0.01172481587
0.01148175399
0.005949327562
0.00747457861
0.006644645165
0.485340312
0.3491393312
0.2740822839
0.2310574997
0.1828591432
0.1716727657
0.1357000999
0.1340495854
0.119145244
0.1043658771
0.1004415791
0.1031241664
0.1012314377
0.08342236898
0.08995672638
0.08295387768
0.06963905841
0.06967165936
0.07938600985
0.07777593644
0.07616626013
0.05825994193
0.06026820449
0.05932099455
0.04643570901
0.05809715584
0.0423562843
0.05024831955
0.04925309239
0.05442150673
0.03830853713
0.03335679896
0.04475143085
0.0485271789
0.04070657694
0.04179776012
0.03736129902
0.04529662664
0.0313973785
0.04216343804
0.0344351071
0.03054953831
0.02168645998
0.0267621781
0.02784042833
0.02976717462
0.02948510594
0.02543980803
0.02715784755
0.02185118598
0.02507111685
0.01917997184
0.03278074672
0.0277948642
0.03119856034
0.02583778434
0.02144467015
0.03076304177
0.03313695929
0.03040798728
0.02488210336
0.02819401633
0.02158059663
0.02358084587
0.01907801541
0.01750481791
0.02182209662
0.02609563876
0.02133151077
0.02254969585
0.0196495049
0.01778473148
0.0200230404
0.01712895072
0.02338164792
0.01710615598
0.0181691121
0.01632529803
0.01494487682
0.01238530268
0.01734977583
0.0220833699
0.01468946656
0.01979700757
0.02116890148
0.02702998181
0.02160694625
0.01163516988
0.01780011722
0.01437907371
0.01989444794
0.01222093244
0.01392045474
0.01723828356
0.01505441401
0.01710210402
0.01280099694
0.01488160024
0.0163116181
0.01644740685
0.01637760502
0.01582229775
0.01442795664
0.006173923587
0.009902361429
0.01272469427
0.01524831035
0.01464085943
0.01783436301
0.01869074997
0.01159585035
0.008049149588
0.01584841278
0.01237024548
0.0202917825
0.01628040669
0.01320025119
0.01155718609
0.009920478924
0.01319276847
0.01833803502
0.01840657871
0.01937380468
0.01721119682
0.01247068823
0.01866100042
0.01707962749
0.01530894841
0.008620621093
0.007983128928
0.01187810284
0.01445779014
0.01115887897
0.01045588115
0.01002532895
0.008982099916
0.01293661957
0.01679962777
0.01218331324
0.01286162043
0.00962485116
0.01070483426
0.01215588058
0.009991403874
0.01398017641
0.01156922292
0.01376811466
0.008957354785
0.01610415427
0.01247286779
0.01336222095
0.01365555776
0.01361372007
0.01584050752
0.008330279676
0.0089296
0.007290925966
0.009675121837
0.01144467555
0.008540861394
0.00540196383
0.007751050894
0.01324489459
0.01338093522
0.01132128207
0.01109117791
0.01086170476
0.009920548584
0.01182600856
0.01503531461
0.01235358534
0.01431304412
0.01310386949
0.009482725959
0.01037002138
0.01009545995
0.01208956205
0.006531010195
0.008124920474
0.008687174269
0.01227982973
0.01473231883
0.009530128428
0.01131412587
0.01178653048
0.009141049552
0.0108584304
0.01087812998
0.01220732514
0.01064651896
0.006731516327
0.0108062021
0.008518372805
0.01135741397
0.01206795553
0.01263075349
0.01148217479
0.01075745501
0.006029014926
0.007351315142
0.4979625071
0.3407144619
0.2643615129
0.2285497188
0.2021908871
0.1516208579
0.1515879714
0.1397197793
0.1316563438
0.1310157727
0.1330902745
0.09961268468
0.09284140211
0.09723304541
0.09225175173
0.08857616865
0.07479333252
0.06730153344
0.07006388158
0.06516125717
0.05397686166
0.06341164947
0.059885451
0.04950753182
0.05318654918
0.04136644023
0.03816520229
0.04038020727
0.03361455668
0.04102993401
0.03782552018
0.04831082411
0.03984273854
0.03350824202
0.04271880124
0.02675320628
0.03657270924
0.03219684027
0.03487012004
0.03207609
0.03811459159
0.03233298063
0.03801908401
0.03274623237
0.03151236335
0.03654342412
0.02909505646
0.03059907274
0.01663512237
0.02327657785
0.02269508849
0.02967436342
0.02927842238
0.03072912793
0.02355600271
0.0259602687
0.02764552082
0.02276668012
0.01379612503
0.02601582615
0.02578505529
0.0196496845
0.01989833718
0.01905677973
0.01748585429
0.02871697845
0.01669731488
0.02177176623
0.02108998393
0.01797452687
0.01940306541
0.01657053357
0.02082496653
0.02251918336
0.01156041889
0.0158429571
0.01297237312
0.01484269164
0.02309770009
0.01203285578
0.01868365783
0.01788338967
0.009813214721
0.009429820014
0.007877279271
0.007645090024
0.01177183323
0.01074334386
0.01358498584
0.01617887219
0.012977551
0.0152990455
0.01219048234
0.01022358136
0.009874828585
0.01129873316
0.006120640913
0.01576896747
0.01624667954
0.01908184486
0.01654994495
0.01423076795
0.01841036884
0.01053943142
0.006467564591
0.009872799007
0.01459362111
0.01530027176
0.01838101925
0.01293646733
0.01275753924
0.01129348767
0.01219536778
0.01638938048
0.0197889448
0.01462847109
0.01560711303
0.01333256689
0.01546959878
0.0174800114
0.01398893568
0.01927018648
0.01665630356
0.01653201332
0.0143351566
0.01514421716
0.01176499821
0.01563725776
0.01622736211
0.01325964994
0.01591686065
0.01550918695
0.01661122222
0.0108757191
0.01064054725
0.009987966404
0.01046127118
0.00945368571
0.0132480712
0.01594228813
0.01210046076
0.01283520019
0.008917114178
0.01087054228
0.01114403237
0.009069289329
0.008655885959
0.0103673383
0.008882602726
0.0131561568
0.00638070948
0.01067907742
0.0162783631
0.01260428511
0.0157879755
0.01069099368
0.009469219905
0.008152634416
0.005905172404
0.009003837876
0.005007267964
0.009203677154
0.0167016246
0.01264571171
0.015964003
0.0109632839
0.01017109471
0.01364121091
0.01563914536
0.01515876834
0.008098115781
0.009956884913
0.01214692296
0.01111716623
0.008920998515
0.008012254706
0.01021911407
0.01194924611
0.01214717074
0.01508867193
0.0126038249
0.007344065344
0.006466923659
0.004761613254
0.008555412827
0.01041509434
0.009181543621
0.008206822527
0.003779078044
0.008870088286
0.01135527836
0.008587995751
0.008200718448
0.004498829898
0.002269026891
0.007513071632
0.005699628711
0.006437869906
0.008098282355
0.00987447622
0.5139063345
0.3524683056
0.2608588304
0.2212615831
0.1856692303
0.179954022
0.1665191296
0.1479449142
0.1268405144
0.1137868447
0.1062419638
0.1012836449
0.1043219464
0.08539971812
0.09410074607
0.08475163646
0.08874250249
0.06830740303
0.07239984233
0.05397510858
0.05609561691
0.05679339304
0.05825654404
0.05401693349
0.05854773486
0.06042941779
0.05811396354
0.055961907
0.05132873981
0.04035958527
0.04281646925
0.03878179827
0.05679161691
0.04114842582
0.04053238142
0.05178786378
0.03174712706
0.04070524987
0.03661056937
0.03509734645
0.03177141725
0.03144274445
0.03293250732
0.03607757901
0.03581834195
0.02049955979
0.03065629895
0.02949441235
0.03570202467
0.03407600338
0.02953266722
0.03580193015
0.02256815645
0.02677860051
0.02918978137
0.02931457147
0.02271779549
0.01787802464
0.0190208285
0.01765960904
0.02112453006
0.02808067618
0.02674346551
0.01872045642
0.02867430676
0.01760450702
0.02332266429
0.01406402598
0.02086324442
0.01225412344
0.01626234699
0.017479586
0.01284222436
0.01102165941
0.01269592446
0.02084271797
0.01958581201
0.01858782019
0.01656397762
0.01809568212
0.01460317744
0.01874910168
0.01763113
0.01198762264
0.01539300678
0.01669580633
0.0128509697
0.01629945776
0.01093678123
0.0092465888
0.01420290943
0.01341399558
0.01755564431
0.01848739528
0.01256731858
0.0105269938
0.01807772811
0.0176900755
0.01488803244
0.01232329915
0.0151714731
0.009883667616
0.009580871717
0.01842150451
0.0196043351
0.01598705979
0.01073262893
0.02006632713
0.01623970027
0.0132672793
0.0118176036
0.01098410852
0.00726702696
0.01103214054
0.012871761
0.01477881408
0.00971804836
0.01420356514
0.01235199601
0.009643322195
0.01665249484
0.01165934585
0.008897999835
0.009895545473
0.009245654703
0.008292867527
0.009759289871
0.01287653936
0.0125586335
0.01682521245
0.01831682998
0.01206326286
0.01326118129
0.01916767507
0.01239113297
0.01465078803
0.009924410771
0.009940588242
0.009445612685
0.009047416609
0.009272045688
0.01239937142
0.01172461281
0.01072784285
0.008641409273
0.01078406953
0.01139274448
0.01508440189
0.01805124935
0.01316161192
0.01075643215
0.01021649613
0.01546712954
0.01503950168
0.01199200466
0.01301595881
0.01420724792
0.01279057014
0.01091627059
0.01209054771
0.01549262436
0.01288400251
0.007425582956
0.01109442212
0.007056768214
0.01443218621
0.01085974754
0.01191789876
0.008449084439
0.009318766422
0.01384482399
0.01019970506
0.00817959671
0.01071592504
0.009349156753
0.01128456255
0.01047109047
0.0108727815
0.007899680552
0.01090818845
0.01170032706
0.006859816679
0.005073542482
0.01018902341
0.01126551233
0.004787103892
0.007387381127
0.008810616334
0.0101314051
0.01021915291
0.01094318328
0.005682402207
0.0074357101
0.004853179127
0.006377784237
0.003066582857
0.005975577187
0.006677053648
0.00784527944
0.007952812204
0.4865989233
0.3471534089
0.30965537
0.2528884821
0.2209791393
0.1906259228
0.1656783855
0.1452244954
0.1386912075
0.1310022372
0.1193709567
0.1148743194
0.1007920504
0.08626773952
0.08279347513
0.06836116081
0.06461503309
0.07036553179
0.06177861632
0.0739147776
0.0683457371
0.05309119034
0.05994887554
0.06044554764
0.05647722952
0.05415469908
0.05466094671
0.05238815817
0.05167527068
0.05055120419
0.05034936799
0.04605699112
0.0466669041
0.04704635536
0.04526026016
0.03434879769
0.03507223088
0.03323757669
0.02567130559
0.03210390125
0.03562234603
0.03389823056
0.03402380686
0.03388068589
0.03489642946
0.03852385996
0.03434016799
0.03008026258
0.03824001548
0.02982470042
0.03155784157
0.01932884886
0.02139224793
0.01826505262
0.02210227981
0.01472077312
0.01727352536
0.02610963812
0.02755050604
0.02160717059
0.021287531
0.02154547577
0.01881894808
0.01724477804
0.01957578179
0.01701293998
0.02026807561
0.03004659446
0.02373074174
0.02579915529
0.02901097826
0.0229073931
0.02148818005
0.02073883277
0.01842630402
0.01443208799
0.02094206499
0.01683341872
0.02044077577
0.0237099422
0.01350717606
0.0200150149
0.02239877415
0.02375839998
0.01828114081
0.01822588146
0.01544180386
0.007380187825
0.01614901077
0.01842487969
0.0111279325
0.012807625
0.01319052775
0.008420396064
0.01272356824
0.01446358359
0.01416340292
0.006804573021
0.0061879928
0.0105061434
0.01593098764
0.01557124763
0.01809676566
0.0183170169
0.01803002449
0.01823533297
0.02032462429
0.01525736547
0.009460498789
0.01519478641
0.015208049
0.01524622213
0.01589651808
0.01349965194
0.008564373416
0.007063822149
0.01167410344
0.009388317911
0.01247408867
0.01006077871
0.01227362215
0.01219341732
0.0129927644
0.01075794396
0.01077195419
0.01056663649
0.01102140369
0.01189996183
0.01555195203
0.01420711317
0.01149321227
0.01116431869
0.0102426945
0.01014354677
0.01772527013
0.01049957227
0.01238253882
0.01318622937
0.01138209062
0.008851762378
0.01413644236
0.012705265
0.00836902214
0.01292807377
0.009260100435
0.01169233034
0.01076741119
0.01211952828
0.008950534925
0.01075098959
0.010876575
0.01359133508
0.006740884674
0.0063883515
0.009392944211
0.0152894588
0.01090916879
0.01419046488
0.01538425156
0.01329983046
0.007912371995
0.004801194068
0.004942471922
0.008845688744
0.007584076702
0.004946020397
0.008720248072
0.008138358514
0.009703359217
0.007629679317
0.003299335583
0.005353241189
0.0077442713
0.01046324014
0.01605673619
0.01304820711
0.01210402887
0.00932900138
0.008049246163
0.00644316588
0.006818426032
0.008965391574
0.01088183227
0.00832920327
0.003896623112
0.005325352868
0.004711958881
0.006490319095
0.004364019505
0.004081113418
0.003721853949
0.004810470397
0.005973114534
0.00654409105
0.00605954325
0.007262256951
0.007702946709
0.01005675307
0.01082294514
0.01082858432
)
;

boundaryField
{
    bottom
    {
        type            calculated;
        value           nonuniform List<scalar> 
200
(
0.4790896426
0.3485187627
0.2734980109
0.2106708379
0.1910522073
0.1709589196
0.1597906519
0.135242905
0.1282478316
0.130934636
0.101465617
0.08959452446
0.09435353254
0.1150615372
0.09370067398
0.09227714606
0.09195236941
0.08673522274
0.06810670069
0.07832374593
0.07241894363
0.08349384844
0.07247716937
0.05948635369
0.05811446215
0.05615991448
0.05366260619
0.05363029271
0.05013974319
0.04683301018
0.05415780339
0.05210562153
0.03103673944
0.03172684112
0.04216762055
0.04332922964
0.04470893197
0.04552448286
0.04332939472
0.03392210341
0.03535789181
0.02617962003
0.02877043936
0.03309789697
0.02217538701
0.02660581651
0.02272065776
0.02803146365
0.02361047274
0.03221536696
0.02414796817
0.02928133414
0.02608102115
0.02874807098
0.02919067705
0.03460336292
0.0316670409
0.0312233545
0.02408594944
0.02047394706
0.02033230319
0.01925879752
0.02228125964
0.02880854967
0.02772668087
0.02847166886
0.0215911241
0.01694931697
0.02009937823
0.01900570015
0.0190567436
0.02328799112
0.01642977829
0.02459993513
0.02306656465
0.02382473041
0.0184435599
0.01927520658
0.01254544152
0.01725206265
0.01685366257
0.01205196871
0.01303099938
0.01625297526
0.01463235402
0.01483870844
0.01864480917
0.02057227505
0.02047466147
0.02129113202
0.01539107047
0.01761573619
0.01928769545
0.02582389029
0.02100515136
0.02629792927
0.02330067786
0.02027318477
0.01631106343
0.01694860289
0.01405645038
0.016459485
0.01310244984
0.01581087052
0.01656237693
0.01986386356
0.01619419787
0.01015044593
0.009895586059
0.01375052196
0.02252232691
0.0209723959
0.01632380516
0.01581073712
0.008940739932
0.01464014329
0.01609047657
0.01759062831
0.01632330312
0.01424363908
0.01138634894
0.003166984531
0.007618184012
0.01316180217
0.01881029154
0.01391873655
0.007909025628
0.01003408106
0.007761740551
0.007239057928
0.006721280684
0.009929677822
0.009185723901
0.01303859697
0.01069056379
0.02134834875
0.01382270196
0.01471558994
0.01712113038
0.01469592326
0.01405645488
0.01346094984
0.01347598248
0.01427477269
0.01018813959
0.01331713732
0.008148831585
0.008390492247
0.00846438004
0.009196152649
0.009292177025
0.007858524905
0.0005117130342
0.005213688536
0.008510414033
0.008375819833
0.01042859193
0.009148183925
0.01062722089
0.0104782708
0.01808980847
0.01684832905
0.01101546135
0.008229649887
0.009909864588
0.008768768296
0.01182513586
0.007978675051
0.004580145716
0.006253550724
0.009644052941
0.01152320363
0.01131916691
0.007382148401
0.007434387047
0.004061311611
0.004071786679
0.009069840611
0.007057878499
0.006704238826
0.006572741459
0.01083320422
0.01024136938
0.01284969808
0.01129591122
0.01294942003
0.01243638732
0.01439334778
0.01157156891
0.01197041895
0.01160809165
0.01055138167
0.01597296705
0.01375090039
0.01112216125
0.01172481587
0.01148175399
0.005949327562
0.00747457861
0.006644645165
)
;
    }
    top
    {
        type            calculated;
        value           nonuniform List<scalar> 
200
(
0.4865989233
0.3471534089
0.30965537
0.2528884821
0.2209791393
0.1906259228
0.1656783855
0.1452244954
0.1386912075
0.1310022372
0.1193709567
0.1148743194
0.1007920504
0.08626773952
0.08279347513
0.06836116081
0.06461503309
0.07036553179
0.06177861632
0.0739147776
0.0683457371
0.05309119034
0.05994887554
0.06044554764
0.05647722952
0.05415469908
0.05466094671
0.05238815817
0.05167527068
0.05055120419
0.05034936799
0.04605699112
0.0466669041
0.04704635536
0.04526026016
0.03434879769
0.03507223088
0.03323757669
0.02567130559
0.03210390125
0.03562234603
0.03389823056
0.03402380686
0.03388068589
0.03489642946
0.03852385996
0.03434016799
0.03008026258
0.03824001548
0.02982470042
0.03155784157
0.01932884886
0.02139224793
0.01826505262
0.02210227981
0.01472077312
0.01727352536
0.02610963812
0.02755050604
0.02160717059
0.021287531
0.02154547577
0.01881894808
0.01724477804
0.01957578179
0.01701293998
0.02026807561
0.03004659446
0.02373074174
0.02579915529
0.02901097826
0.0229073931
0.02148818005
0.02073883277
0.01842630402
0.01443208799
0.02094206499
0.01683341872
0.02044077577
0.0237099422
0.01350717606
0.0200150149
0.02239877415
0.02375839998
0.01828114081
0.01822588146
0.01544180386
0.007380187825
0.01614901077
0.01842487969
0.0111279325
0.012807625
0.01319052775
0.008420396064
0.01272356824
0.01446358359
0.01416340292
0.006804573021
0.0061879928
0.0105061434
0.01593098764
0.01557124763
0.01809676566
0.0183170169
0.01803002449
0.01823533297
0.02032462429
0.01525736547
0.009460498789
0.01519478641
0.015208049
0.01524622213
0.01589651808
0.01349965194
0.008564373416
0.007063822149
0.01167410344
0.009388317911
0.01247408867
0.01006077871
0.01227362215
0.01219341732
0.0129927644
0.01075794396
0.01077195419
0.01056663649
0.01102140369
0.01189996183
0.01555195203
0.01420711317
0.01149321227
0.01116431869
0.0102426945
0.01014354677
0.01772527013
0.01049957227
0.01238253882
0.01318622937
0.01138209062
0.008851762378
0.01413644236
0.012705265
0.00836902214
0.01292807377
0.009260100435
0.01169233034
0.01076741119
0.01211952828
0.008950534925
0.01075098959
0.010876575
0.01359133508
0.006740884674
0.0063883515
0.009392944211
0.0152894588
0.01090916879
0.01419046488
0.01538425156
0.01329983046
0.007912371995
0.004801194068
0.004942471922
0.008845688744
0.007584076702
0.004946020397
0.008720248072
0.008138358514
0.009703359217
0.007629679317
0.003299335583
0.005353241189
0.0077442713
0.01046324014
0.01605673619
0.01304820711
0.01210402887
0.00932900138
0.008049246163
0.00644316588
0.006818426032
0.008965391574
0.01088183227
0.00832920327
0.003896623112
0.005325352868
0.004711958881
0.006490319095
0.004364019505
0.004081113418
0.003721853949
0.004810470397
0.005973114534
0.00654409105
0.00605954325
0.007262256951
0.007702946709
0.01005675307
0.01082294514
0.01082858432
)
;
    }
    inlet
    {
        type            calculated;
        value           nonuniform List<scalar> 5(0.4790896426 0.485340312 0.4979625071 0.5139063345 0.4865989233);
    }
    outlet
    {
        type            calculated;
        value           nonuniform List<scalar> 5(0.006644645165 0.007351315142 0.00987447622 0.007952812204 0.01082858432);
    }
    back
    {
        type            symmetry;
    }
    front
    {
        type            symmetry;
    }
}


// ************************************************************************* //
