/*--------------------------------*- C++ -*----------------------------------*\
| =========                 |                                                 |
| \\      /  F ield         | OpenFOAM: The Open Source CFD Toolbox           |
|  \\    /   O peration     | Version:  v1706                                 |
|   \\  /    A nd           | Web:      www.OpenFOAM.com                      |
|    \\/     M anipulation  |                                                 |
\*---------------------------------------------------------------------------*/
FoamFile
{
    version     2.0;
    format      ascii;
    class       volScalarField;
    location    "0.55";
    object      mctTimeStepRatio_mixture;
}
// * * * * * * * * * * * * * * * * * * * * * * * * * * * * * * * * * * * * * //

dimensions      [0 0 0 0 0 0 0];


internalField   nonuniform List<scalar> 
1000
(
2.423548363
2.424923103
2.427346138
2.456657971
2.426835722
2.420556737
2.425834249
2.416485273
2.411712826
2.393600379
2.410693948
2.41336614
2.408487403
2.431416494
2.428171612
2.420419847
2.403206266
2.401048306
2.421055894
2.423328843
2.431470435
2.428240116
2.426599841
2.421602944
2.417195317
2.404189758
2.425631623
2.438846548
2.435252842
2.432896701
2.439095089
2.42767393
2.451111324
2.446292801
2.441100592
2.402833265
2.433095927
2.441140939
2.417515197
2.409326948
2.424443661
2.435533467
2.424771498
2.442401129
2.410476622
2.386377624
2.383064957
2.410587387
2.419045467
2.398614663
2.413255235
2.406367095
2.42170982
2.417852826
2.408768334
2.429203442
2.424487223
2.439561913
2.438520254
2.430252451
2.421307192
2.438112027
2.436391899
2.413936497
2.417559453
2.415465868
2.425201901
2.412757786
2.406322087
2.415884757
2.431727156
2.425144963
2.41602909
2.423122123
2.423237592
2.39553092
2.397132848
2.395586691
2.404760092
2.443760029
2.41209158
2.422828642
2.414775144
2.420533459
2.416965764
2.411647069
2.424839403
2.431253042
2.424893365
2.419938649
2.406089032
2.413061529
2.420602888
2.423553556
2.409993316
2.426305887
2.429042532
2.41969424
2.399999692
2.412439571
2.430323812
2.420471154
2.393151821
2.428080185
2.43053683
2.44319485
2.427411426
2.424394355
2.424936409
2.444064877
2.434900189
2.418109203
2.440477573
2.437656142
2.440124147
2.428628286
2.427255611
2.412161836
2.401607478
2.411765099
2.429796101
2.435854001
2.443677143
2.434495992
2.443076652
2.43981221
2.452183787
2.448307087
2.443873965
2.45056702
2.451358805
2.433044043
2.4314575
2.458889329
2.465954097
2.462816629
2.451763509
2.467214077
2.454757906
2.448759042
2.440173541
2.43716378
2.471368831
2.469726595
2.472893657
2.465162518
2.45699127
2.446752498
2.434114449
2.425435273
2.441291915
2.46386294
2.433303119
2.447368903
2.434783613
2.424156078
2.413792014
2.453179671
2.436265836
2.422863509
2.431824233
2.427051272
2.435588411
2.424623677
2.412212018
2.431025849
2.445468864
2.429407807
2.414854719
2.420541286
2.426629654
2.437372425
2.429370029
2.440531093
2.444866819
2.440355783
2.423714287
2.425771955
2.461423976
2.456252117
2.441060722
2.443300158
2.452313518
2.441075299
2.424679977
2.429351889
2.420502969
2.460111676
2.43529266
2.415403783
2.425821498
2.43896798
2.453669836
2.426746624
2.435580867
2.444794115
2.417498456
2.446149224
2.43006234
2.435511254
2.445528049
2.415452141
2.417227442
2.415745946
2.418220309
2.421088995
2.415438605
2.412509822
2.400899618
2.41009135
2.418987554
2.422163326
2.419590211
2.421460459
2.430366767
2.414025969
2.429608562
2.401032772
2.419488978
2.413662058
2.435316742
2.421417966
2.429557532
2.431557967
2.427294569
2.418974056
2.409971673
2.419656368
2.425093359
2.431830089
2.436975858
2.435594844
2.414097011
2.427387475
2.416560606
2.417141038
2.432420188
2.418356792
2.398462782
2.416846583
2.415097159
2.426062004
2.432089184
2.436991547
2.427808348
2.428907462
2.419940898
2.423353488
2.428938974
2.415002922
2.426667654
2.419073151
2.424846054
2.439422046
2.411127586
2.423730167
2.43209568
2.434604944
2.419709649
2.436260278
2.420424777
2.419284746
2.415541879
2.417541409
2.415881282
2.422996323
2.445325342
2.423043053
2.416400812
2.4048253
2.424927164
2.428522932
2.412774595
2.417307638
2.419095943
2.412588093
2.417539294
2.414509239
2.420121049
2.440468112
2.414141665
2.392053052
2.420281234
2.433798053
2.410706106
2.425142391
2.409095125
2.42059041
2.422455516
2.41629092
2.412579217
2.41450834
2.414167817
2.41744668
2.419319638
2.425007323
2.421989484
2.423889695
2.429657284
2.425026726
2.426422207
2.418342438
2.416305541
2.414120129
2.438432159
2.425332679
2.440092756
2.442301739
2.442134497
2.429901968
2.434529203
2.44523546
2.421140299
2.435281078
2.430887486
2.422834304
2.430366379
2.429883316
2.430704109
2.436124633
2.439468738
2.437152586
2.430107188
2.440150824
2.442066135
2.44464355
2.453841311
2.459030163
2.454924692
2.446838469
2.448370119
2.429445605
2.452192937
2.439654269
2.461534545
2.44809515
2.448500008
2.452537707
2.46578071
2.439195794
2.459633684
2.465519992
2.464263533
2.454397823
2.451443925
2.453827255
2.459274715
2.458688765
2.45986658
2.441158096
2.434565768
2.452757143
2.457554624
2.460283543
2.458559422
2.426683798
2.435238712
2.42960136
2.448817044
2.445812982
2.447453313
2.424718314
2.419046206
2.425750703
2.425360243
2.424893039
2.448137317
2.429479841
2.420942812
2.422748253
2.426575149
2.427118572
2.448709356
2.463030104
2.446409337
2.449905307
2.444670608
2.422710329
2.456464861
2.463056868
2.449929833
2.445174475
2.438671949
2.440263921
2.403532991
2.419555813
2.438217109
2.45078239
2.419651223
2.459687987
2.436703794
2.419519269
2.437293527
2.434005346
2.423366663
2.432419569
2.42571047
2.423320476
2.436691995
2.43305198
2.420391464
2.429231989
2.424209545
2.443743289
2.415492774
2.437089838
2.427813593
2.420087308
2.418346121
2.423235422
2.436365812
2.445523354
2.431727919
2.424101285
2.424558531
2.401428055
2.392844641
2.414492933
2.413327801
2.411848075
2.412464129
2.415664784
2.412853718
2.404883908
2.418118777
2.438482518
2.413459905
2.423937957
2.419125992
2.428537959
2.426733807
2.424801102
2.430845487
2.429888678
2.441605536
2.432367729
2.40685833
2.403706069
2.422849908
2.416208365
2.41958531
2.433517355
2.44656764
2.432842697
2.431239308
2.413325499
2.413952812
2.411107426
2.414627595
2.415174556
2.42637182
2.384591544
2.416088549
2.399434072
2.429490231
2.445208362
2.436452081
2.406372354
2.42314454
2.424597846
2.402451189
2.403790048
2.420605277
2.430317699
2.427239553
2.423161343
2.424258418
2.427063367
2.4273425
2.420848487
2.420088406
2.428580225
2.424608679
2.414460656
2.413281439
2.412756443
2.409782219
2.412784349
2.401902455
2.423051303
2.421488436
2.407447471
2.410705564
2.419262279
2.425266426
2.42332707
2.448299607
2.43159588
2.419717533
2.423057671
2.42166908
2.420888325
2.423650807
2.430914254
2.42638693
2.436784097
2.414826116
2.425802305
2.422607896
2.435192201
2.431453864
2.43750149
2.441732495
2.436470819
2.440002068
2.420029902
2.43635503
2.425978207
2.423081468
2.421365799
2.432575264
2.43118709
2.418465868
2.422661909
2.43545969
2.435173937
2.436452511
2.434789249
2.423217329
2.429857633
2.429798437
2.435029289
2.437126162
2.452633454
2.437455768
2.443715236
2.447319324
2.45281259
2.462272043
2.455569019
2.434978391
2.442286019
2.453354594
2.439499804
2.458693888
2.444291695
2.451402968
2.452499592
2.446551057
2.438150415
2.451727661
2.463643214
2.461959282
2.441568684
2.441760525
2.437123011
2.443403531
2.448480466
2.44437499
2.450286563
2.441739762
2.429860072
2.442517419
2.450782423
2.432348697
2.44398772
2.441331654
2.435893131
2.451085697
2.432125871
2.415684524
2.432102783
2.451691322
2.42559407
2.447021128
2.430514084
2.443413749
2.438533918
2.450161389
2.441333579
2.452694292
2.437988057
2.434567221
2.424376649
2.424025073
2.430982912
2.440057444
2.438177221
2.445706689
2.436722218
2.442922057
2.441801906
2.434469258
2.418870854
2.422625652
2.423870704
2.433694088
2.442110742
2.441267548
2.450188902
2.449093009
2.427510984
2.447501929
2.444012641
2.442868021
2.428452144
2.432266664
2.427084469
2.439953132
2.441061803
2.435803555
2.427879545
2.432767694
2.430358345
2.450242489
2.431029851
2.416531873
2.429287017
2.436916366
2.438465725
2.428893589
2.447078076
2.417009895
2.427333426
2.424696569
2.413066197
2.404193214
2.422774095
2.415788744
2.414565022
2.404065282
2.415590141
2.410905571
2.401500555
2.42186825
2.424296609
2.41227099
2.413490952
2.434664527
2.440526179
2.434660591
2.430568732
2.421103542
2.446735893
2.416176706
2.431861631
2.439947231
2.423387162
2.414313435
2.423014715
2.421868226
2.426408011
2.43571972
2.415362811
2.430454722
2.424104247
2.409444926
2.436405358
2.420968983
2.417440567
2.424533232
2.42718039
2.414344589
2.41072445
2.423028324
2.446022272
2.407350102
2.413122448
2.414666612
2.406786227
2.409421519
2.418840008
2.426498236
2.417410464
2.428861104
2.408896134
2.437490903
2.417602096
2.420823476
2.429580115
2.415351957
2.414244087
2.430708426
2.432074538
2.419480425
2.416491441
2.394814686
2.417326233
2.409205466
2.433172177
2.44189063
2.424939348
2.428000748
2.423104463
2.427094866
2.429866532
2.410369519
2.437790595
2.41471101
2.424712881
2.416284221
2.411535896
2.393732316
2.409800442
2.422030482
2.438388994
2.426590999
2.420981506
2.420068922
2.433200247
2.430323025
2.425017856
2.437704693
2.436995591
2.44670073
2.43292488
2.423526458
2.431160205
2.43409061
2.42754448
2.436203092
2.437685506
2.422461319
2.442970664
2.416080627
2.435294136
2.443354846
2.429292798
2.434705965
2.431045697
2.421815805
2.42980188
2.433893421
2.467809753
2.433137715
2.417902023
2.45062512
2.450480117
2.441784004
2.440588425
2.456162012
2.467058188
2.450879286
2.453785482
2.448003686
2.453333633
2.43829761
2.441805284
2.450461453
2.478187486
2.458171244
2.445015275
2.43174149
2.449943611
2.421104979
2.429945762
2.442387011
2.442074348
2.442173163
2.448528341
2.437448592
2.446016404
2.45145165
2.439169915
2.42657541
2.450970869
2.423706423
2.436649275
2.431848817
2.432408754
2.408907705
2.430107932
2.43942181
2.442955678
2.420053095
2.421930022
2.457569738
2.426553091
2.42996992
2.442824064
2.453806958
2.422053621
2.424613582
2.424756234
2.436868759
2.424921283
2.426995335
2.429494438
2.441398255
2.432690473
2.44531875
2.424539591
2.425938415
2.426457035
2.420087895
2.430074322
2.465152795
2.441441153
2.442286903
2.422080831
2.442347055
2.427645681
2.429053012
2.443627322
2.452079783
2.441834692
2.43884219
2.436899361
2.438324041
2.440287169
2.415051811
2.437340464
2.421593975
2.4435789
2.435211205
2.423508818
2.419842334
2.421352285
2.415184511
2.427446342
2.438247129
2.442442869
2.430830225
2.413181132
2.405319589
2.401916261
2.386413573
2.409527393
2.427308612
2.41615983
2.397757337
2.41732245
2.429391618
2.424973737
2.418884944
2.410508385
2.410785656
2.413007386
2.446601724
2.457680018
2.423934725
2.43441141
2.417715605
2.444554549
2.41929396
2.42918609
2.445135337
2.431542992
2.417569376
2.435935486
2.42752094
2.420372918
2.42758298
2.404668509
2.409257575
2.427016091
2.418654803
2.42312712
2.443096306
2.414742174
2.411307171
2.447860276
2.41188701
2.415940816
2.410005568
2.39843243
2.423105605
2.421600417
2.42126286
2.407213268
2.427356936
2.411512395
2.417119705
2.429282173
2.432514561
2.414354094
2.429095201
2.405759858
2.41909681
2.428056265
2.421768929
2.411625235
2.394750256
2.418119272
2.421463465
2.417616819
2.423764118
2.421340519
2.408767465
2.418718408
2.426665813
2.411359728
2.427386794
2.422681458
2.432651238
2.432753193
2.424297762
2.414863013
2.438460689
2.436385698
2.415627253
2.40617783
2.423983601
2.428032625
2.421815371
2.430273112
2.43921529
2.412129463
2.415027424
2.435390813
2.410804484
2.404030418
2.418552935
2.420661906
2.433263933
2.436550947
2.43416128
2.431345395
2.42317279
2.423497611
2.418225259
2.431398256
2.435512746
2.409327682
2.4327034
2.415155147
2.417643695
2.431997434
2.411438906
2.436847438
2.433196654
2.419581178
2.434120358
2.430711679
2.425390084
2.422110611
2.428554192
2.442640073
2.455544783
2.435415367
2.444084263
2.436614211
2.451679635
2.476839549
2.449194617
2.463843878
2.462501958
2.465392042
2.465043587
2.469686318
2.459565351
2.447428585
2.441802163
2.459774789
2.448603979
2.455218657
2.453057409
2.448344017
2.436318734
2.446029011
2.432106666
2.44302147
2.453444381
2.453277028
2.443345213
2.433638443
2.429015076
2.438833982
2.451918524
2.414445111
2.430088279
2.411957022
2.419840189
2.441488154
2.421591853
2.422491744
2.44386514
2.440764938
2.43785991
2.429131006
2.437954563
2.425661996
2.420739809
2.449088586
2.463937382
2.460053178
2.427296845
2.440654192
2.445743013
2.425234788
2.444190282
2.446823923
2.434849893
2.428058751
2.404544479
2.431576892
2.443197702
2.440011598
2.431145335
2.439828018
2.453496931
2.442378296
2.437749911
2.4211448
2.435017571
2.447487191
2.441331374
2.437172726
2.434701428
2.425215874
)
;

boundaryField
{
    bottom
    {
        type            calculated;
        value           nonuniform List<scalar> 
200
(
2.423548363
2.424923103
2.427346138
2.456657971
2.426835722
2.420556737
2.425834249
2.416485273
2.411712826
2.393600379
2.410693948
2.41336614
2.408487403
2.431416494
2.428171612
2.420419847
2.403206266
2.401048306
2.421055894
2.423328843
2.431470435
2.428240116
2.426599841
2.421602944
2.417195317
2.404189758
2.425631623
2.438846548
2.435252842
2.432896701
2.439095089
2.42767393
2.451111324
2.446292801
2.441100592
2.402833265
2.433095927
2.441140939
2.417515197
2.409326948
2.424443661
2.435533467
2.424771498
2.442401129
2.410476622
2.386377624
2.383064957
2.410587387
2.419045467
2.398614663
2.413255235
2.406367095
2.42170982
2.417852826
2.408768334
2.429203442
2.424487223
2.439561913
2.438520254
2.430252451
2.421307192
2.438112027
2.436391899
2.413936497
2.417559453
2.415465868
2.425201901
2.412757786
2.406322087
2.415884757
2.431727156
2.425144963
2.41602909
2.423122123
2.423237592
2.39553092
2.397132848
2.395586691
2.404760092
2.443760029
2.41209158
2.422828642
2.414775144
2.420533459
2.416965764
2.411647069
2.424839403
2.431253042
2.424893365
2.419938649
2.406089032
2.413061529
2.420602888
2.423553556
2.409993316
2.426305887
2.429042532
2.41969424
2.399999692
2.412439571
2.430323812
2.420471154
2.393151821
2.428080185
2.43053683
2.44319485
2.427411426
2.424394355
2.424936409
2.444064877
2.434900189
2.418109203
2.440477573
2.437656142
2.440124147
2.428628286
2.427255611
2.412161836
2.401607478
2.411765099
2.429796101
2.435854001
2.443677143
2.434495992
2.443076652
2.43981221
2.452183787
2.448307087
2.443873965
2.45056702
2.451358805
2.433044043
2.4314575
2.458889329
2.465954097
2.462816629
2.451763509
2.467214077
2.454757906
2.448759042
2.440173541
2.43716378
2.471368831
2.469726595
2.472893657
2.465162518
2.45699127
2.446752498
2.434114449
2.425435273
2.441291915
2.46386294
2.433303119
2.447368903
2.434783613
2.424156078
2.413792014
2.453179671
2.436265836
2.422863509
2.431824233
2.427051272
2.435588411
2.424623677
2.412212018
2.431025849
2.445468864
2.429407807
2.414854719
2.420541286
2.426629654
2.437372425
2.429370029
2.440531093
2.444866819
2.440355783
2.423714287
2.425771955
2.461423976
2.456252117
2.441060722
2.443300158
2.452313518
2.441075299
2.424679977
2.429351889
2.420502969
2.460111676
2.43529266
2.415403783
2.425821498
2.43896798
2.453669836
2.426746624
2.435580867
2.444794115
2.417498456
2.446149224
2.43006234
2.435511254
)
;
    }
    top
    {
        type            calculated;
        value           nonuniform List<scalar> 
200
(
2.415051811
2.437340464
2.421593975
2.4435789
2.435211205
2.423508818
2.419842334
2.421352285
2.415184511
2.427446342
2.438247129
2.442442869
2.430830225
2.413181132
2.405319589
2.401916261
2.386413573
2.409527393
2.427308612
2.41615983
2.397757337
2.41732245
2.429391618
2.424973737
2.418884944
2.410508385
2.410785656
2.413007386
2.446601724
2.457680018
2.423934725
2.43441141
2.417715605
2.444554549
2.41929396
2.42918609
2.445135337
2.431542992
2.417569376
2.435935486
2.42752094
2.420372918
2.42758298
2.404668509
2.409257575
2.427016091
2.418654803
2.42312712
2.443096306
2.414742174
2.411307171
2.447860276
2.41188701
2.415940816
2.410005568
2.39843243
2.423105605
2.421600417
2.42126286
2.407213268
2.427356936
2.411512395
2.417119705
2.429282173
2.432514561
2.414354094
2.429095201
2.405759858
2.41909681
2.428056265
2.421768929
2.411625235
2.394750256
2.418119272
2.421463465
2.417616819
2.423764118
2.421340519
2.408767465
2.418718408
2.426665813
2.411359728
2.427386794
2.422681458
2.432651238
2.432753193
2.424297762
2.414863013
2.438460689
2.436385698
2.415627253
2.40617783
2.423983601
2.428032625
2.421815371
2.430273112
2.43921529
2.412129463
2.415027424
2.435390813
2.410804484
2.404030418
2.418552935
2.420661906
2.433263933
2.436550947
2.43416128
2.431345395
2.42317279
2.423497611
2.418225259
2.431398256
2.435512746
2.409327682
2.4327034
2.415155147
2.417643695
2.431997434
2.411438906
2.436847438
2.433196654
2.419581178
2.434120358
2.430711679
2.425390084
2.422110611
2.428554192
2.442640073
2.455544783
2.435415367
2.444084263
2.436614211
2.451679635
2.476839549
2.449194617
2.463843878
2.462501958
2.465392042
2.465043587
2.469686318
2.459565351
2.447428585
2.441802163
2.459774789
2.448603979
2.455218657
2.453057409
2.448344017
2.436318734
2.446029011
2.432106666
2.44302147
2.453444381
2.453277028
2.443345213
2.433638443
2.429015076
2.438833982
2.451918524
2.414445111
2.430088279
2.411957022
2.419840189
2.441488154
2.421591853
2.422491744
2.44386514
2.440764938
2.43785991
2.429131006
2.437954563
2.425661996
2.420739809
2.449088586
2.463937382
2.460053178
2.427296845
2.440654192
2.445743013
2.425234788
2.444190282
2.446823923
2.434849893
2.428058751
2.404544479
2.431576892
2.443197702
2.440011598
2.431145335
2.439828018
2.453496931
2.442378296
2.437749911
2.4211448
2.435017571
2.447487191
2.441331374
2.437172726
2.434701428
2.425215874
)
;
    }
    inlet
    {
        type            calculated;
        value           nonuniform List<scalar> 5(2.423548363 2.445528049 2.420391464 2.435803555 2.415051811);
    }
    outlet
    {
        type            calculated;
        value           nonuniform List<scalar> 5(2.435511254 2.43305198 2.441061803 2.440287169 2.425215874);
    }
    back
    {
        type            symmetry;
    }
    front
    {
        type            symmetry;
    }
}


// ************************************************************************* //
