/*--------------------------------*- C++ -*----------------------------------*\
| =========                 |                                                 |
| \\      /  F ield         | OpenFOAM: The Open Source CFD Toolbox           |
|  \\    /   O peration     | Version:  v1706                                 |
|   \\  /    A nd           | Web:      www.OpenFOAM.com                      |
|    \\/     M anipulation  |                                                 |
\*---------------------------------------------------------------------------*/
FoamFile
{
    version     2.0;
    format      ascii;
    class       volScalarField;
    location    "0.55";
    object      mfpCellRatio_Ar2;
}
// * * * * * * * * * * * * * * * * * * * * * * * * * * * * * * * * * * * * * //

dimensions      [0 0 0 0 0 0 0];


internalField   nonuniform List<scalar> 
1000
(
119.5932788
88.93863072
67.48880877
54.71447283
49.78063709
44.11092487
39.27747527
32.89807942
30.11370081
29.13722779
27.59889522
26.0174544
23.47676876
23.00295824
21.8596281
19.90892932
19.70387328
18.87065033
17.66629436
17.03201722
17.03482716
16.12509892
15.46251155
14.46410919
13.45496285
13.17549271
12.69901174
12.53284196
11.96137468
11.36741705
11.13406398
11.09062613
10.93183816
10.32348998
10.08829206
9.819548616
9.630299613
9.393353532
9.051812921
8.662764259
8.582568712
8.486025886
8.201902252
7.969789845
7.660427686
7.620354277
7.506720369
7.340689872
7.236831008
7.041172896
6.929659456
6.660039047
6.655436299
6.705674075
6.583414345
6.479502075
6.284499608
6.213035051
6.135592074
6.03864857
5.829951587
5.856387092
5.706058369
5.635872531
5.538646296
5.510385426
5.435304664
5.341916955
5.318168906
5.196098448
5.105281695
5.060611743
4.86823651
4.863675687
4.842895151
4.684635933
4.690766331
4.632400884
4.681898835
4.664185799
4.552134069
4.567054406
4.454616037
4.422174633
4.276123557
4.288147047
4.259430618
4.184472633
4.125725918
4.059878965
3.990227992
3.953647761
3.938111348
3.91373105
3.774433792
3.779943104
3.73692972
3.718970924
3.630271691
3.619778705
3.64619865
3.618075929
3.537309424
3.561534531
3.501128665
3.494407822
3.399074694
3.366990165
3.389468859
3.380015411
3.345776493
3.298342571
3.31186171
3.264689586
3.245632345
3.230922951
3.165222889
3.150887693
3.077116348
3.058474858
3.075333396
3.064768639
3.028675896
3.027479816
3.007798164
2.948169969
2.953879745
2.958052186
2.941301589
2.909123284
2.867390919
2.835710608
2.81717181
2.804639135
2.798515735
2.797061547
2.757996915
2.763380619
2.732726754
2.711776521
2.66991478
2.67111787
2.685038965
2.639629991
2.642087118
2.629244974
2.583083435
2.555957587
2.531306045
2.471405445
2.487702757
2.501246239
2.457603005
2.444255122
2.438647896
2.398333271
2.37458254
2.399760016
2.384622663
2.33253716
2.334761414
2.312903952
2.315649661
2.285143363
2.269802515
2.273916698
2.268010809
2.241104831
2.217736866
2.205869642
2.201111901
2.189254631
2.179643358
2.172992831
2.163614217
2.160794007
2.121646337
2.103527242
2.132075389
2.109438806
2.083704195
2.068481815
2.083989377
2.065788897
2.027154215
2.019689097
2.001733735
2.033792232
1.995833212
1.972373956
1.966949453
1.962944768
1.968688153
1.936603998
1.934628585
1.928926209
1.899245263
1.921227846
1.894434959
1.884739518
121.7582535
84.46764849
68.14458276
56.77147484
47.63553022
42.51981221
37.98704474
34.10819472
31.6075656
29.17511789
27.68323055
26.02924534
24.19250384
22.4888178
21.39803837
20.63048305
20.65259706
18.86943451
17.75805634
17.14068228
16.61716303
15.59277129
15.05917967
14.5969495
13.6473698
13.10128035
12.53899253
12.22767888
11.51602152
11.34213512
11.28303494
10.88456246
10.51099824
10.32380548
10.15087598
9.772980877
9.607439534
9.221695866
9.100015595
8.837529954
8.615484023
8.471308801
8.261006387
7.966404094
7.874341674
7.622683206
7.482337072
7.345984374
7.293753226
7.046389009
7.048004883
6.976193807
6.749157845
6.754751663
6.457484102
6.482497306
6.390045031
6.154426533
6.041239687
6.053193707
5.848877302
5.767865969
5.671458597
5.61216087
5.540221399
5.591441259
5.522610702
5.338971303
5.314057614
5.167408374
5.113421964
5.075775325
4.923518222
4.881543728
4.889670956
4.768539626
4.722078391
4.694040269
4.662354388
4.643244651
4.524004418
4.408320869
4.45977798
4.374344996
4.306425132
4.276374672
4.227905945
4.180319074
4.084348056
4.040255544
3.971560796
3.939301606
3.894780903
3.842848698
3.783348853
3.749939489
3.767656346
3.73134066
3.737440808
3.631176247
3.631262678
3.613821895
3.554914085
3.540452262
3.507011896
3.441218976
3.456510538
3.456235144
3.430691477
3.379438768
3.354261213
3.352773051
3.280767334
3.273142727
3.226045302
3.204348598
3.206907591
3.171762829
3.13469997
3.105091466
3.090392711
3.070538756
3.040020227
3.013698473
2.987995473
2.969569387
2.972205966
2.960869095
2.920891072
2.893720299
2.862594282
2.819076154
2.825443956
2.790433745
2.78919586
2.77158
2.73207329
2.728572606
2.741497867
2.682956737
2.702295672
2.702983438
2.662902997
2.626844197
2.617543021
2.599795718
2.587017724
2.56821771
2.540020418
2.505147604
2.468963436
2.477191044
2.475589743
2.472794924
2.456961117
2.40940278
2.403917245
2.385102861
2.390282953
2.360797222
2.348538917
2.315454162
2.294812629
2.288471937
2.285607392
2.273023157
2.285165613
2.236880694
2.21250558
2.201650534
2.204025858
2.185343277
2.205025952
2.192262629
2.168098454
2.155463852
2.136619415
2.102755493
2.124122791
2.120984171
2.100689242
2.077803242
2.064570627
2.05197295
2.006432491
2.016937748
2.019754518
2.015587112
1.985102439
2.014966784
1.979754134
1.9478316
1.95641562
1.94870079
1.936164341
1.929629053
1.909153219
1.89299116
1.892142078
1.881383361
116.3718639
87.77675482
68.9741491
55.74428457
47.42984906
42.82029665
37.52509502
36.00826978
32.30382956
29.67970044
27.64569943
26.91971796
24.35970293
22.68529043
21.43298611
20.46662482
19.24059571
18.22772756
17.4412258
16.59633531
15.87947998
15.11162523
14.95535423
13.95093292
13.33528668
13.21936651
12.52314472
12.41925586
11.73452552
11.75262719
11.28119042
10.88208891
10.63759666
10.37410006
10.26482764
10.0535232
9.50253437
9.332845653
9.17485863
8.768501594
8.823351939
8.51394201
8.427525273
8.07256839
7.951652016
7.653404592
7.365720691
7.382968773
7.097144178
7.187254562
7.11481738
6.831148274
6.723569184
6.609284099
6.537726421
6.583185936
6.315251686
6.166249902
6.065629397
6.027019817
5.766930871
5.81264569
5.703107772
5.547864218
5.540132601
5.515527764
5.426080759
5.385400496
5.26343104
5.185851708
5.126782889
5.032387175
4.972422849
4.858002044
4.848923204
4.759629354
4.704224958
4.600822727
4.585540473
4.587800972
4.500162421
4.414044747
4.375406089
4.377196734
4.329540628
4.299796104
4.308958801
4.189115102
4.110752131
4.073669948
4.021145946
3.971641063
3.905964148
3.924597211
3.870551676
3.801423892
3.755840416
3.717643635
3.686534126
3.655940892
3.649945862
3.623625909
3.632232154
3.559770133
3.509939836
3.483594689
3.466523605
3.469426795
3.401713855
3.37992898
3.36855102
3.32363959
3.268134407
3.246410162
3.273592323
3.237901855
3.19501967
3.158384304
3.094422659
3.066373287
3.057156502
3.05463731
3.03939836
3.055608888
3.001231706
2.993219125
2.963776277
2.953963583
2.93098158
2.87046316
2.840927804
2.828572295
2.840389456
2.803725966
2.80930187
2.782036932
2.749896561
2.746771107
2.709624786
2.66978565
2.689743575
2.708623949
2.66726933
2.615090634
2.591170332
2.584182802
2.575320862
2.550707156
2.535134151
2.514848443
2.497866928
2.468491099
2.465080376
2.442810316
2.414020576
2.414465855
2.395991568
2.385863085
2.389189678
2.361057868
2.322072324
2.338064844
2.322798505
2.286890398
2.309177249
2.270330232
2.27809358
2.247064445
2.232714894
2.219725306
2.223453802
2.20058076
2.175018006
2.155999152
2.145627019
2.139146672
2.132597932
2.114020668
2.12232714
2.099578482
2.088589086
2.079049537
2.051963235
2.032963077
2.024613826
2.013486394
2.011170938
2.002735712
2.001802532
2.001670379
1.985361004
1.957760746
1.970869954
1.954208544
1.937279315
1.919103109
1.916466641
1.901484443
1.901092209
1.888622474
114.3962484
85.81223833
67.79560659
56.69825267
51.39576164
43.26473708
38.89536585
35.4260412
32.42651691
29.69374577
28.45464694
26.08014447
24.15710994
22.31151158
22.04214883
20.67901322
19.32874546
18.10089571
17.02309043
16.74242545
15.69052581
15.09204806
14.5717833
14.27275426
13.91453045
13.22343214
12.53571838
12.33093651
12.00711268
11.86025308
11.28633163
10.98580805
10.7668811
10.46821077
10.05748833
10.00956352
9.562314201
9.434817559
9.057785656
8.772330548
8.774073478
8.458070246
8.282549406
8.018242414
8.08481061
7.698280615
7.482832379
7.358511021
7.128731258
7.074922414
7.068545344
6.948584007
6.718764107
6.566040083
6.556868306
6.581646015
6.319251069
6.203491522
6.136776179
5.97583143
5.859382955
5.789857313
5.73473419
5.586192936
5.589954177
5.410965275
5.399457616
5.243971442
5.232070575
5.170991385
5.072783177
5.010144312
4.944769554
4.913673563
4.802617399
4.7480353
4.680832112
4.638028107
4.583494612
4.621385282
4.557400013
4.484201555
4.463715114
4.379074588
4.318892874
4.2965134
4.253307147
4.169031217
4.122065808
4.062374191
4.009702444
3.978407718
3.881907682
3.865129503
3.82716228
3.831745028
3.749042515
3.759301924
3.689199298
3.677092355
3.640562667
3.602234539
3.618952155
3.557515871
3.545910091
3.483442813
3.467566918
3.449466101
3.462615926
3.387172613
3.396670169
3.34439731
3.296851759
3.307959411
3.250823177
3.231488278
3.201301938
3.164373563
3.11298411
3.100294143
3.042869617
3.056501736
3.025605996
3.079407141
3.00565105
2.95623872
2.980126568
2.957344202
2.895865776
2.874465312
2.880604502
2.878905784
2.840348873
2.843637101
2.816779405
2.781971151
2.734186986
2.72067472
2.710754229
2.72696156
2.712898459
2.668571974
2.629071026
2.638540439
2.593204406
2.566505827
2.571332175
2.558188537
2.51701083
2.510891347
2.481506534
2.470862648
2.467642292
2.439035831
2.397928366
2.409823431
2.365737837
2.37321451
2.371848875
2.366251254
2.304427841
2.321895646
2.329675041
2.319583721
2.273428538
2.259697715
2.274764664
2.242476934
2.225851499
2.224154137
2.220084803
2.190640449
2.175200383
2.16036001
2.15728553
2.140945252
2.122515781
2.12050424
2.115896013
2.099615229
2.094280279
2.061329226
2.05438417
2.038300102
2.015834932
2.017043412
2.04027294
2.005402643
2.003663357
1.971023174
1.975785798
1.960559999
1.95800765
1.949766357
1.946889594
1.928515996
1.914455988
1.907599723
1.894066217
1.893408705
119.4419733
86.18425374
66.51626715
55.79494872
48.75119185
42.85824578
39.1645626
33.22426395
31.61963455
31.035686
28.60405108
26.03369296
24.90575801
23.34033914
21.00971556
20.44424505
19.04561652
18.47109401
17.44676381
16.72320879
15.64784317
14.99471421
14.57647179
14.20443068
13.58066551
13.04344984
12.84552707
12.31139799
12.04144807
11.67119926
11.12617141
10.96351424
10.81849128
10.37943057
10.00664804
9.90158163
9.582835538
9.425588397
8.876555769
8.835232325
8.555531341
8.559203625
8.340117688
7.892074665
7.746445553
7.648098048
7.43894507
7.420764035
7.354135653
7.116319579
6.961916354
6.884991908
6.658624829
6.661552698
6.511455968
6.421792309
6.338717008
6.24297456
6.161361847
5.953680684
5.980853538
5.817847851
5.673115575
5.595824
5.507019997
5.366274222
5.353816461
5.263433361
5.29162053
5.171483995
5.063465219
5.006072793
4.8930997
4.872696601
4.789619613
4.736425919
4.726903645
4.609879798
4.636631887
4.597902078
4.584949376
4.485426782
4.404630237
4.398271665
4.302572791
4.286013319
4.228644784
4.136643902
4.153425233
4.118805655
4.065025934
3.961838506
3.941330895
3.919064961
3.836478996
3.812797596
3.827810333
3.730084281
3.696324362
3.662176213
3.603725966
3.586426791
3.600033484
3.520275818
3.517692498
3.50358663
3.467417976
3.425340201
3.391400224
3.353165658
3.356778113
3.35022806
3.281951229
3.214718442
3.278067496
3.2349554
3.162050696
3.176560048
3.070055982
3.102858664
3.071989299
3.017003583
3.021104625
2.988993989
2.990026578
2.945602949
2.942451068
2.968410715
2.922686139
2.858400207
2.888399042
2.841271681
2.842650369
2.866795208
2.827064604
2.792760947
2.758608946
2.735873634
2.73606264
2.75329985
2.708883878
2.69306234
2.641576887
2.647309419
2.616554884
2.609763108
2.57793757
2.553033458
2.530862112
2.515790627
2.477190532
2.47656138
2.466253011
2.446715679
2.41305246
2.401926387
2.376884196
2.371321633
2.38333292
2.33319148
2.339334392
2.312798164
2.309448127
2.317423699
2.273064171
2.266562021
2.259752575
2.24659188
2.232904921
2.20164014
2.205533949
2.172666987
2.164462755
2.186692871
2.195045123
2.172374608
2.127631438
2.129941421
2.11352891
2.08940342
2.09199717
2.09050263
2.060370873
2.042913914
2.007780662
2.023014463
2.02558762
2.000903821
1.99095547
1.991600473
1.988000824
1.974425025
1.967095684
1.934666184
1.928856392
1.933130911
1.922292487
1.908680636
1.885286768
1.869499733
)
;

boundaryField
{
    bottom
    {
        type            calculated;
        value           nonuniform List<scalar> 
200
(
119.5932788
88.93863072
67.48880877
54.71447283
49.78063709
44.11092487
39.27747527
32.89807942
30.11370081
29.13722779
27.59889522
26.0174544
23.47676876
23.00295824
21.8596281
19.90892932
19.70387328
18.87065033
17.66629436
17.03201722
17.03482716
16.12509892
15.46251155
14.46410919
13.45496285
13.17549271
12.69901174
12.53284196
11.96137468
11.36741705
11.13406398
11.09062613
10.93183816
10.32348998
10.08829206
9.819548616
9.630299613
9.393353532
9.051812921
8.662764259
8.582568712
8.486025886
8.201902252
7.969789845
7.660427686
7.620354277
7.506720369
7.340689872
7.236831008
7.041172896
6.929659456
6.660039047
6.655436299
6.705674075
6.583414345
6.479502075
6.284499608
6.213035051
6.135592074
6.03864857
5.829951587
5.856387092
5.706058369
5.635872531
5.538646296
5.510385426
5.435304664
5.341916955
5.318168906
5.196098448
5.105281695
5.060611743
4.86823651
4.863675687
4.842895151
4.684635933
4.690766331
4.632400884
4.681898835
4.664185799
4.552134069
4.567054406
4.454616037
4.422174633
4.276123557
4.288147047
4.259430618
4.184472633
4.125725918
4.059878965
3.990227992
3.953647761
3.938111348
3.91373105
3.774433792
3.779943104
3.73692972
3.718970924
3.630271691
3.619778705
3.64619865
3.618075929
3.537309424
3.561534531
3.501128665
3.494407822
3.399074694
3.366990165
3.389468859
3.380015411
3.345776493
3.298342571
3.31186171
3.264689586
3.245632345
3.230922951
3.165222889
3.150887693
3.077116348
3.058474858
3.075333396
3.064768639
3.028675896
3.027479816
3.007798164
2.948169969
2.953879745
2.958052186
2.941301589
2.909123284
2.867390919
2.835710608
2.81717181
2.804639135
2.798515735
2.797061547
2.757996915
2.763380619
2.732726754
2.711776521
2.66991478
2.67111787
2.685038965
2.639629991
2.642087118
2.629244974
2.583083435
2.555957587
2.531306045
2.471405445
2.487702757
2.501246239
2.457603005
2.444255122
2.438647896
2.398333271
2.37458254
2.399760016
2.384622663
2.33253716
2.334761414
2.312903952
2.315649661
2.285143363
2.269802515
2.273916698
2.268010809
2.241104831
2.217736866
2.205869642
2.201111901
2.189254631
2.179643358
2.172992831
2.163614217
2.160794007
2.121646337
2.103527242
2.132075389
2.109438806
2.083704195
2.068481815
2.083989377
2.065788897
2.027154215
2.019689097
2.001733735
2.033792232
1.995833212
1.972373956
1.966949453
1.962944768
1.968688153
1.936603998
1.934628585
1.928926209
1.899245263
1.921227846
1.894434959
1.884739518
)
;
    }
    top
    {
        type            calculated;
        value           nonuniform List<scalar> 
200
(
119.4419733
86.18425374
66.51626715
55.79494872
48.75119185
42.85824578
39.1645626
33.22426395
31.61963455
31.035686
28.60405108
26.03369296
24.90575801
23.34033914
21.00971556
20.44424505
19.04561652
18.47109401
17.44676381
16.72320879
15.64784317
14.99471421
14.57647179
14.20443068
13.58066551
13.04344984
12.84552707
12.31139799
12.04144807
11.67119926
11.12617141
10.96351424
10.81849128
10.37943057
10.00664804
9.90158163
9.582835538
9.425588397
8.876555769
8.835232325
8.555531341
8.559203625
8.340117688
7.892074665
7.746445553
7.648098048
7.43894507
7.420764035
7.354135653
7.116319579
6.961916354
6.884991908
6.658624829
6.661552698
6.511455968
6.421792309
6.338717008
6.24297456
6.161361847
5.953680684
5.980853538
5.817847851
5.673115575
5.595824
5.507019997
5.366274222
5.353816461
5.263433361
5.29162053
5.171483995
5.063465219
5.006072793
4.8930997
4.872696601
4.789619613
4.736425919
4.726903645
4.609879798
4.636631887
4.597902078
4.584949376
4.485426782
4.404630237
4.398271665
4.302572791
4.286013319
4.228644784
4.136643902
4.153425233
4.118805655
4.065025934
3.961838506
3.941330895
3.919064961
3.836478996
3.812797596
3.827810333
3.730084281
3.696324362
3.662176213
3.603725966
3.586426791
3.600033484
3.520275818
3.517692498
3.50358663
3.467417976
3.425340201
3.391400224
3.353165658
3.356778113
3.35022806
3.281951229
3.214718442
3.278067496
3.2349554
3.162050696
3.176560048
3.070055982
3.102858664
3.071989299
3.017003583
3.021104625
2.988993989
2.990026578
2.945602949
2.942451068
2.968410715
2.922686139
2.858400207
2.888399042
2.841271681
2.842650369
2.866795208
2.827064604
2.792760947
2.758608946
2.735873634
2.73606264
2.75329985
2.708883878
2.69306234
2.641576887
2.647309419
2.616554884
2.609763108
2.57793757
2.553033458
2.530862112
2.515790627
2.477190532
2.47656138
2.466253011
2.446715679
2.41305246
2.401926387
2.376884196
2.371321633
2.38333292
2.33319148
2.339334392
2.312798164
2.309448127
2.317423699
2.273064171
2.266562021
2.259752575
2.24659188
2.232904921
2.20164014
2.205533949
2.172666987
2.164462755
2.186692871
2.195045123
2.172374608
2.127631438
2.129941421
2.11352891
2.08940342
2.09199717
2.09050263
2.060370873
2.042913914
2.007780662
2.023014463
2.02558762
2.000903821
1.99095547
1.991600473
1.988000824
1.974425025
1.967095684
1.934666184
1.928856392
1.933130911
1.922292487
1.908680636
1.885286768
1.869499733
)
;
    }
    inlet
    {
        type            calculated;
        value           nonuniform List<scalar> 5(119.5932788 121.7582535 116.3718639 114.3962484 119.4419733);
    }
    outlet
    {
        type            calculated;
        value           nonuniform List<scalar> 5(1.884739518 1.881383361 1.888622474 1.893408705 1.869499733);
    }
    back
    {
        type            symmetry;
    }
    front
    {
        type            symmetry;
    }
}


// ************************************************************************* //
