/*--------------------------------*- C++ -*----------------------------------*\
| =========                 |                                                 |
| \\      /  F ield         | OpenFOAM: The Open Source CFD Toolbox           |
|  \\    /   O peration     | Version:  v1706                                 |
|   \\  /    A nd           | Web:      www.OpenFOAM.com                      |
|    \\/     M anipulation  |                                                 |
\*---------------------------------------------------------------------------*/
FoamFile
{
    version     2.0;
    format      ascii;
    class       volScalarField;
    location    "0.55";
    object      rhoN_Ar2;
}
// * * * * * * * * * * * * * * * * * * * * * * * * * * * * * * * * * * * * * //

dimensions      [0 -3 0 0 0 0 0];


internalField   nonuniform List<scalar> 
1000
(
2.11392e+18
2.89728e+18
3.78288e+18
4.69728e+18
5.1768e+18
5.89536e+18
6.57936e+18
7.81776e+18
8.49312e+18
8.82576e+18
9.32832e+18
9.92016e+18
1.101456e+19
1.129536e+19
1.18296e+19
1.287072e+19
1.305792e+19
1.368864e+19
1.460736e+19
1.516752e+19
1.526688e+19
1.608624e+19
1.678032e+19
1.787328e+19
1.91232e+19
1.960272e+19
2.033856e+19
2.06496e+19
2.159568e+19
2.269296e+19
2.318976e+19
2.331072e+19
2.38392e+19
2.506032e+19
2.566368e+19
2.63448e+19
2.678688e+19
2.754432e+19
2.849472e+19
2.983968e+19
3.007584e+19
3.04704e+19
3.148416e+19
3.236976e+19
3.36168e+19
3.387456e+19
3.44232e+19
3.508704e+19
3.565728e+19
3.678048e+19
3.725424e+19
3.860496e+19
3.876624e+19
3.856896e+19
3.938256e+19
3.993408e+19
4.108608e+19
4.176e+19
4.222224e+19
4.294656e+19
4.431744e+19
4.425264e+19
4.53168e+19
4.5936e+19
4.682016e+19
4.700736e+19
4.756032e+19
4.826736e+19
4.856832e+19
4.963824e+19
5.062032e+19
5.105664e+19
5.29416e+19
5.303232e+19
5.324256e+19
5.504544e+19
5.511168e+19
5.575824e+19
5.529168e+19
5.558256e+19
5.687136e+19
5.675472e+19
5.800608e+19
5.8608e+19
6.05376e+19
6.040512e+19
6.078384e+19
6.172128e+19
6.268896e+19
6.359616e+19
6.470496e+19
6.559056e+19
6.573024e+19
6.609024e+19
6.822144e+19
6.833088e+19
6.904512e+19
6.939648e+19
7.093152e+19
7.117056e+19
7.080192e+19
7.161408e+19
7.31304e+19
7.27056e+19
7.38216e+19
7.40448e+19
7.595424e+19
7.667424e+19
7.63272e+19
7.643232e+19
7.737264e+19
7.834032e+19
7.810416e+19
7.925904e+19
7.985808e+19
8.03088e+19
8.160048e+19
8.212896e+19
8.414352e+19
8.455392e+19
8.4168e+19
8.447328e+19
8.546112e+19
8.561952e+19
8.6184e+19
8.785872e+19
8.765856e+19
8.794944e+19
8.846496e+19
8.931744e+19
9.06408e+19
9.15984e+19
9.220464e+19
9.22176e+19
9.240768e+19
9.265968e+19
9.403632e+19
9.414432e+19
9.500688e+19
9.58536e+19
9.727488e+19
9.730656e+19
9.667008e+19
9.811296e+19
9.82512e+19
9.900576e+19
1.0053072e+20
1.0162656e+20
1.0245024e+20
1.0462752e+20
1.0415952e+20
1.0393488e+20
1.0581552e+20
1.063368e+20
1.064304e+20
1.0819872e+20
1.092528e+20
1.0808784e+20
1.0871424e+20
1.1079648e+20
1.1102688e+20
1.1203776e+20
1.1192256e+20
1.1327904e+20
1.1411568e+20
1.1417472e+20
1.1415456e+20
1.1554848e+20
1.1673504e+20
1.1756592e+20
1.1760336e+20
1.1812464e+20
1.1872944e+20
1.1910816e+20
1.1961504e+20
1.2008304e+20
1.219104e+20
1.2309552e+20
1.2169152e+20
1.2279312e+20
1.242288e+20
1.2511008e+20
1.2468096e+20
1.2589056e+20
1.275912e+20
1.2816576e+20
1.2927744e+20
1.2760128e+20
1.2990384e+20
1.3144176e+20
1.3160592e+20
1.3179168e+20
1.3168368e+20
1.337976e+20
1.3392864e+20
1.3411008e+20
1.3624416e+20
1.3509216e+20
1.3684032e+20
1.3743648e+20
2.0664e+18
3.03696e+18
3.77136e+18
4.48128e+18
5.41728e+18
6.02208e+18
6.81552e+18
7.54704e+18
8.13744e+18
8.78256e+18
9.33984e+18
9.95184e+18
1.069776e+19
1.152144e+19
1.202832e+19
1.25856e+19
1.263312e+19
1.372896e+19
1.45152e+19
1.514016e+19
1.570464e+19
1.655568e+19
1.72152e+19
1.784448e+19
1.896624e+19
1.967472e+19
2.051136e+19
2.10888e+19
2.241072e+19
2.269296e+19
2.298096e+19
2.38608e+19
2.467296e+19
2.502144e+19
2.553552e+19
2.646e+19
2.688192e+19
2.79e+19
2.839392e+19
2.913984e+19
2.998224e+19
3.061296e+19
3.131136e+19
3.234816e+19
3.28824e+19
3.393648e+19
3.445056e+19
3.505392e+19
3.528e+19
3.661056e+19
3.678912e+19
3.704976e+19
3.840336e+19
3.851712e+19
4.014864e+19
4.000896e+19
4.047552e+19
4.215024e+19
4.270896e+19
4.279392e+19
4.414896e+19
4.483296e+19
4.558032e+19
4.600512e+19
4.662432e+19
4.625424e+19
4.67928e+19
4.83408e+19
4.849632e+19
4.993488e+19
5.045616e+19
5.098176e+19
5.255712e+19
5.292576e+19
5.283936e+19
5.419872e+19
5.481216e+19
5.519376e+19
5.539968e+19
5.576688e+19
5.713344e+19
5.866128e+19
5.806368e+19
5.905152e+19
6.011424e+19
6.03936e+19
6.10992e+19
6.190416e+19
6.320736e+19
6.387408e+19
6.51024e+19
6.578496e+19
6.63768e+19
6.714432e+19
6.819984e+19
6.879024e+19
6.857424e+19
6.927408e+19
6.918336e+19
7.09344e+19
7.126848e+19
7.182576e+19
7.290288e+19
7.32024e+19
7.378416e+19
7.49952e+19
7.488288e+19
7.493472e+19
7.514352e+19
7.6428e+19
7.713072e+19
7.70976e+19
7.88472e+19
7.899408e+19
8.014896e+19
8.089056e+19
8.082576e+19
8.181792e+19
8.255808e+19
8.330544e+19
8.36856e+19
8.450064e+19
8.540208e+19
8.60472e+19
8.670384e+19
8.726256e+19
8.728992e+19
8.752032e+19
8.878608e+19
8.970768e+19
9.059472e+19
9.202176e+19
9.183024e+19
9.2808e+19
9.287712e+19
9.345888e+19
9.480384e+19
9.501408e+19
9.4716e+19
9.665136e+19
9.604224e+19
9.6156e+19
9.73584e+19
9.850896e+19
9.898848e+19
1.000224e+20
1.0044144e+20
1.0130832e+20
1.020816e+20
1.0360368e+20
1.0489536e+20
1.0472688e+20
1.0510416e+20
1.0508544e+20
1.0567872e+20
1.0757088e+20
1.0785312e+20
1.0876464e+20
1.0845936e+20
1.0970208e+20
1.10232e+20
1.1189088e+20
1.1290608e+20
1.1320704e+20
1.1349936e+20
1.1421936e+20
1.1361888e+20
1.1589696e+20
1.1711952e+20
1.1740176e+20
1.1750112e+20
1.185552e+20
1.1757744e+20
1.1813904e+20
1.194984e+20
1.2016944e+20
1.2120048e+20
1.2307824e+20
1.2203424e+20
1.2227472e+20
1.234152e+20
1.2474576e+20
1.2572496e+20
1.2645648e+20
1.2892176e+20
1.2856464e+20
1.28268e+20
1.2855312e+20
1.30608e+20
1.2879936e+20
1.3098384e+20
1.3281696e+20
1.325016e+20
1.331352e+20
1.341432e+20
1.3448592e+20
1.3578336e+20
1.3668912e+20
1.3675968e+20
1.3766976e+20
2.18448e+18
2.90016e+18
3.72672e+18
4.60656e+18
5.44608e+18
5.99328e+18
6.86016e+18
7.18992e+18
7.9632e+18
8.63712e+18
9.3096e+18
9.68544e+18
1.065744e+19
1.139328e+19
1.202544e+19
1.263024e+19
1.336752e+19
1.418976e+19
1.482336e+19
1.55736e+19
1.616256e+19
1.698336e+19
1.729152e+19
1.854432e+19
1.927584e+19
1.952352e+19
2.053728e+19
2.089152e+19
2.19672e+19
2.207664e+19
2.285568e+19
2.371824e+19
2.43144e+19
2.498976e+19
2.52576e+19
2.580048e+19
2.72952e+19
2.769408e+19
2.821824e+19
2.953152e+19
2.948112e+19
3.042576e+19
3.083472e+19
3.20472e+19
3.256272e+19
3.380544e+19
3.495168e+19
3.487968e+19
3.621312e+19
3.60216e+19
3.637152e+19
3.775536e+19
3.858336e+19
3.924144e+19
3.955392e+19
3.933648e+19
4.102848e+19
4.201344e+19
4.259952e+19
4.290624e+19
4.464864e+19
4.456944e+19
4.530528e+19
4.63824e+19
4.66416e+19
4.681872e+19
4.77648e+19
4.795488e+19
4.90176e+19
4.975344e+19
5.04144e+19
5.125392e+19
5.171904e+19
5.307552e+19
5.340672e+19
5.434272e+19
5.494896e+19
5.615136e+19
5.619456e+19
5.63328e+19
5.743008e+19
5.861664e+19
5.89968e+19
5.911488e+19
5.971824e+19
6.016608e+19
6.01056e+19
6.176304e+19
6.292656e+19
6.356304e+19
6.437232e+19
6.51672e+19
6.63192e+19
6.598224e+19
6.690384e+19
6.812496e+19
6.895152e+19
6.950304e+19
7.016256e+19
7.057728e+19
7.073568e+19
7.14024e+19
7.1244e+19
7.268832e+19
7.366464e+19
7.425216e+19
7.455744e+19
7.457904e+19
7.597584e+19
7.656768e+19
7.664112e+19
7.772976e+19
7.896096e+19
7.956432e+19
7.9092e+19
8.00496e+19
8.106624e+19
8.206704e+19
8.370432e+19
8.432928e+19
8.467056e+19
8.46576e+19
8.5356e+19
8.486064e+19
8.636976e+19
8.665056e+19
8.7372e+19
8.790192e+19
8.852976e+19
9.02088e+19
9.127728e+19
9.175104e+19
9.138672e+19
9.25704e+19
9.227808e+19
9.327888e+19
9.41472e+19
9.449424e+19
9.570816e+19
9.70632e+19
9.658368e+19
9.600192e+19
9.715968e+19
9.900144e+19
9.999936e+19
1.004544e+20
1.0088784e+20
1.0168704e+20
1.023624e+20
1.0327536e+20
1.0390464e+20
1.0532304e+20
1.05516e+20
1.0610208e+20
1.0749168e+20
1.0736208e+20
1.0816848e+20
1.0867248e+20
1.0858752e+20
1.0970208e+20
1.1153952e+20
1.1087856e+20
1.1165184e+20
1.13112e+20
1.1220912e+20
1.138608e+20
1.1390976e+20
1.1520864e+20
1.1583792e+20
1.1668032e+20
1.1651328e+20
1.1776176e+20
1.1898432e+20
1.2007584e+20
1.2055824e+20
1.2101616e+20
1.2136464e+20
1.2232512e+20
1.2228192e+20
1.2351456e+20
1.2421008e+20
1.2479616e+20
1.2627936e+20
1.2742704e+20
1.2782016e+20
1.2857184e+20
1.2876912e+20
1.2912912e+20
1.2943584e+20
1.296576e+20
1.3055328e+20
1.3241664e+20
1.317456e+20
1.327032e+20
1.3372992e+20
1.3501584e+20
1.3527792e+20
1.3639104e+20
1.364544e+20
1.373544e+20
2.196e+18
2.97216e+18
3.80448e+18
4.51296e+18
5.05584e+18
5.94432e+18
6.62976e+18
7.30368e+18
7.93584e+18
8.6544e+18
8.9928e+18
9.89856e+18
1.070928e+19
1.159344e+19
1.17288e+19
1.255104e+19
1.335456e+19
1.429632e+19
1.512288e+19
1.537776e+19
1.64952e+19
1.712016e+19
1.771056e+19
1.805904e+19
1.854432e+19
1.94544e+19
2.056032e+19
2.098368e+19
2.152224e+19
2.191968e+19
2.294352e+19
2.3544e+19
2.403792e+19
2.4696e+19
2.563344e+19
2.581776e+19
2.708064e+19
2.749968e+19
2.854512e+19
2.934e+19
2.953728e+19
3.054816e+19
3.118176e+19
3.225168e+19
3.197952e+19
3.351744e+19
3.448656e+19
3.499344e+19
3.613248e+19
3.640032e+19
3.658176e+19
3.727296e+19
3.853152e+19
3.94632e+19
3.9492e+19
3.931056e+19
4.090608e+19
4.167936e+19
4.214592e+19
4.320576e+19
4.40208e+19
4.460544e+19
4.511664e+19
4.614048e+19
4.629312e+19
4.767696e+19
4.787136e+19
4.906224e+19
4.923936e+19
4.987584e+19
5.099904e+19
5.155056e+19
5.209056e+19
5.256576e+19
5.385888e+19
5.444784e+19
5.515344e+19
5.578128e+19
5.6448e+19
5.601312e+19
5.673744e+19
5.768784e+19
5.78664e+19
5.903712e+19
5.978448e+19
6.013296e+19
6.088896e+19
6.180624e+19
6.269472e+19
6.3684e+19
6.449616e+19
6.50376e+19
6.652656e+19
6.687072e+19
6.753888e+19
6.752304e+19
6.892704e+19
6.87312e+19
7.000992e+19
7.026048e+19
7.090848e+19
7.17408e+19
7.148448e+19
7.265232e+19
7.29648e+19
7.41168e+19
7.443936e+19
7.5024e+19
7.494768e+19
7.632864e+19
7.641216e+19
7.73784e+19
7.876224e+19
7.832736e+19
7.98552e+19
8.021088e+19
8.102448e+19
8.18568e+19
8.310384e+19
8.346816e+19
8.499312e+19
8.471376e+19
8.555328e+19
8.420112e+19
8.620704e+19
8.766576e+19
8.706384e+19
8.765856e+19
8.957088e+19
9.026928e+19
9.007488e+19
9.016704e+19
9.133056e+19
9.137232e+19
9.216432e+19
9.318384e+19
9.490464e+19
9.524736e+19
9.557712e+19
9.50904e+19
9.586944e+19
9.727344e+19
9.869616e+19
9.837648e+19
1.0006992e+20
1.0094256e+20
1.0105344e+20
1.01592e+20
1.0294128e+20
1.0333728e+20
1.0452096e+20
1.0490112e+20
1.0502496e+20
1.0640592e+20
1.0792944e+20
1.0757232e+20
1.0910304e+20
1.0904976e+20
1.0927728e+20
1.0952928e+20
1.122336e+20
1.1138256e+20
1.1137968e+20
1.1178e+20
1.1378736e+20
1.146888e+20
1.1377008e+20
1.1542464e+20
1.1645568e+20
1.1650896e+20
1.1672064e+20
1.1822832e+20
1.1909952e+20
1.1983248e+20
1.1991024e+20
1.2107952e+20
1.2192912e+20
1.222776e+20
1.2262032e+20
1.2346128e+20
1.2369744e+20
1.2576384e+20
1.2625488e+20
1.2709296e+20
1.2837312e+20
1.2848832e+20
1.2712176e+20
1.2916656e+20
1.2947184e+20
1.3142016e+20
1.3109328e+20
1.3234176e+20
1.3270896e+20
1.3276656e+20
1.329696e+20
1.3423536e+20
1.3520016e+20
1.3587552e+20
1.3670784e+20
1.3721616e+20
2.12688e+18
2.98224e+18
3.888e+18
4.57488e+18
5.27184e+18
5.98752e+18
6.52464e+18
7.66224e+18
8.09856e+18
8.3592e+18
9.01584e+18
9.91872e+18
1.039392e+19
1.116864e+19
1.234656e+19
1.267632e+19
1.35864e+19
1.402848e+19
1.478448e+19
1.54656e+19
1.639152e+19
1.723824e+19
1.767888e+19
1.814256e+19
1.891872e+19
1.976112e+19
2.006928e+19
2.098656e+19
2.147328e+19
2.216592e+19
2.333088e+19
2.366352e+19
2.41056e+19
2.49336e+19
2.581632e+19
2.617344e+19
2.6964e+19
2.75688e+19
2.905776e+19
2.927232e+19
3.017808e+19
3.017232e+19
3.114864e+19
3.265776e+19
3.336192e+19
3.375504e+19
3.459168e+19
3.481344e+19
3.520224e+19
3.632544e+19
3.712752e+19
3.755088e+19
3.884112e+19
3.883536e+19
3.974688e+19
4.03416e+19
4.083696e+19
4.142016e+19
4.19976e+19
4.340592e+19
4.331664e+19
4.449888e+19
4.550976e+19
4.62024e+19
4.683168e+19
4.804992e+19
4.822848e+19
4.894704e+19
4.884624e+19
5.005728e+19
5.104512e+19
5.156496e+19
5.285376e+19
5.29416e+19
5.403168e+19
5.457024e+19
5.4684e+19
5.59368e+19
5.579568e+19
5.620032e+19
5.654448e+19
5.776272e+19
5.872608e+19
5.887728e+19
6.003504e+19
6.020496e+19
6.10776e+19
6.256368e+19
6.225696e+19
6.275664e+19
6.3684e+19
6.506352e+19
6.558048e+19
6.599232e+19
6.722064e+19
6.767136e+19
6.76368e+19
6.925392e+19
6.986016e+19
7.034256e+19
7.156368e+19
7.195536e+19
7.191936e+19
7.329456e+19
7.342704e+19
7.380432e+19
7.446384e+19
7.528032e+19
7.61328e+19
7.705296e+19
7.710912e+19
7.737408e+19
7.879392e+19
8.039664e+19
7.897248e+19
8.03952e+19
8.181792e+19
8.14752e+19
8.413344e+19
8.340624e+19
8.44776e+19
8.574768e+19
8.555184e+19
8.651664e+19
8.656272e+19
8.782848e+19
8.81064e+19
8.759232e+19
8.868816e+19
9.0576e+19
8.980416e+19
9.125712e+19
9.12528e+19
9.052704e+19
9.18288e+19
9.295344e+19
9.4104e+19
9.48384e+19
9.477792e+19
9.445824e+19
9.600192e+19
9.661968e+19
9.827856e+19
9.809136e+19
9.91872e+19
9.956592e+19
1.0062288e+20
1.0171728e+20
1.025856e+20
1.0294992e+20
1.0456704e+20
1.0456272e+20
1.0518624e+20
1.0602144e+20
1.074096e+20
1.0791216e+20
1.088784e+20
1.091448e+20
1.0867392e+20
1.1106e+20
1.1088864e+20
1.1188656e+20
1.1218464e+20
1.119096e+20
1.1391552e+20
1.1433168e+20
1.1456928e+20
1.1505888e+20
1.1587536e+20
1.1738736e+20
1.172592e+20
1.1899872e+20
1.1942928e+20
1.1853936e+20
1.1823264e+20
1.1934432e+20
1.2177648e+20
1.2177792e+20
1.2253392e+20
1.2421152e+20
1.2397104e+20
1.2427776e+20
1.2586752e+20
1.2685536e+20
1.289664e+20
1.282104e+20
1.2809952e+20
1.29492e+20
1.3021632e+20
1.302192e+20
1.3048128e+20
1.314648e+20
1.3217184e+20
1.339272e+20
1.3408416e+20
1.3389264e+20
1.3477104e+20
1.3576464e+20
1.3703328e+20
1.383264e+20
)
;

boundaryField
{
    bottom
    {
        type            calculated;
        value           nonuniform List<scalar> 
200
(
2.11392e+18
2.89728e+18
3.78288e+18
4.69728e+18
5.1768e+18
5.89536e+18
6.57936e+18
7.81776e+18
8.49312e+18
8.82576e+18
9.32832e+18
9.92016e+18
1.101456e+19
1.129536e+19
1.18296e+19
1.287072e+19
1.305792e+19
1.368864e+19
1.460736e+19
1.516752e+19
1.526688e+19
1.608624e+19
1.678032e+19
1.787328e+19
1.91232e+19
1.960272e+19
2.033856e+19
2.06496e+19
2.159568e+19
2.269296e+19
2.318976e+19
2.331072e+19
2.38392e+19
2.506032e+19
2.566368e+19
2.63448e+19
2.678688e+19
2.754432e+19
2.849472e+19
2.983968e+19
3.007584e+19
3.04704e+19
3.148416e+19
3.236976e+19
3.36168e+19
3.387456e+19
3.44232e+19
3.508704e+19
3.565728e+19
3.678048e+19
3.725424e+19
3.860496e+19
3.876624e+19
3.856896e+19
3.938256e+19
3.993408e+19
4.108608e+19
4.176e+19
4.222224e+19
4.294656e+19
4.431744e+19
4.425264e+19
4.53168e+19
4.5936e+19
4.682016e+19
4.700736e+19
4.756032e+19
4.826736e+19
4.856832e+19
4.963824e+19
5.062032e+19
5.105664e+19
5.29416e+19
5.303232e+19
5.324256e+19
5.504544e+19
5.511168e+19
5.575824e+19
5.529168e+19
5.558256e+19
5.687136e+19
5.675472e+19
5.800608e+19
5.8608e+19
6.05376e+19
6.040512e+19
6.078384e+19
6.172128e+19
6.268896e+19
6.359616e+19
6.470496e+19
6.559056e+19
6.573024e+19
6.609024e+19
6.822144e+19
6.833088e+19
6.904512e+19
6.939648e+19
7.093152e+19
7.117056e+19
7.080192e+19
7.161408e+19
7.31304e+19
7.27056e+19
7.38216e+19
7.40448e+19
7.595424e+19
7.667424e+19
7.63272e+19
7.643232e+19
7.737264e+19
7.834032e+19
7.810416e+19
7.925904e+19
7.985808e+19
8.03088e+19
8.160048e+19
8.212896e+19
8.414352e+19
8.455392e+19
8.4168e+19
8.447328e+19
8.546112e+19
8.561952e+19
8.6184e+19
8.785872e+19
8.765856e+19
8.794944e+19
8.846496e+19
8.931744e+19
9.06408e+19
9.15984e+19
9.220464e+19
9.22176e+19
9.240768e+19
9.265968e+19
9.403632e+19
9.414432e+19
9.500688e+19
9.58536e+19
9.727488e+19
9.730656e+19
9.667008e+19
9.811296e+19
9.82512e+19
9.900576e+19
1.0053072e+20
1.0162656e+20
1.0245024e+20
1.0462752e+20
1.0415952e+20
1.0393488e+20
1.0581552e+20
1.063368e+20
1.064304e+20
1.0819872e+20
1.092528e+20
1.0808784e+20
1.0871424e+20
1.1079648e+20
1.1102688e+20
1.1203776e+20
1.1192256e+20
1.1327904e+20
1.1411568e+20
1.1417472e+20
1.1415456e+20
1.1554848e+20
1.1673504e+20
1.1756592e+20
1.1760336e+20
1.1812464e+20
1.1872944e+20
1.1910816e+20
1.1961504e+20
1.2008304e+20
1.219104e+20
1.2309552e+20
1.2169152e+20
1.2279312e+20
1.242288e+20
1.2511008e+20
1.2468096e+20
1.2589056e+20
1.275912e+20
1.2816576e+20
1.2927744e+20
1.2760128e+20
1.2990384e+20
1.3144176e+20
1.3160592e+20
1.3179168e+20
1.3168368e+20
1.337976e+20
1.3392864e+20
1.3411008e+20
1.3624416e+20
1.3509216e+20
1.3684032e+20
1.3743648e+20
)
;
    }
    top
    {
        type            calculated;
        value           nonuniform List<scalar> 
200
(
2.12688e+18
2.98224e+18
3.888e+18
4.57488e+18
5.27184e+18
5.98752e+18
6.52464e+18
7.66224e+18
8.09856e+18
8.3592e+18
9.01584e+18
9.91872e+18
1.039392e+19
1.116864e+19
1.234656e+19
1.267632e+19
1.35864e+19
1.402848e+19
1.478448e+19
1.54656e+19
1.639152e+19
1.723824e+19
1.767888e+19
1.814256e+19
1.891872e+19
1.976112e+19
2.006928e+19
2.098656e+19
2.147328e+19
2.216592e+19
2.333088e+19
2.366352e+19
2.41056e+19
2.49336e+19
2.581632e+19
2.617344e+19
2.6964e+19
2.75688e+19
2.905776e+19
2.927232e+19
3.017808e+19
3.017232e+19
3.114864e+19
3.265776e+19
3.336192e+19
3.375504e+19
3.459168e+19
3.481344e+19
3.520224e+19
3.632544e+19
3.712752e+19
3.755088e+19
3.884112e+19
3.883536e+19
3.974688e+19
4.03416e+19
4.083696e+19
4.142016e+19
4.19976e+19
4.340592e+19
4.331664e+19
4.449888e+19
4.550976e+19
4.62024e+19
4.683168e+19
4.804992e+19
4.822848e+19
4.894704e+19
4.884624e+19
5.005728e+19
5.104512e+19
5.156496e+19
5.285376e+19
5.29416e+19
5.403168e+19
5.457024e+19
5.4684e+19
5.59368e+19
5.579568e+19
5.620032e+19
5.654448e+19
5.776272e+19
5.872608e+19
5.887728e+19
6.003504e+19
6.020496e+19
6.10776e+19
6.256368e+19
6.225696e+19
6.275664e+19
6.3684e+19
6.506352e+19
6.558048e+19
6.599232e+19
6.722064e+19
6.767136e+19
6.76368e+19
6.925392e+19
6.986016e+19
7.034256e+19
7.156368e+19
7.195536e+19
7.191936e+19
7.329456e+19
7.342704e+19
7.380432e+19
7.446384e+19
7.528032e+19
7.61328e+19
7.705296e+19
7.710912e+19
7.737408e+19
7.879392e+19
8.039664e+19
7.897248e+19
8.03952e+19
8.181792e+19
8.14752e+19
8.413344e+19
8.340624e+19
8.44776e+19
8.574768e+19
8.555184e+19
8.651664e+19
8.656272e+19
8.782848e+19
8.81064e+19
8.759232e+19
8.868816e+19
9.0576e+19
8.980416e+19
9.125712e+19
9.12528e+19
9.052704e+19
9.18288e+19
9.295344e+19
9.4104e+19
9.48384e+19
9.477792e+19
9.445824e+19
9.600192e+19
9.661968e+19
9.827856e+19
9.809136e+19
9.91872e+19
9.956592e+19
1.0062288e+20
1.0171728e+20
1.025856e+20
1.0294992e+20
1.0456704e+20
1.0456272e+20
1.0518624e+20
1.0602144e+20
1.074096e+20
1.0791216e+20
1.088784e+20
1.091448e+20
1.0867392e+20
1.1106e+20
1.1088864e+20
1.1188656e+20
1.1218464e+20
1.119096e+20
1.1391552e+20
1.1433168e+20
1.1456928e+20
1.1505888e+20
1.1587536e+20
1.1738736e+20
1.172592e+20
1.1899872e+20
1.1942928e+20
1.1853936e+20
1.1823264e+20
1.1934432e+20
1.2177648e+20
1.2177792e+20
1.2253392e+20
1.2421152e+20
1.2397104e+20
1.2427776e+20
1.2586752e+20
1.2685536e+20
1.289664e+20
1.282104e+20
1.2809952e+20
1.29492e+20
1.3021632e+20
1.302192e+20
1.3048128e+20
1.314648e+20
1.3217184e+20
1.339272e+20
1.3408416e+20
1.3389264e+20
1.3477104e+20
1.3576464e+20
1.3703328e+20
1.383264e+20
)
;
    }
    inlet
    {
        type            calculated;
        value           nonuniform List<scalar> 5(2.11392e+18 2.0664e+18 2.18448e+18 2.196e+18 2.12688e+18);
    }
    outlet
    {
        type            calculated;
        value           nonuniform List<scalar> 5(1.3743648e+20 1.3766976e+20 1.373544e+20 1.3721616e+20 1.383264e+20);
    }
    back
    {
        type            symmetry;
    }
    front
    {
        type            symmetry;
    }
}


// ************************************************************************* //
