/*--------------------------------*- C++ -*----------------------------------*\
| =========                 |                                                 |
| \\      /  F ield         | OpenFOAM: The Open Source CFD Toolbox           |
|  \\    /   O peration     | Version:  v1706                                 |
|   \\  /    A nd           | Web:      www.OpenFOAM.com                      |
|    \\/     M anipulation  |                                                 |
\*---------------------------------------------------------------------------*/
FoamFile
{
    version     2.0;
    format      ascii;
    class       volScalarField;
    location    "0.55";
    object      rhoN_mixture;
}
// * * * * * * * * * * * * * * * * * * * * * * * * * * * * * * * * * * * * * //

dimensions      [0 -3 0 0 0 0 0];


internalField   nonuniform List<scalar> 
1000
(
1.4041872e+20
1.4032656e+20
1.4002416e+20
1.3849632e+20
1.4031216e+20
1.4043168e+20
1.4034528e+20
1.4078736e+20
1.4142528e+20
1.423944e+20
1.413072e+20
1.4101776e+20
1.412208e+20
1.3989888e+20
1.3998096e+20
1.4057568e+20
1.4182416e+20
1.419984e+20
1.4077008e+20
1.4051664e+20
1.4019984e+20
1.4007024e+20
1.4022144e+20
1.40724e+20
1.4094288e+20
1.4156784e+20
1.4038128e+20
1.3949856e+20
1.3957776e+20
1.398528e+20
1.3957056e+20
1.4022576e+20
1.3864608e+20
1.3896576e+20
1.391976e+20
1.4163408e+20
1.398744e+20
1.394496e+20
1.4103216e+20
1.4133744e+20
1.404432e+20
1.3979376e+20
1.4043456e+20
1.3958928e+20
1.4148576e+20
1.4272128e+20
1.4295744e+20
1.4137776e+20
1.4090544e+20
1.4202864e+20
1.4118336e+20
1.4157504e+20
1.4073408e+20
1.4072688e+20
1.4130432e+20
1.4018544e+20
1.4055696e+20
1.3946832e+20
1.3950864e+20
1.3981248e+20
1.4074128e+20
1.3952448e+20
1.396224e+20
1.4103504e+20
1.4081616e+20
1.4094864e+20
1.4031792e+20
1.4127552e+20
1.4167584e+20
1.4105808e+20
1.3992048e+20
1.4030208e+20
1.40976e+20
1.4055264e+20
1.4064336e+20
1.423008e+20
1.4219136e+20
1.4214816e+20
1.415592e+20
1.3908528e+20
1.411416e+20
1.4040432e+20
1.409832e+20
1.40544e+20
1.4070816e+20
1.4101632e+20
1.4026896e+20
1.400256e+20
1.4044752e+20
1.407744e+20
1.4153328e+20
1.4094576e+20
1.4050368e+20
1.4040432e+20
1.4132448e+20
1.4034384e+20
1.4017104e+20
1.4076144e+20
1.4214528e+20
1.4132592e+20
1.4025456e+20
1.405008e+20
1.4221296e+20
1.4017392e+20
1.4002704e+20
1.3926096e+20
1.402416e+20
1.404576e+20
1.402632e+20
1.3928256e+20
1.3967136e+20
1.4080608e+20
1.3946688e+20
1.3954176e+20
1.3940496e+20
1.399536e+20
1.403568e+20
1.4100624e+20
1.4174064e+20
1.4110992e+20
1.3995504e+20
1.3963104e+20
1.3908096e+20
1.3972464e+20
1.3924224e+20
1.3928544e+20
1.3863456e+20
1.3866912e+20
1.3890672e+20
1.3860288e+20
1.3846176e+20
1.395936e+20
1.3969728e+20
1.3835376e+20
1.3794192e+20
1.3807728e+20
1.3856688e+20
1.374696e+20
1.3830048e+20
1.3861296e+20
1.3906944e+20
1.3931136e+20
1.3742928e+20
1.3769424e+20
1.3735008e+20
1.3762512e+20
1.3827312e+20
1.3874544e+20
1.3961808e+20
1.4032368e+20
1.3929552e+20
1.377216e+20
1.394712e+20
1.3859136e+20
1.3952304e+20
1.4013648e+20
1.4083056e+20
1.3855536e+20
1.3955472e+20
1.4051376e+20
1.3985856e+20
1.4015088e+20
1.396008e+20
1.4030064e+20
1.4093136e+20
1.3976352e+20
1.3905072e+20
1.4005296e+20
1.4087808e+20
1.4038416e+20
1.4025024e+20
1.3963248e+20
1.400904e+20
1.3938048e+20
1.391904e+20
1.3925232e+20
1.4041296e+20
1.4015664e+20
1.3801392e+20
1.384416e+20
1.3934592e+20
1.391976e+20
1.3839984e+20
1.389744e+20
1.4042736e+20
1.3999248e+20
1.405296e+20
1.3805856e+20
1.3951008e+20
1.4068224e+20
1.4023152e+20
1.3951008e+20
1.3853664e+20
1.4010336e+20
1.3958352e+20
1.392048e+20
1.4075136e+20
1.3886784e+20
1.3987008e+20
1.3960512e+20
1.3902768e+20
1.4077872e+20
1.407528e+20
1.4092704e+20
1.4082048e+20
1.405152e+20
1.4074992e+20
1.4114448e+20
1.4197392e+20
1.4127408e+20
1.4062176e+20
1.405152e+20
1.4066208e+20
1.4042592e+20
1.4004144e+20
1.4094288e+20
1.4003712e+20
1.4181696e+20
1.408536e+20
1.4094864e+20
1.395792e+20
1.4069664e+20
1.4011632e+20
1.3995504e+20
1.4023872e+20
1.4073552e+20
1.41372e+20
1.4061024e+20
1.4028192e+20
1.3993488e+20
1.3963824e+20
1.3955904e+20
1.409256e+20
1.4020272e+20
1.4064336e+20
1.4076144e+20
1.3984416e+20
1.4096304e+20
1.4203728e+20
1.4108112e+20
1.4092848e+20
1.4025744e+20
1.4000544e+20
1.3968576e+20
1.4017104e+20
1.3998384e+20
1.4081904e+20
1.4066928e+20
1.4023296e+20
1.4120208e+20
1.403352e+20
1.40796e+20
1.4030352e+20
1.3933008e+20
1.409112e+20
1.404792e+20
1.4012784e+20
1.3974624e+20
1.4061312e+20
1.395576e+20
1.4079024e+20
1.4069808e+20
1.4092704e+20
1.4092704e+20
1.410696e+20
1.4064192e+20
1.393848e+20
1.4078592e+20
1.4118192e+20
1.4167296e+20
1.405944e+20
1.4031936e+20
1.4112576e+20
1.4069952e+20
1.4095008e+20
1.4114448e+20
1.4092128e+20
1.4085648e+20
1.4074992e+20
1.3948848e+20
1.4113728e+20
1.423728e+20
1.4056128e+20
1.3995504e+20
1.4114304e+20
1.4041584e+20
1.4128704e+20
1.4062896e+20
1.406448e+20
1.409832e+20
1.4113872e+20
1.4085792e+20
1.4105088e+20
1.408608e+20
1.4068224e+20
1.4040288e+20
1.4060016e+20
1.405584e+20
1.4026176e+20
1.4055552e+20
1.4020128e+20
1.4059152e+20
1.4078448e+20
1.4097888e+20
1.394928e+20
1.4034672e+20
1.3940352e+20
1.3923504e+20
1.3955184e+20
1.4011488e+20
1.3970736e+20
1.3922352e+20
1.40544e+20
1.3982112e+20
1.3997808e+20
1.4028624e+20
1.3991904e+20
1.3972032e+20
1.400112e+20
1.3968e+20
1.395864e+20
1.3945104e+20
1.3972896e+20
1.3920912e+20
1.3917744e+20
1.390464e+20
1.3833216e+20
1.3822416e+20
1.3838832e+20
1.3877856e+20
1.3877856e+20
1.398312e+20
1.3850208e+20
1.3935456e+20
1.3817808e+20
1.3889088e+20
1.3888224e+20
1.3862736e+20
1.3775184e+20
1.3929264e+20
1.3819392e+20
1.3771728e+20
1.3786128e+20
1.3854528e+20
1.3863024e+20
1.38348e+20
1.3801824e+20
1.3801248e+20
1.380456e+20
1.3913136e+20
1.3959648e+20
1.3845312e+20
1.3797648e+20
1.3787568e+20
1.3812336e+20
1.4011056e+20
1.3959504e+20
1.3988592e+20
1.3879008e+20
1.390608e+20
1.3899168e+20
1.402344e+20
1.4046048e+20
1.4015376e+20
1.4014224e+20
1.400544e+20
1.3871952e+20
1.3990032e+20
1.4042304e+20
1.4045184e+20
1.4016384e+20
1.4010912e+20
1.388448e+20
1.380888e+20
1.3895856e+20
1.3874544e+20
1.39104e+20
1.4040288e+20
1.3833504e+20
1.3797504e+20
1.3876704e+20
1.3901328e+20
1.392696e+20
1.3919904e+20
1.4160384e+20
1.4046048e+20
1.39464e+20
1.3865616e+20
1.40472e+20
1.3807152e+20
1.3945248e+20
1.4066928e+20
1.394496e+20
1.3959504e+20
1.4014224e+20
1.3965264e+20
1.4014368e+20
1.404216e+20
1.3965408e+20
1.39752e+20
1.4049216e+20
1.4013216e+20
1.4023872e+20
1.3927392e+20
1.4080608e+20
1.3963392e+20
1.4026896e+20
1.4070384e+20
1.4089968e+20
1.4051232e+20
1.3969296e+20
1.3922496e+20
1.397664e+20
1.4043168e+20
1.4034816e+20
1.4159952e+20
1.4236416e+20
1.4122224e+20
1.411848e+20
1.4122944e+20
1.4137776e+20
1.4109696e+20
1.411488e+20
1.4162112e+20
1.4079456e+20
1.3955328e+20
1.4120208e+20
1.4024304e+20
1.4073984e+20
1.4009904e+20
1.4031648e+20
1.4026464e+20
1.3997952e+20
1.400616e+20
1.3925664e+20
1.3989888e+20
1.4121216e+20
1.415736e+20
1.4058864e+20
1.4093136e+20
1.4060448e+20
1.398024e+20
1.389888e+20
1.3985136e+20
1.4005152e+20
1.4102784e+20
1.41156e+20
1.413072e+20
1.4124528e+20
1.4100336e+20
1.4027616e+20
1.4288256e+20
1.4082192e+20
1.4180832e+20
1.4012208e+20
1.3927392e+20
1.3977072e+20
1.4146992e+20
1.4044752e+20
1.4023008e+20
1.4192784e+20
1.4161248e+20
1.4060592e+20
1.4028624e+20
1.402344e+20
1.405512e+20
1.4041584e+20
1.4041728e+20
1.4051376e+20
1.4083776e+20
1.4076576e+20
1.4022e+20
1.4067936e+20
1.4103648e+20
1.4106816e+20
1.4115024e+20
1.4132016e+20
1.4111712e+20
1.4202288e+20
1.4049072e+20
1.4061168e+20
1.4146128e+20
1.4129712e+20
1.4070816e+20
1.4033952e+20
1.4048928e+20
1.3899744e+20
1.3987728e+20
1.4074848e+20
1.4044032e+20
1.404936e+20
1.4051952e+20
1.4031504e+20
1.399752e+20
1.4021424e+20
1.3954176e+20
1.4084496e+20
1.4035824e+20
1.4038848e+20
1.3986144e+20
1.4007024e+20
1.3943952e+20
1.3937472e+20
1.3969728e+20
1.3946256e+20
1.4061456e+20
1.3969584e+20
1.4022864e+20
1.40508e+20
1.4056992e+20
1.400256e+20
1.3994928e+20
1.4077728e+20
1.4053248e+20
1.3973184e+20
1.3968576e+20
1.3954896e+20
1.3950576e+20
1.4033664e+20
1.4007024e+20
1.3999392e+20
1.3977504e+20
1.3938624e+20
1.3856976e+20
1.3955616e+20
1.3911552e+20
1.3886784e+20
1.3846896e+20
1.3798944e+20
1.3839984e+20
1.3957776e+20
1.3912992e+20
1.3842e+20
1.3930848e+20
1.3835952e+20
1.3904064e+20
1.3867632e+20
1.385064e+20
1.3884192e+20
1.3937472e+20
1.3840704e+20
1.377576e+20
1.380312e+20
1.3925088e+20
1.3920048e+20
1.3941072e+20
1.3898304e+20
1.3874256e+20
1.3900176e+20
1.3865616e+20
1.3907664e+20
1.3956768e+20
1.3888224e+20
1.3860864e+20
1.396872e+20
1.3907664e+20
1.3935024e+20
1.3956192e+20
1.3858848e+20
1.398456e+20
1.4084352e+20
1.3972752e+20
1.386144e+20
1.4028192e+20
1.3903056e+20
1.400688e+20
1.3907232e+20
1.3945392e+20
1.3884624e+20
1.3923648e+20
1.3860144e+20
1.395216e+20
1.3978656e+20
1.4032656e+20
1.4035824e+20
1.399392e+20
1.393704e+20
1.3956192e+20
1.389024e+20
1.3948848e+20
1.3903776e+20
1.3911984e+20
1.3968e+20
1.4054976e+20
1.4043744e+20
1.4029344e+20
1.3978368e+20
1.393632e+20
1.3927968e+20
1.3861008e+20
1.3881888e+20
1.4000688e+20
1.3874256e+20
1.3904208e+20
1.3918752e+20
1.3998528e+20
1.3972464e+20
1.3996656e+20
1.3924944e+20
1.3917168e+20
1.3956336e+20
1.4013648e+20
1.397016e+20
1.3986576e+20
1.3883184e+20
1.4006304e+20
1.4102352e+20
1.4026176e+20
1.3979088e+20
1.3958064e+20
1.4014368e+20
1.3902768e+20
1.4092704e+20
1.4031072e+20
1.4027616e+20
1.409112e+20
1.4158656e+20
1.4061024e+20
1.4097168e+20
1.411488e+20
1.4178096e+20
1.4103936e+20
1.4135616e+20
1.4188608e+20
1.4052672e+20
1.4048352e+20
1.4113728e+20
1.4086944e+20
1.3966704e+20
1.392912e+20
1.3975488e+20
1.4000688e+20
1.4056848e+20
1.3893264e+20
1.408176e+20
1.4005296e+20
1.3950432e+20
1.4039136e+20
1.4100048e+20
1.4041584e+20
1.4043168e+20
1.4020992e+20
1.3979952e+20
1.4093424e+20
1.4015376e+20
1.4064624e+20
1.4153616e+20
1.3984992e+20
1.4067648e+20
1.409544e+20
1.4034384e+20
1.4010192e+20
1.4091696e+20
1.4126976e+20
1.4042016e+20
1.3933728e+20
1.415664e+20
1.410336e+20
1.4094864e+20
1.4156352e+20
1.415232e+20
1.4087376e+20
1.402992e+20
1.4103216e+20
1.4013936e+20
1.4133312e+20
1.3975344e+20
1.4105232e+20
1.4092128e+20
1.40292e+20
1.4097312e+20
1.4109408e+20
1.4016096e+20
1.3994064e+20
1.4074128e+20
1.4075424e+20
1.4234688e+20
1.4092704e+20
1.412928e+20
1.3985424e+20
1.3934736e+20
1.4045904e+20
1.4025744e+20
1.4044896e+20
1.4016816e+20
1.4000256e+20
1.4120352e+20
1.3969728e+20
1.410912e+20
1.404216e+20
1.4085216e+20
1.412064e+20
1.4234976e+20
1.4141376e+20
1.4045472e+20
1.3953456e+20
1.4028768e+20
1.4068368e+20
1.4070672e+20
1.4000832e+20
1.4026608e+20
1.4038704e+20
1.3966848e+20
1.3966704e+20
1.3899312e+20
1.3997808e+20
1.4056416e+20
1.4000976e+20
1.3962384e+20
1.4024016e+20
1.3954608e+20
1.3964256e+20
1.402632e+20
1.3923072e+20
1.406592e+20
1.3965552e+20
1.3909392e+20
1.3987728e+20
1.3967712e+20
1.39932e+20
1.405512e+20
1.4009184e+20
1.3983984e+20
1.3771728e+20
1.397808e+20
1.4062176e+20
1.3860864e+20
1.3867488e+20
1.39104e+20
1.3923792e+20
1.3835232e+20
1.3777488e+20
1.3872384e+20
1.383552e+20
1.3879296e+20
1.3864752e+20
1.3939776e+20
1.3914864e+20
1.387224e+20
1.3712976e+20
1.3804848e+20
1.3886064e+20
1.3971312e+20
1.3863024e+20
1.403568e+20
1.3995216e+20
1.389816e+20
1.3904928e+20
1.3923216e+20
1.387224e+20
1.3930416e+20
1.3890816e+20
1.3866624e+20
1.3928256e+20
1.401696e+20
1.3865616e+20
1.4055408e+20
1.3958208e+20
1.3976928e+20
1.3980528e+20
1.4121792e+20
1.4004e+20
1.3930848e+20
1.3912848e+20
1.4065056e+20
1.404288e+20
1.3839264e+20
1.4019984e+20
1.3986432e+20
1.392408e+20
1.3852944e+20
1.4045616e+20
1.402704e+20
1.4028336e+20
1.396584e+20
1.401984e+20
1.4018976e+20
1.3987008e+20
1.3913424e+20
1.3974912e+20
1.3904352e+20
1.4018112e+20
1.4000976e+20
1.401048e+20
1.4056848e+20
1.3989024e+20
1.3787856e+20
1.3930992e+20
1.391256e+20
1.4040144e+20
1.3923504e+20
1.399104e+20
1.3976064e+20
1.3922784e+20
1.387296e+20
1.3931136e+20
1.3948128e+20
1.394784e+20
1.3947408e+20
1.3907088e+20
1.4100768e+20
1.3950288e+20
1.4047776e+20
1.3922496e+20
1.3963824e+20
1.404936e+20
1.4087808e+20
1.4068656e+20
1.4112432e+20
1.4016384e+20
1.3958784e+20
1.3923936e+20
1.40076e+20
1.4097888e+20
1.4154912e+20
1.4160528e+20
1.4266512e+20
1.4134896e+20
1.4034384e+20
1.409112e+20
1.4210064e+20
1.4080752e+20
1.4011488e+20
1.4037552e+20
1.4084208e+20
1.4120928e+20
1.411632e+20
1.4103504e+20
1.3900032e+20
1.3832496e+20
1.40148e+20
1.3966992e+20
1.404e+20
1.3906944e+20
1.4064912e+20
1.4011632e+20
1.3913136e+20
1.3971312e+20
1.407744e+20
1.3966272e+20
1.4017536e+20
1.4067072e+20
1.402344e+20
1.4168304e+20
1.4134176e+20
1.4044752e+20
1.4086944e+20
1.4049936e+20
1.3924944e+20
1.4094576e+20
1.4108976e+20
1.3897296e+20
1.4087088e+20
1.4106672e+20
1.4127984e+20
1.419984e+20
1.4056416e+20
1.405656e+20
1.4062464e+20
1.4135184e+20
1.403784e+20
1.4114016e+20
1.4091408e+20
1.4038704e+20
1.4004288e+20
1.4110704e+20
1.4018688e+20
1.418544e+20
1.4084928e+20
1.4024736e+20
1.4068944e+20
1.411848e+20
1.421928e+20
1.4077008e+20
1.4060304e+20
1.4088672e+20
1.4048784e+20
1.4075136e+20
1.415016e+20
1.4099184e+20
1.4031504e+20
1.4107104e+20
1.40184e+20
1.4033952e+20
1.3985856e+20
1.400544e+20
1.4044896e+20
1.4089392e+20
1.3958784e+20
1.39644e+20
1.409184e+20
1.4174784e+20
1.404576e+20
1.4006592e+20
1.4075136e+20
1.399968e+20
1.3941216e+20
1.4113296e+20
1.410696e+20
1.3995936e+20
1.413144e+20
1.4171184e+20
1.4083056e+20
1.4079456e+20
1.3997664e+20
1.3974048e+20
1.3986432e+20
1.4005152e+20
1.4065488e+20
1.4049072e+20
1.4083056e+20
1.3991904e+20
1.39716e+20
1.4117616e+20
1.3973904e+20
1.4060736e+20
1.407024e+20
1.3997664e+20
1.4123664e+20
1.3956624e+20
1.395936e+20
1.4063184e+20
1.3982256e+20
1.4005008e+20
1.403784e+20
1.4042592e+20
1.3990608e+20
1.3893264e+20
1.3845024e+20
1.3966704e+20
1.3916448e+20
1.3965984e+20
1.3864464e+20
1.3717584e+20
1.3870224e+20
1.3785984e+20
1.37844e+20
1.3769136e+20
1.3781808e+20
1.3746096e+20
1.3789872e+20
1.3867488e+20
1.3905792e+20
1.3808016e+20
1.3868496e+20
1.382904e+20
1.3859568e+20
1.38744e+20
1.39464e+20
1.3907088e+20
1.3980528e+20
1.391976e+20
1.3859712e+20
1.3848624e+20
1.390968e+20
1.39644e+20
1.4011344e+20
1.3956192e+20
1.3872096e+20
1.4086224e+20
1.3980384e+20
1.4105952e+20
1.4049072e+20
1.3928112e+20
1.4042448e+20
1.4038272e+20
1.3920912e+20
1.3946976e+20
1.3957344e+20
1.4015376e+20
1.3954176e+20
1.403064e+20
1.40652e+20
1.3880592e+20
1.3781808e+20
1.3816944e+20
1.401048e+20
1.3924512e+20
1.3906368e+20
1.4010192e+20
1.3902768e+20
1.387512e+20
1.3955616e+20
1.3994208e+20
1.414152e+20
1.3974048e+20
1.3906944e+20
1.3936176e+20
1.398312e+20
1.3930128e+20
1.3848768e+20
1.390608e+20
1.3915152e+20
1.4041728e+20
1.3979808e+20
1.390104e+20
1.3925376e+20
1.39464e+20
1.3987296e+20
1.4031504e+20
)
;

boundaryField
{
    bottom
    {
        type            calculated;
        value           nonuniform List<scalar> 
200
(
1.4041872e+20
1.4032656e+20
1.4002416e+20
1.3849632e+20
1.4031216e+20
1.4043168e+20
1.4034528e+20
1.4078736e+20
1.4142528e+20
1.423944e+20
1.413072e+20
1.4101776e+20
1.412208e+20
1.3989888e+20
1.3998096e+20
1.4057568e+20
1.4182416e+20
1.419984e+20
1.4077008e+20
1.4051664e+20
1.4019984e+20
1.4007024e+20
1.4022144e+20
1.40724e+20
1.4094288e+20
1.4156784e+20
1.4038128e+20
1.3949856e+20
1.3957776e+20
1.398528e+20
1.3957056e+20
1.4022576e+20
1.3864608e+20
1.3896576e+20
1.391976e+20
1.4163408e+20
1.398744e+20
1.394496e+20
1.4103216e+20
1.4133744e+20
1.404432e+20
1.3979376e+20
1.4043456e+20
1.3958928e+20
1.4148576e+20
1.4272128e+20
1.4295744e+20
1.4137776e+20
1.4090544e+20
1.4202864e+20
1.4118336e+20
1.4157504e+20
1.4073408e+20
1.4072688e+20
1.4130432e+20
1.4018544e+20
1.4055696e+20
1.3946832e+20
1.3950864e+20
1.3981248e+20
1.4074128e+20
1.3952448e+20
1.396224e+20
1.4103504e+20
1.4081616e+20
1.4094864e+20
1.4031792e+20
1.4127552e+20
1.4167584e+20
1.4105808e+20
1.3992048e+20
1.4030208e+20
1.40976e+20
1.4055264e+20
1.4064336e+20
1.423008e+20
1.4219136e+20
1.4214816e+20
1.415592e+20
1.3908528e+20
1.411416e+20
1.4040432e+20
1.409832e+20
1.40544e+20
1.4070816e+20
1.4101632e+20
1.4026896e+20
1.400256e+20
1.4044752e+20
1.407744e+20
1.4153328e+20
1.4094576e+20
1.4050368e+20
1.4040432e+20
1.4132448e+20
1.4034384e+20
1.4017104e+20
1.4076144e+20
1.4214528e+20
1.4132592e+20
1.4025456e+20
1.405008e+20
1.4221296e+20
1.4017392e+20
1.4002704e+20
1.3926096e+20
1.402416e+20
1.404576e+20
1.402632e+20
1.3928256e+20
1.3967136e+20
1.4080608e+20
1.3946688e+20
1.3954176e+20
1.3940496e+20
1.399536e+20
1.403568e+20
1.4100624e+20
1.4174064e+20
1.4110992e+20
1.3995504e+20
1.3963104e+20
1.3908096e+20
1.3972464e+20
1.3924224e+20
1.3928544e+20
1.3863456e+20
1.3866912e+20
1.3890672e+20
1.3860288e+20
1.3846176e+20
1.395936e+20
1.3969728e+20
1.3835376e+20
1.3794192e+20
1.3807728e+20
1.3856688e+20
1.374696e+20
1.3830048e+20
1.3861296e+20
1.3906944e+20
1.3931136e+20
1.3742928e+20
1.3769424e+20
1.3735008e+20
1.3762512e+20
1.3827312e+20
1.3874544e+20
1.3961808e+20
1.4032368e+20
1.3929552e+20
1.377216e+20
1.394712e+20
1.3859136e+20
1.3952304e+20
1.4013648e+20
1.4083056e+20
1.3855536e+20
1.3955472e+20
1.4051376e+20
1.3985856e+20
1.4015088e+20
1.396008e+20
1.4030064e+20
1.4093136e+20
1.3976352e+20
1.3905072e+20
1.4005296e+20
1.4087808e+20
1.4038416e+20
1.4025024e+20
1.3963248e+20
1.400904e+20
1.3938048e+20
1.391904e+20
1.3925232e+20
1.4041296e+20
1.4015664e+20
1.3801392e+20
1.384416e+20
1.3934592e+20
1.391976e+20
1.3839984e+20
1.389744e+20
1.4042736e+20
1.3999248e+20
1.405296e+20
1.3805856e+20
1.3951008e+20
1.4068224e+20
1.4023152e+20
1.3951008e+20
1.3853664e+20
1.4010336e+20
1.3958352e+20
1.392048e+20
1.4075136e+20
1.3886784e+20
1.3987008e+20
1.3960512e+20
)
;
    }
    top
    {
        type            calculated;
        value           nonuniform List<scalar> 
200
(
1.4100768e+20
1.3950288e+20
1.4047776e+20
1.3922496e+20
1.3963824e+20
1.404936e+20
1.4087808e+20
1.4068656e+20
1.4112432e+20
1.4016384e+20
1.3958784e+20
1.3923936e+20
1.40076e+20
1.4097888e+20
1.4154912e+20
1.4160528e+20
1.4266512e+20
1.4134896e+20
1.4034384e+20
1.409112e+20
1.4210064e+20
1.4080752e+20
1.4011488e+20
1.4037552e+20
1.4084208e+20
1.4120928e+20
1.411632e+20
1.4103504e+20
1.3900032e+20
1.3832496e+20
1.40148e+20
1.3966992e+20
1.404e+20
1.3906944e+20
1.4064912e+20
1.4011632e+20
1.3913136e+20
1.3971312e+20
1.407744e+20
1.3966272e+20
1.4017536e+20
1.4067072e+20
1.402344e+20
1.4168304e+20
1.4134176e+20
1.4044752e+20
1.4086944e+20
1.4049936e+20
1.3924944e+20
1.4094576e+20
1.4108976e+20
1.3897296e+20
1.4087088e+20
1.4106672e+20
1.4127984e+20
1.419984e+20
1.4056416e+20
1.405656e+20
1.4062464e+20
1.4135184e+20
1.403784e+20
1.4114016e+20
1.4091408e+20
1.4038704e+20
1.4004288e+20
1.4110704e+20
1.4018688e+20
1.418544e+20
1.4084928e+20
1.4024736e+20
1.4068944e+20
1.411848e+20
1.421928e+20
1.4077008e+20
1.4060304e+20
1.4088672e+20
1.4048784e+20
1.4075136e+20
1.415016e+20
1.4099184e+20
1.4031504e+20
1.4107104e+20
1.40184e+20
1.4033952e+20
1.3985856e+20
1.400544e+20
1.4044896e+20
1.4089392e+20
1.3958784e+20
1.39644e+20
1.409184e+20
1.4174784e+20
1.404576e+20
1.4006592e+20
1.4075136e+20
1.399968e+20
1.3941216e+20
1.4113296e+20
1.410696e+20
1.3995936e+20
1.413144e+20
1.4171184e+20
1.4083056e+20
1.4079456e+20
1.3997664e+20
1.3974048e+20
1.3986432e+20
1.4005152e+20
1.4065488e+20
1.4049072e+20
1.4083056e+20
1.3991904e+20
1.39716e+20
1.4117616e+20
1.3973904e+20
1.4060736e+20
1.407024e+20
1.3997664e+20
1.4123664e+20
1.3956624e+20
1.395936e+20
1.4063184e+20
1.3982256e+20
1.4005008e+20
1.403784e+20
1.4042592e+20
1.3990608e+20
1.3893264e+20
1.3845024e+20
1.3966704e+20
1.3916448e+20
1.3965984e+20
1.3864464e+20
1.3717584e+20
1.3870224e+20
1.3785984e+20
1.37844e+20
1.3769136e+20
1.3781808e+20
1.3746096e+20
1.3789872e+20
1.3867488e+20
1.3905792e+20
1.3808016e+20
1.3868496e+20
1.382904e+20
1.3859568e+20
1.38744e+20
1.39464e+20
1.3907088e+20
1.3980528e+20
1.391976e+20
1.3859712e+20
1.3848624e+20
1.390968e+20
1.39644e+20
1.4011344e+20
1.3956192e+20
1.3872096e+20
1.4086224e+20
1.3980384e+20
1.4105952e+20
1.4049072e+20
1.3928112e+20
1.4042448e+20
1.4038272e+20
1.3920912e+20
1.3946976e+20
1.3957344e+20
1.4015376e+20
1.3954176e+20
1.403064e+20
1.40652e+20
1.3880592e+20
1.3781808e+20
1.3816944e+20
1.401048e+20
1.3924512e+20
1.3906368e+20
1.4010192e+20
1.3902768e+20
1.387512e+20
1.3955616e+20
1.3994208e+20
1.414152e+20
1.3974048e+20
1.3906944e+20
1.3936176e+20
1.398312e+20
1.3930128e+20
1.3848768e+20
1.390608e+20
1.3915152e+20
1.4041728e+20
1.3979808e+20
1.390104e+20
1.3925376e+20
1.39464e+20
1.3987296e+20
1.4031504e+20
)
;
    }
    inlet
    {
        type            calculated;
        value           nonuniform List<scalar> 5(1.4041872e+20 1.3902768e+20 1.4049216e+20 1.3956336e+20 1.4100768e+20);
    }
    outlet
    {
        type            calculated;
        value           nonuniform List<scalar> 5(1.3960512e+20 1.39752e+20 1.3917168e+20 1.3907088e+20 1.4031504e+20);
    }
    back
    {
        type            symmetry;
    }
    front
    {
        type            symmetry;
    }
}


// ************************************************************************* //
