# Cf ()          
# Time           	patch            	min              	max              	average          
0.0014           	object	1.6062080885e-06	2.8164891182e-04	1.3199655059e-04
