# Probe 0 (5e-06 5e-06 5e-06)
#           Probe                 0
#            Time
            2e-08                 0
            4e-08                 0
            6e-08                 0
            8e-08                 0
            1e-07        4879.93738
          1.2e-07        4879.93738
          1.4e-07        4879.93738
          1.6e-07        4879.93738
          1.8e-07        4879.93738
            2e-07       4754.996342
          2.2e-07       4754.996342
          2.4e-07       4754.996342
          2.6e-07       4754.996342
          2.8e-07       4754.996342
            3e-07       4677.377588
          3.2e-07       4677.377588
          3.4e-07       4677.377588
          3.6e-07       4677.377588
          3.8e-07       4677.377588
            4e-07       4614.115413
          4.2e-07       4614.115413
          4.4e-07       4614.115413
          4.6e-07       4614.115413
          4.8e-07       4614.115413
            5e-07       4564.495461
          5.2e-07       4564.495461
          5.4e-07       4564.495461
          5.6e-07       4564.495461
          5.8e-07       4564.495461
            6e-07       4521.923555
          6.2e-07       4521.923555
          6.4e-07       4521.923555
          6.6e-07       4521.923555
          6.8e-07       4521.923555
            7e-07       4482.754178
          7.2e-07       4482.754178
          7.4e-07       4482.754178
          7.6e-07       4482.754178
          7.8e-07       4482.754178
            8e-07       4448.487898
          8.2e-07       4448.487898
          8.4e-07       4448.487898
          8.6e-07       4448.487898
          8.8e-07       4448.487898
            9e-07       4418.731164
          9.2e-07       4418.731164
          9.4e-07       4418.731164
          9.6e-07       4418.731164
          9.8e-07       4418.731164
            1e-06       4391.472802
         1.02e-06       4391.472802
         1.04e-06       4391.472802
         1.06e-06       4391.472802
         1.08e-06       4391.472802
          1.1e-06       4369.527598
         1.12e-06       4369.527598
         1.14e-06       4369.527598
         1.16e-06       4369.527598
         1.18e-06       4369.527598
          1.2e-06       4345.368178
         1.22e-06       4345.368178
         1.24e-06       4345.368178
         1.26e-06       4345.368178
         1.28e-06       4345.368178
          1.3e-06       4325.303724
         1.32e-06       4325.303724
         1.34e-06       4325.303724
         1.36e-06       4325.303724
         1.38e-06       4325.303724
          1.4e-06       4303.873121
         1.42e-06       4303.873121
         1.44e-06       4303.873121
         1.46e-06       4303.873121
         1.48e-06       4303.873121
          1.5e-06        4288.01389
         1.52e-06        4288.01389
         1.54e-06        4288.01389
         1.56e-06        4288.01389
         1.58e-06        4288.01389
          1.6e-06       4272.063738
         1.62e-06       4272.063738
         1.64e-06       4272.063738
         1.66e-06       4272.063738
         1.68e-06       4272.063738
          1.7e-06       4257.343957
         1.72e-06       4257.343957
         1.74e-06       4257.343957
         1.76e-06       4257.343957
         1.78e-06       4257.343957
          1.8e-06       4242.371983
         1.82e-06       4242.371983
         1.84e-06       4242.371983
         1.86e-06       4242.371983
         1.88e-06       4242.371983
          1.9e-06       4230.099648
         1.92e-06       4230.099648
         1.94e-06       4230.099648
         1.96e-06       4230.099648
         1.98e-06       4230.099648
            2e-06       4218.543884
         2.02e-06       4218.543884
         2.04e-06       4218.543884
         2.06e-06       4218.543884
         2.08e-06       4218.543884
          2.1e-06       4207.994499
         2.12e-06       4207.994499
         2.14e-06       4207.994499
         2.16e-06       4207.994499
         2.18e-06       4207.994499
          2.2e-06       4197.978849
         2.22e-06       4197.978849
         2.24e-06       4197.978849
         2.26e-06       4197.978849
         2.28e-06       4197.978849
          2.3e-06       4190.090713
         2.32e-06       4190.090713
         2.34e-06       4190.090713
         2.36e-06       4190.090713
         2.38e-06       4190.090713
          2.4e-06       4182.491533
         2.42e-06       4182.491533
         2.44e-06       4182.491533
         2.46e-06       4182.491533
         2.48e-06       4182.491533
          2.5e-06       4174.313864
         2.52e-06       4174.313864
         2.54e-06       4174.313864
         2.56e-06       4174.313864
         2.58e-06       4174.313864
          2.6e-06       4165.345067
         2.62e-06       4165.345067
         2.64e-06       4165.345067
         2.66e-06       4165.345067
         2.68e-06       4165.345067
          2.7e-06       4157.347342
         2.72e-06       4157.347342
         2.74e-06       4157.347342
         2.76e-06       4157.347342
         2.78e-06       4157.347342
          2.8e-06       4151.229826
         2.82e-06       4151.229826
         2.84e-06       4151.229826
         2.86e-06       4151.229826
         2.88e-06       4151.229826
          2.9e-06       4146.737652
         2.92e-06       4146.737652
         2.94e-06       4146.737652
         2.96e-06       4146.737652
         2.98e-06       4146.737652
            3e-06       4140.044546
         3.02e-06       4140.044546
         3.04e-06       4140.044546
         3.06e-06       4140.044546
         3.08e-06       4140.044546
          3.1e-06        4134.01887
         3.12e-06        4134.01887
         3.14e-06        4134.01887
         3.16e-06        4134.01887
         3.18e-06        4134.01887
          3.2e-06       4127.031606
         3.22e-06       4127.031606
         3.24e-06       4127.031606
         3.26e-06       4127.031606
         3.28e-06       4127.031606
          3.3e-06       4120.911536
         3.32e-06       4120.911536
         3.34e-06       4120.911536
         3.36e-06       4120.911536
         3.38e-06       4120.911536
          3.4e-06        4115.84842
         3.42e-06        4115.84842
         3.44e-06        4115.84842
         3.46e-06        4115.84842
         3.48e-06        4115.84842
          3.5e-06       4110.444871
         3.52e-06       4110.444871
         3.54e-06       4110.444871
         3.56e-06       4110.444871
         3.58e-06       4110.444871
          3.6e-06       4105.180975
         3.62e-06       4105.180975
         3.64e-06       4105.180975
         3.66e-06       4105.180975
         3.68e-06       4105.180975
          3.7e-06       4100.071083
         3.72e-06       4100.071083
         3.74e-06       4100.071083
         3.76e-06       4100.071083
         3.78e-06       4100.071083
          3.8e-06       4095.187046
         3.82e-06       4095.187046
         3.84e-06       4095.187046
         3.86e-06       4095.187046
         3.88e-06       4095.187046
          3.9e-06       4090.579238
         3.92e-06       4090.579238
         3.94e-06       4090.579238
         3.96e-06       4090.579238
         3.98e-06       4090.579238
            4e-06       4086.053191
         4.02e-06       4086.053191
         4.04e-06       4086.053191
         4.06e-06       4086.053191
         4.08e-06       4086.053191
          4.1e-06       4082.522222
         4.12e-06       4082.522222
         4.14e-06       4082.522222
         4.16e-06       4082.522222
         4.18e-06       4082.522222
          4.2e-06       4078.824084
         4.22e-06       4078.824084
         4.24e-06       4078.824084
         4.26e-06       4078.824084
         4.28e-06       4078.824084
          4.3e-06       4074.779172
         4.32e-06       4074.779172
         4.34e-06       4074.779172
         4.36e-06       4074.779172
         4.38e-06       4074.779172
          4.4e-06        4072.16331
         4.42e-06        4072.16331
         4.44e-06        4072.16331
         4.46e-06        4072.16331
         4.48e-06        4072.16331
          4.5e-06       4069.072784
         4.52e-06       4069.072784
         4.54e-06       4069.072784
         4.56e-06       4069.072784
         4.58e-06       4069.072784
          4.6e-06        4066.38996
         4.62e-06        4066.38996
         4.64e-06        4066.38996
         4.66e-06        4066.38996
         4.68e-06        4066.38996
          4.7e-06       4063.178739
         4.72e-06       4063.178739
         4.74e-06       4063.178739
         4.76e-06       4063.178739
         4.78e-06       4063.178739
          4.8e-06       4060.420192
         4.82e-06       4060.420192
         4.84e-06       4060.420192
         4.86e-06       4060.420192
         4.88e-06       4060.420192
          4.9e-06       4057.855779
         4.92e-06       4057.855779
         4.94e-06       4057.855779
         4.96e-06       4057.855779
         4.98e-06       4057.855779
            5e-06       4053.952537
         5.02e-06       4053.952537
         5.04e-06       4053.952537
         5.06e-06       4053.952537
         5.08e-06       4053.952537
          5.1e-06       4050.121867
         5.12e-06       4050.121867
         5.14e-06       4050.121867
         5.16e-06       4050.121867
         5.18e-06       4050.121867
          5.2e-06       4046.718538
         5.22e-06       4046.718538
         5.24e-06       4046.718538
         5.26e-06       4046.718538
         5.28e-06       4046.718538
          5.3e-06       4043.625717
         5.32e-06       4043.625717
         5.34e-06       4043.625717
         5.36e-06       4043.625717
         5.38e-06       4043.625717
          5.4e-06       4041.155604
         5.42e-06       4041.155604
         5.44e-06       4041.155604
         5.46e-06       4041.155604
         5.48e-06       4041.155604
          5.5e-06       4038.216049
         5.52e-06       4038.216049
         5.54e-06       4038.216049
         5.56e-06       4038.216049
         5.58e-06       4038.216049
          5.6e-06       4035.576655
         5.62e-06       4035.576655
         5.64e-06       4035.576655
         5.66e-06       4035.576655
         5.68e-06       4035.576655
          5.7e-06       4032.856133
         5.72e-06       4032.856133
         5.74e-06       4032.856133
         5.76e-06       4032.856133
         5.78e-06       4032.856133
          5.8e-06       4029.826632
         5.82e-06       4029.826632
         5.84e-06       4029.826632
         5.86e-06       4029.826632
         5.88e-06       4029.826632
          5.9e-06       4027.434259
         5.92e-06       4027.434259
         5.94e-06       4027.434259
         5.96e-06       4027.434259
         5.98e-06       4027.434259
            6e-06       4025.214657
         6.02e-06       4025.214657
         6.04e-06       4025.214657
         6.06e-06       4025.214657
         6.08e-06       4025.214657
          6.1e-06       4023.072153
         6.12e-06       4023.072153
         6.14e-06       4023.072153
         6.16e-06       4023.072153
         6.18e-06       4023.072153
          6.2e-06       4020.265478
         6.22e-06       4020.265478
         6.24e-06       4020.265478
         6.26e-06       4020.265478
         6.28e-06       4020.265478
          6.3e-06       4018.099359
         6.32e-06       4018.099359
         6.34e-06       4018.099359
         6.36e-06       4018.099359
         6.38e-06       4018.099359
          6.4e-06       4015.706759
         6.42e-06       4015.706759
         6.44e-06       4015.706759
         6.46e-06       4015.706759
         6.48e-06       4015.706759
          6.5e-06        4014.03949
         6.52e-06        4014.03949
         6.54e-06        4014.03949
         6.56e-06        4014.03949
         6.58e-06        4014.03949
          6.6e-06        4012.17674
         6.62e-06        4012.17674
         6.64e-06        4012.17674
         6.66e-06        4012.17674
         6.68e-06        4012.17674
          6.7e-06       4010.075041
         6.72e-06       4010.075041
         6.74e-06       4010.075041
         6.76e-06       4010.075041
         6.78e-06       4010.075041
          6.8e-06       4008.476584
         6.82e-06       4008.476584
         6.84e-06       4008.476584
         6.86e-06       4008.476584
         6.88e-06       4008.476584
          6.9e-06        4006.77136
         6.92e-06        4006.77136
         6.94e-06        4006.77136
         6.96e-06        4006.77136
         6.98e-06        4006.77136
            7e-06       4004.149003
         7.02e-06       4004.149003
         7.04e-06       4004.149003
         7.06e-06       4004.149003
         7.08e-06       4004.149003
          7.1e-06        4002.04552
         7.12e-06        4002.04552
         7.14e-06        4002.04552
         7.16e-06        4002.04552
         7.18e-06        4002.04552
          7.2e-06       4000.031468
         7.22e-06       4000.031468
         7.24e-06       4000.031468
         7.26e-06       4000.031468
         7.28e-06       4000.031468
          7.3e-06       3998.814319
         7.32e-06       3998.814319
         7.34e-06       3998.814319
         7.36e-06       3998.814319
         7.38e-06       3998.814319
          7.4e-06       3997.222559
         7.42e-06       3997.222559
         7.44e-06       3997.222559
         7.46e-06       3997.222559
         7.48e-06       3997.222559
          7.5e-06       3995.647374
         7.52e-06       3995.647374
         7.54e-06       3995.647374
         7.56e-06       3995.647374
         7.58e-06       3995.647374
          7.6e-06       3994.211007
         7.62e-06       3994.211007
         7.64e-06       3994.211007
         7.66e-06       3994.211007
         7.68e-06       3994.211007
          7.7e-06       3992.970812
         7.72e-06       3992.970812
         7.74e-06       3992.970812
         7.76e-06       3992.970812
         7.78e-06       3992.970812
          7.8e-06       3991.775994
         7.82e-06       3991.775994
         7.84e-06       3991.775994
         7.86e-06       3991.775994
         7.88e-06       3991.775994
          7.9e-06       3990.806204
         7.92e-06       3990.806204
         7.94e-06       3990.806204
         7.96e-06       3990.806204
         7.98e-06       3990.806204
            8e-06       3989.707479
         8.02e-06       3989.707479
         8.04e-06       3989.707479
         8.06e-06       3989.707479
         8.08e-06       3989.707479
          8.1e-06       3988.279688
         8.12e-06       3988.279688
         8.14e-06       3988.279688
         8.16e-06       3988.279688
         8.18e-06       3988.279688
          8.2e-06       3987.082329
         8.22e-06       3987.082329
         8.24e-06       3987.082329
         8.26e-06       3987.082329
         8.28e-06       3987.082329
          8.3e-06       3985.820225
         8.32e-06       3985.820225
         8.34e-06       3985.820225
         8.36e-06       3985.820225
         8.38e-06       3985.820225
          8.4e-06        3985.05047
         8.42e-06        3985.05047
         8.44e-06        3985.05047
         8.46e-06        3985.05047
         8.48e-06        3985.05047
          8.5e-06       3983.649876
         8.52e-06       3983.649876
         8.54e-06       3983.649876
         8.56e-06       3983.649876
         8.58e-06       3983.649876
          8.6e-06       3982.645343
         8.62e-06       3982.645343
         8.64e-06       3982.645343
         8.66e-06       3982.645343
         8.68e-06       3982.645343
          8.7e-06       3980.738595
         8.72e-06       3980.738595
         8.74e-06       3980.738595
         8.76e-06       3980.738595
         8.78e-06       3980.738595
          8.8e-06        3979.51804
         8.82e-06        3979.51804
         8.84e-06        3979.51804
         8.86e-06        3979.51804
         8.88e-06        3979.51804
          8.9e-06       3978.709679
         8.92e-06       3978.709679
         8.94e-06       3978.709679
         8.96e-06       3978.709679
         8.98e-06       3978.709679
            9e-06       3977.750394
         9.02e-06       3977.750394
         9.04e-06       3977.750394
         9.06e-06       3977.750394
         9.08e-06       3977.750394
          9.1e-06        3976.83992
         9.12e-06        3976.83992
         9.14e-06        3976.83992
         9.16e-06        3976.83992
         9.18e-06        3976.83992
          9.2e-06        3975.96556
         9.22e-06        3975.96556
         9.24e-06        3975.96556
         9.26e-06        3975.96556
         9.28e-06        3975.96556
          9.3e-06       3974.696123
         9.32e-06       3974.696123
         9.34e-06       3974.696123
         9.36e-06       3974.696123
         9.38e-06       3974.696123
          9.4e-06        3973.94095
         9.42e-06        3973.94095
         9.44e-06        3973.94095
         9.46e-06        3973.94095
         9.48e-06        3973.94095
          9.5e-06       3973.075829
         9.52e-06       3973.075829
         9.54e-06       3973.075829
         9.56e-06       3973.075829
         9.58e-06       3973.075829
          9.6e-06       3971.928001
         9.62e-06       3971.928001
         9.64e-06       3971.928001
         9.66e-06       3971.928001
         9.68e-06       3971.928001
          9.7e-06       3970.445392
         9.72e-06       3970.445392
         9.74e-06       3970.445392
         9.76e-06       3970.445392
         9.78e-06       3970.445392
          9.8e-06       3969.371379
         9.82e-06       3969.371379
         9.84e-06       3969.371379
         9.86e-06       3969.371379
         9.88e-06       3969.371379
          9.9e-06       3967.891841
         9.92e-06       3967.891841
         9.94e-06       3967.891841
         9.96e-06       3967.891841
         9.98e-06       3967.891841
            1e-05       3966.436478
        1.002e-05       3966.436478
        1.004e-05       3966.436478
        1.006e-05       3966.436478
        1.008e-05       3966.436478
         1.01e-05       3965.223533
        1.012e-05       3965.223533
        1.014e-05       3965.223533
        1.016e-05       3965.223533
        1.018e-05       3965.223533
         1.02e-05       3963.927102
        1.022e-05       3963.927102
        1.024e-05       3963.927102
        1.026e-05       3963.927102
        1.028e-05       3963.927102
         1.03e-05       3963.086675
        1.032e-05       3963.086675
        1.034e-05       3963.086675
        1.036e-05       3963.086675
        1.038e-05       3963.086675
         1.04e-05       3962.350583
        1.042e-05       3962.350583
        1.044e-05       3962.350583
        1.046e-05       3962.350583
        1.048e-05       3962.350583
         1.05e-05       3960.939075
        1.052e-05       3960.939075
        1.054e-05       3960.939075
        1.056e-05       3960.939075
        1.058e-05       3960.939075
         1.06e-05       3959.649291
        1.062e-05       3959.649291
        1.064e-05       3959.649291
        1.066e-05       3959.649291
        1.068e-05       3959.649291
         1.07e-05       3958.784316
        1.072e-05       3958.784316
        1.074e-05       3958.784316
        1.076e-05       3958.784316
        1.078e-05       3958.784316
         1.08e-05       3957.674855
        1.082e-05       3957.674855
        1.084e-05       3957.674855
        1.086e-05       3957.674855
        1.088e-05       3957.674855
         1.09e-05       3956.676524
        1.092e-05       3956.676524
        1.094e-05       3956.676524
        1.096e-05       3956.676524
        1.098e-05       3956.676524
          1.1e-05       3956.051686
        1.102e-05       3956.051686
        1.104e-05       3956.051686
        1.106e-05       3956.051686
        1.108e-05       3956.051686
         1.11e-05       3955.352976
        1.112e-05       3955.352976
        1.114e-05       3955.352976
        1.116e-05       3955.352976
        1.118e-05       3955.352976
         1.12e-05       3954.155282
        1.122e-05       3954.155282
        1.124e-05       3954.155282
        1.126e-05       3954.155282
        1.128e-05       3954.155282
         1.13e-05       3953.210256
        1.132e-05       3953.210256
        1.134e-05       3953.210256
        1.136e-05       3953.210256
        1.138e-05       3953.210256
         1.14e-05       3952.560859
        1.142e-05       3952.560859
        1.144e-05       3952.560859
        1.146e-05       3952.560859
        1.148e-05       3952.560859
         1.15e-05       3952.276697
        1.152e-05       3952.276697
        1.154e-05       3952.276697
        1.156e-05       3952.276697
        1.158e-05       3952.276697
         1.16e-05       3952.051322
        1.162e-05       3952.051322
        1.164e-05       3952.051322
        1.166e-05       3952.051322
        1.168e-05       3952.051322
         1.17e-05       3951.618736
        1.172e-05       3951.618736
        1.174e-05       3951.618736
        1.176e-05       3951.618736
        1.178e-05       3951.618736
         1.18e-05        3950.96038
        1.182e-05        3950.96038
        1.184e-05        3950.96038
        1.186e-05        3950.96038
        1.188e-05        3950.96038
         1.19e-05       3949.926908
        1.192e-05       3949.926908
        1.194e-05       3949.926908
        1.196e-05       3949.926908
        1.198e-05       3949.926908
          1.2e-05       3948.981477
        1.202e-05       3948.981477
        1.204e-05       3948.981477
        1.206e-05       3948.981477
        1.208e-05       3948.981477
         1.21e-05       3948.158868
        1.212e-05       3948.158868
        1.214e-05       3948.158868
        1.216e-05       3948.158868
        1.218e-05       3948.158868
         1.22e-05       3947.053788
        1.222e-05       3947.053788
        1.224e-05       3947.053788
        1.226e-05       3947.053788
        1.228e-05       3947.053788
         1.23e-05       3945.717882
        1.232e-05       3945.717882
        1.234e-05       3945.717882
        1.236e-05       3945.717882
        1.238e-05       3945.717882
         1.24e-05       3944.931706
        1.242e-05       3944.931706
        1.244e-05       3944.931706
        1.246e-05       3944.931706
        1.248e-05       3944.931706
         1.25e-05       3944.405466
        1.252e-05       3944.405466
        1.254e-05       3944.405466
        1.256e-05       3944.405466
        1.258e-05       3944.405466
         1.26e-05       3943.907046
        1.262e-05       3943.907046
        1.264e-05       3943.907046
        1.266e-05       3943.907046
        1.268e-05       3943.907046
         1.27e-05       3943.683165
        1.272e-05       3943.683165
        1.274e-05       3943.683165
        1.276e-05       3943.683165
        1.278e-05       3943.683165
         1.28e-05       3943.334472
        1.282e-05       3943.334472
        1.284e-05       3943.334472
        1.286e-05       3943.334472
        1.288e-05       3943.334472
         1.29e-05       3943.022116
        1.292e-05       3943.022116
        1.294e-05       3943.022116
        1.296e-05       3943.022116
        1.298e-05       3943.022116
          1.3e-05       3942.541116
        1.302e-05       3942.541116
        1.304e-05       3942.541116
        1.306e-05       3942.541116
        1.308e-05       3942.541116
         1.31e-05       3941.745607
        1.312e-05       3941.745607
        1.314e-05       3941.745607
        1.316e-05       3941.745607
        1.318e-05       3941.745607
         1.32e-05       3941.993177
        1.322e-05       3941.993177
        1.324e-05       3941.993177
        1.326e-05       3941.993177
        1.328e-05       3941.993177
         1.33e-05       3941.484501
        1.332e-05       3941.484501
        1.334e-05       3941.484501
        1.336e-05       3941.484501
        1.338e-05       3941.484501
         1.34e-05       3940.555204
        1.342e-05       3940.555204
        1.344e-05       3940.555204
        1.346e-05       3940.555204
        1.348e-05       3940.555204
         1.35e-05       3939.543224
        1.352e-05       3939.543224
        1.354e-05       3939.543224
        1.356e-05       3939.543224
        1.358e-05       3939.543224
         1.36e-05       3938.962553
        1.362e-05       3938.962553
        1.364e-05       3938.962553
        1.366e-05       3938.962553
        1.368e-05       3938.962553
         1.37e-05       3938.309504
        1.372e-05       3938.309504
        1.374e-05       3938.309504
        1.376e-05       3938.309504
        1.378e-05       3938.309504
         1.38e-05       3937.529891
        1.382e-05       3937.529891
        1.384e-05       3937.529891
        1.386e-05       3937.529891
        1.388e-05       3937.529891
         1.39e-05        3936.78901
        1.392e-05        3936.78901
        1.394e-05        3936.78901
        1.396e-05        3936.78901
        1.398e-05        3936.78901
          1.4e-05        3935.96463
        1.402e-05        3935.96463
        1.404e-05        3935.96463
        1.406e-05        3935.96463
        1.408e-05        3935.96463
         1.41e-05       3935.590951
        1.412e-05       3935.590951
        1.414e-05       3935.590951
        1.416e-05       3935.590951
        1.418e-05       3935.590951
         1.42e-05       3935.094552
        1.422e-05       3935.094552
        1.424e-05       3935.094552
        1.426e-05       3935.094552
        1.428e-05       3935.094552
         1.43e-05       3934.179892
        1.432e-05       3934.179892
        1.434e-05       3934.179892
        1.436e-05       3934.179892
        1.438e-05       3934.179892
         1.44e-05       3933.623538
        1.442e-05       3933.623538
        1.444e-05       3933.623538
        1.446e-05       3933.623538
        1.448e-05       3933.623538
         1.45e-05       3932.989923
        1.452e-05       3932.989923
        1.454e-05       3932.989923
        1.456e-05       3932.989923
        1.458e-05       3932.989923
         1.46e-05       3932.429115
        1.462e-05       3932.429115
        1.464e-05       3932.429115
        1.466e-05       3932.429115
        1.468e-05       3932.429115
         1.47e-05       3931.552964
        1.472e-05       3931.552964
        1.474e-05       3931.552964
        1.476e-05       3931.552964
        1.478e-05       3931.552964
         1.48e-05       3931.202548
        1.482e-05       3931.202548
        1.484e-05       3931.202548
        1.486e-05       3931.202548
        1.488e-05       3931.202548
         1.49e-05       3930.707898
        1.492e-05       3930.707898
        1.494e-05       3930.707898
        1.496e-05       3930.707898
        1.498e-05       3930.707898
          1.5e-05       3930.150896
        1.502e-05       3930.150896
        1.504e-05       3930.150896
        1.506e-05       3930.150896
        1.508e-05       3930.150896
         1.51e-05       3929.665038
        1.512e-05       3929.665038
        1.514e-05       3929.665038
        1.516e-05       3929.665038
        1.518e-05       3929.665038
         1.52e-05       3929.135002
        1.522e-05       3929.135002
        1.524e-05       3929.135002
        1.526e-05       3929.135002
        1.528e-05       3929.135002
         1.53e-05       3928.316065
        1.532e-05       3928.316065
        1.534e-05       3928.316065
        1.536e-05       3928.316065
        1.538e-05       3928.316065
         1.54e-05       3927.553317
        1.542e-05       3927.553317
        1.544e-05       3927.553317
        1.546e-05       3927.553317
        1.548e-05       3927.553317
         1.55e-05       3926.663775
        1.552e-05       3926.663775
        1.554e-05       3926.663775
        1.556e-05       3926.663775
        1.558e-05       3926.663775
         1.56e-05       3926.504002
        1.562e-05       3926.504002
        1.564e-05       3926.504002
        1.566e-05       3926.504002
        1.568e-05       3926.504002
         1.57e-05       3926.025001
        1.572e-05       3926.025001
        1.574e-05       3926.025001
        1.576e-05       3926.025001
        1.578e-05       3926.025001
         1.58e-05       3925.602087
        1.582e-05       3925.602087
        1.584e-05       3925.602087
        1.586e-05       3925.602087
        1.588e-05       3925.602087
         1.59e-05       3925.165825
        1.592e-05       3925.165825
        1.594e-05       3925.165825
        1.596e-05       3925.165825
        1.598e-05       3925.165825
          1.6e-05       3924.509394
        1.602e-05       3924.509394
        1.604e-05       3924.509394
        1.606e-05       3924.509394
        1.608e-05       3924.509394
         1.61e-05       3924.057933
        1.612e-05       3924.057933
        1.614e-05       3924.057933
        1.616e-05       3924.057933
        1.618e-05       3924.057933
         1.62e-05       3923.619257
        1.622e-05       3923.619257
        1.624e-05       3923.619257
        1.626e-05       3923.619257
        1.628e-05       3923.619257
         1.63e-05        3923.24045
        1.632e-05        3923.24045
        1.634e-05        3923.24045
        1.636e-05        3923.24045
        1.638e-05        3923.24045
         1.64e-05       3922.958041
        1.642e-05       3922.958041
        1.644e-05       3922.958041
        1.646e-05       3922.958041
        1.648e-05       3922.958041
         1.65e-05       3922.649074
        1.652e-05       3922.649074
        1.654e-05       3922.649074
        1.656e-05       3922.649074
        1.658e-05       3922.649074
         1.66e-05       3921.998757
        1.662e-05       3921.998757