# Probe 0 (5e-06 5e-06 5e-06)
#           Probe                 0
#            Time
            2e-08                 0
            4e-08                 0
            6e-08                 0
            8e-08                 0
            1e-07       4969.170735
          1.2e-07       4969.170735
          1.4e-07       4969.170735
          1.6e-07       4969.170735
          1.8e-07       4969.170735
            2e-07       4964.771758
          2.2e-07       4964.771758
          2.4e-07       4964.771758
          2.6e-07       4964.771758
          2.8e-07       4964.771758
            3e-07        4935.64437
          3.2e-07        4935.64437
          3.4e-07        4935.64437
          3.6e-07        4935.64437
          3.8e-07        4935.64437
            4e-07       4931.886193
          4.2e-07       4931.886193
          4.4e-07       4931.886193
          4.6e-07       4931.886193
          4.8e-07       4931.886193
            5e-07       4908.549616
          5.2e-07       4908.549616
          5.4e-07       4908.549616
          5.6e-07       4908.549616
          5.8e-07       4908.549616
            6e-07       4901.341464
          6.2e-07       4901.341464
          6.4e-07       4901.341464
          6.6e-07       4901.341464
          6.8e-07       4901.341464
            7e-07        4889.40421
          7.2e-07        4889.40421
          7.4e-07        4889.40421
          7.6e-07        4889.40421
          7.8e-07        4889.40421
            8e-07       4875.684641
          8.2e-07       4875.684641
          8.4e-07       4875.684641
          8.6e-07       4875.684641
          8.8e-07       4875.684641
            9e-07        4855.83457
          9.2e-07        4855.83457
          9.4e-07        4855.83457
          9.6e-07        4855.83457
          9.8e-07        4855.83457
            1e-06       4844.874713
         1.02e-06       4844.874713
         1.04e-06       4844.874713
         1.06e-06       4844.874713
         1.08e-06       4844.874713
          1.1e-06       4822.316837
         1.12e-06       4822.316837
         1.14e-06       4822.316837
         1.16e-06       4822.316837
         1.18e-06       4822.316837
          1.2e-06       4806.014814
         1.22e-06       4806.014814
         1.24e-06       4806.014814
         1.26e-06       4806.014814
         1.28e-06       4806.014814
          1.3e-06       4800.505736
         1.32e-06       4800.505736
         1.34e-06       4800.505736
         1.36e-06       4800.505736
         1.38e-06       4800.505736
          1.4e-06       4777.120602
         1.42e-06       4777.120602
         1.44e-06       4777.120602
         1.46e-06       4777.120602
         1.48e-06       4777.120602
          1.5e-06       4765.478124
         1.52e-06       4765.478124
         1.54e-06       4765.478124
         1.56e-06       4765.478124
         1.58e-06       4765.478124
          1.6e-06       4730.302012
         1.62e-06       4730.302012
         1.64e-06       4730.302012
         1.66e-06       4730.302012
         1.68e-06       4730.302012
          1.7e-06       4719.181711
         1.72e-06       4719.181711
         1.74e-06       4719.181711
         1.76e-06       4719.181711
         1.78e-06       4719.181711
          1.8e-06       4712.144089
         1.82e-06       4712.144089
         1.84e-06       4712.144089
         1.86e-06       4712.144089
         1.88e-06       4712.144089
          1.9e-06       4701.719601
         1.92e-06       4701.719601
         1.94e-06       4701.719601
         1.96e-06       4701.719601
         1.98e-06       4701.719601
            2e-06       4675.513265
         2.02e-06       4675.513265
         2.04e-06       4675.513265
         2.06e-06       4675.513265
         2.08e-06       4675.513265
          2.1e-06       4675.516365
         2.12e-06       4675.516365
         2.14e-06       4675.516365
         2.16e-06       4675.516365
         2.18e-06       4675.516365
          2.2e-06       4663.263277
         2.22e-06       4663.263277
         2.24e-06       4663.263277
         2.26e-06       4663.263277
         2.28e-06       4663.263277
          2.3e-06       4672.541835
         2.32e-06       4672.541835
         2.34e-06       4672.541835
         2.36e-06       4672.541835
         2.38e-06       4672.541835
          2.4e-06       4677.923752
         2.42e-06       4677.923752
         2.44e-06       4677.923752
         2.46e-06       4677.923752
         2.48e-06       4677.923752
          2.5e-06       4668.752462
         2.52e-06       4668.752462
         2.54e-06       4668.752462
         2.56e-06       4668.752462
         2.58e-06       4668.752462
          2.6e-06       4649.275185
         2.62e-06       4649.275185
         2.64e-06       4649.275185
         2.66e-06       4649.275185
         2.68e-06       4649.275185
          2.7e-06       4631.874657
         2.72e-06       4631.874657
         2.74e-06       4631.874657
         2.76e-06       4631.874657
         2.78e-06       4631.874657
          2.8e-06       4626.201116
         2.82e-06       4626.201116
         2.84e-06       4626.201116
         2.86e-06       4626.201116
         2.88e-06       4626.201116
          2.9e-06        4620.54409
         2.92e-06        4620.54409
         2.94e-06        4620.54409
         2.96e-06        4620.54409
         2.98e-06        4620.54409
            3e-06       4612.657723
         3.02e-06       4612.657723
         3.04e-06       4612.657723
         3.06e-06       4612.657723
         3.08e-06       4612.657723
          3.1e-06        4616.11131
         3.12e-06        4616.11131
         3.14e-06        4616.11131
         3.16e-06        4616.11131
         3.18e-06        4616.11131
          3.2e-06       4611.667153
         3.22e-06       4611.667153
         3.24e-06       4611.667153
         3.26e-06       4611.667153
         3.28e-06       4611.667153
          3.3e-06       4604.992037
         3.32e-06       4604.992037
         3.34e-06       4604.992037
         3.36e-06       4604.992037
         3.38e-06       4604.992037
          3.4e-06       4593.420035
         3.42e-06       4593.420035
         3.44e-06       4593.420035
         3.46e-06       4593.420035
         3.48e-06       4593.420035
          3.5e-06       4589.363118
         3.52e-06       4589.363118
         3.54e-06       4589.363118
         3.56e-06       4589.363118
         3.58e-06       4589.363118
          3.6e-06       4575.394151
         3.62e-06       4575.394151
         3.64e-06       4575.394151
         3.66e-06       4575.394151
         3.68e-06       4575.394151
          3.7e-06       4545.882819
         3.72e-06       4545.882819
         3.74e-06       4545.882819
         3.76e-06       4545.882819
         3.78e-06       4545.882819
          3.8e-06       4529.744768
         3.82e-06       4529.744768
         3.84e-06       4529.744768
         3.86e-06       4529.744768
         3.88e-06       4529.744768
          3.9e-06       4533.443612
         3.92e-06       4533.443612
         3.94e-06       4533.443612
         3.96e-06       4533.443612
         3.98e-06       4533.443612
            4e-06       4526.864634
         4.02e-06       4526.864634
         4.04e-06       4526.864634
         4.06e-06       4526.864634
         4.08e-06       4526.864634
          4.1e-06       4536.398813
         4.12e-06       4536.398813
         4.14e-06       4536.398813
         4.16e-06       4536.398813
         4.18e-06       4536.398813
          4.2e-06       4511.905076
         4.22e-06       4511.905076
         4.24e-06       4511.905076
         4.26e-06       4511.905076
         4.28e-06       4511.905076
          4.3e-06       4506.905138
         4.32e-06       4506.905138
         4.34e-06       4506.905138
         4.36e-06       4506.905138
         4.38e-06       4506.905138
          4.4e-06       4522.078446
         4.42e-06       4522.078446
         4.44e-06       4522.078446
         4.46e-06       4522.078446
         4.48e-06       4522.078446
          4.5e-06       4511.739467
         4.52e-06       4511.739467
         4.54e-06       4511.739467
         4.56e-06       4511.739467
         4.58e-06       4511.739467
          4.6e-06        4506.31841
         4.62e-06        4506.31841
         4.64e-06        4506.31841
         4.66e-06        4506.31841
         4.68e-06        4506.31841
          4.7e-06       4484.278461
         4.72e-06       4484.278461
         4.74e-06       4484.278461
         4.76e-06       4484.278461
         4.78e-06       4484.278461
          4.8e-06       4478.912874
         4.82e-06       4478.912874
         4.84e-06       4478.912874
         4.86e-06       4478.912874
         4.88e-06       4478.912874
          4.9e-06        4477.34036
         4.92e-06        4477.34036
         4.94e-06        4477.34036
         4.96e-06        4477.34036
         4.98e-06        4477.34036
            5e-06       4470.561463
         5.02e-06       4470.561463
         5.04e-06       4470.561463
         5.06e-06       4470.561463
         5.08e-06       4470.561463
          5.1e-06       4489.977302
         5.12e-06       4489.977302
         5.14e-06       4489.977302
         5.16e-06       4489.977302
         5.18e-06       4489.977302
          5.2e-06       4477.322064
         5.22e-06       4477.322064
         5.24e-06       4477.322064
         5.26e-06       4477.322064
         5.28e-06       4477.322064
          5.3e-06       4460.631333
         5.32e-06       4460.631333
         5.34e-06       4460.631333
         5.36e-06       4460.631333
         5.38e-06       4460.631333
          5.4e-06       4451.385694
         5.42e-06       4451.385694
         5.44e-06       4451.385694
         5.46e-06       4451.385694
         5.48e-06       4451.385694
          5.5e-06       4446.095326
         5.52e-06       4446.095326
         5.54e-06       4446.095326
         5.56e-06       4446.095326
         5.58e-06       4446.095326
          5.6e-06       4432.799759
         5.62e-06       4432.799759
         5.64e-06       4432.799759
         5.66e-06       4432.799759
         5.68e-06       4432.799759
          5.7e-06       4429.698595
         5.72e-06       4429.698595
         5.74e-06       4429.698595
         5.76e-06       4429.698595
         5.78e-06       4429.698595
          5.8e-06       4421.722649
         5.82e-06       4421.722649
         5.84e-06       4421.722649
         5.86e-06       4421.722649
         5.88e-06       4421.722649
          5.9e-06       4421.575452
         5.92e-06       4421.575452
         5.94e-06       4421.575452
         5.96e-06       4421.575452
         5.98e-06       4421.575452
            6e-06        4427.43507
         6.02e-06        4427.43507
         6.04e-06        4427.43507
         6.06e-06        4427.43507
         6.08e-06        4427.43507
          6.1e-06       4431.972402
         6.12e-06       4431.972402
         6.14e-06       4431.972402
         6.16e-06       4431.972402
         6.18e-06       4431.972402
          6.2e-06       4413.004994
         6.22e-06       4413.004994
         6.24e-06       4413.004994
         6.26e-06       4413.004994
         6.28e-06       4413.004994
          6.3e-06       4409.819349
         6.32e-06       4409.819349
         6.34e-06       4409.819349
         6.36e-06       4409.819349
         6.38e-06       4409.819349
          6.4e-06       4405.853814
         6.42e-06       4405.853814
         6.44e-06       4405.853814
         6.46e-06       4405.853814
         6.48e-06       4405.853814
          6.5e-06       4383.578652
         6.52e-06       4383.578652
         6.54e-06       4383.578652
         6.56e-06       4383.578652
         6.58e-06       4383.578652
          6.6e-06        4389.11438
         6.62e-06        4389.11438
         6.64e-06        4389.11438
         6.66e-06        4389.11438
         6.68e-06        4389.11438
          6.7e-06       4393.888776
         6.72e-06       4393.888776
         6.74e-06       4393.888776
         6.76e-06       4393.888776
         6.78e-06       4393.888776
          6.8e-06        4402.83254
         6.82e-06        4402.83254
         6.84e-06        4402.83254
         6.86e-06        4402.83254
         6.88e-06        4402.83254
          6.9e-06       4393.865474
         6.92e-06       4393.865474
         6.94e-06       4393.865474
         6.96e-06       4393.865474
         6.98e-06       4393.865474
            7e-06       4384.116655
         7.02e-06       4384.116655
         7.04e-06       4384.116655
         7.06e-06       4384.116655
         7.08e-06       4384.116655
          7.1e-06       4363.925348
         7.12e-06       4363.925348
         7.14e-06       4363.925348
         7.16e-06       4363.925348
         7.18e-06       4363.925348
          7.2e-06       4356.257417
         7.22e-06       4356.257417
         7.24e-06       4356.257417
         7.26e-06       4356.257417
         7.28e-06       4356.257417
          7.3e-06       4365.688148
         7.32e-06       4365.688148
         7.34e-06       4365.688148
         7.36e-06       4365.688148
         7.38e-06       4365.688148
          7.4e-06       4368.989534
         7.42e-06       4368.989534
         7.44e-06       4368.989534
         7.46e-06       4368.989534
         7.48e-06       4368.989534
          7.5e-06       4357.168476
         7.52e-06       4357.168476
         7.54e-06       4357.168476
         7.56e-06       4357.168476
         7.58e-06       4357.168476
          7.6e-06       4363.606517
         7.62e-06       4363.606517
         7.64e-06       4363.606517
         7.66e-06       4363.606517
         7.68e-06       4363.606517
          7.7e-06       4358.025091
         7.72e-06       4358.025091
         7.74e-06       4358.025091
         7.76e-06       4358.025091
         7.78e-06       4358.025091
          7.8e-06       4366.900829
         7.82e-06       4366.900829
         7.84e-06       4366.900829
         7.86e-06       4366.900829
         7.88e-06       4366.900829
          7.9e-06       4357.371527
         7.92e-06       4357.371527
         7.94e-06       4357.371527
         7.96e-06       4357.371527
         7.98e-06       4357.371527
            8e-06       4334.097566
         8.02e-06       4334.097566
         8.04e-06       4334.097566
         8.06e-06       4334.097566
         8.08e-06       4334.097566
          8.1e-06        4343.27175
         8.12e-06        4343.27175
         8.14e-06        4343.27175
         8.16e-06        4343.27175
         8.18e-06        4343.27175
          8.2e-06       4351.055886
         8.22e-06       4351.055886
         8.24e-06       4351.055886
         8.26e-06       4351.055886
         8.28e-06       4351.055886
          8.3e-06       4329.774639
         8.32e-06       4329.774639
         8.34e-06       4329.774639
         8.36e-06       4329.774639
         8.38e-06       4329.774639
          8.4e-06       4329.225265
         8.42e-06       4329.225265
         8.44e-06       4329.225265
         8.46e-06       4329.225265
         8.48e-06       4329.225265
          8.5e-06       4321.483881
         8.52e-06       4321.483881
         8.54e-06       4321.483881
         8.56e-06       4321.483881
         8.58e-06       4321.483881
          8.6e-06       4314.132183
         8.62e-06       4314.132183
         8.64e-06       4314.132183
         8.66e-06       4314.132183
         8.68e-06       4314.132183
          8.7e-06        4299.08367
         8.72e-06        4299.08367
         8.74e-06        4299.08367
         8.76e-06        4299.08367
         8.78e-06        4299.08367
          8.8e-06       4311.326287
         8.82e-06       4311.326287
         8.84e-06       4311.326287
         8.86e-06       4311.326287
         8.88e-06       4311.326287
          8.9e-06       4312.736517
         8.92e-06       4312.736517
         8.94e-06       4312.736517
         8.96e-06       4312.736517
         8.98e-06       4312.736517
            9e-06       4311.311292
         9.02e-06       4311.311292
         9.04e-06       4311.311292
         9.06e-06       4311.311292
         9.08e-06       4311.311292
          9.1e-06       4308.651037
         9.12e-06       4308.651037
         9.14e-06       4308.651037
         9.16e-06       4308.651037
         9.18e-06       4308.651037
          9.2e-06       4309.943484
         9.22e-06       4309.943484
         9.24e-06       4309.943484
         9.26e-06       4309.943484
         9.28e-06       4309.943484
          9.3e-06       4296.453825
         9.32e-06       4296.453825
         9.34e-06       4296.453825
         9.36e-06       4296.453825
         9.38e-06       4296.453825
          9.4e-06       4295.759708
         9.42e-06       4295.759708
         9.44e-06       4295.759708
         9.46e-06       4295.759708
         9.48e-06       4295.759708
          9.5e-06       4294.020206
         9.52e-06       4294.020206
         9.54e-06       4294.020206
         9.56e-06       4294.020206
         9.58e-06       4294.020206
          9.6e-06       4281.779785
         9.62e-06       4281.779785
         9.64e-06       4281.779785
         9.66e-06       4281.779785
         9.68e-06       4281.779785
          9.7e-06        4281.43907
         9.72e-06        4281.43907
         9.74e-06        4281.43907
         9.76e-06        4281.43907
         9.78e-06        4281.43907
          9.8e-06       4273.876072
         9.82e-06       4273.876072
         9.84e-06       4273.876072
         9.86e-06       4273.876072
         9.88e-06       4273.876072
          9.9e-06       4272.087673
         9.92e-06       4272.087673
         9.94e-06       4272.087673
         9.96e-06       4272.087673
         9.98e-06       4272.087673
            1e-05       4283.416706
        1.002e-05       4283.416706
        1.004e-05       4283.416706
        1.006e-05       4283.416706
        1.008e-05       4283.416706
         1.01e-05       4280.332806
        1.012e-05       4280.332806
        1.014e-05       4280.332806
        1.016e-05       4280.332806
        1.018e-05       4280.332806
         1.02e-05       4283.676939
        1.022e-05       4283.676939
        1.024e-05       4283.676939
        1.026e-05       4283.676939
        1.028e-05       4283.676939
         1.03e-05       4283.266223
        1.032e-05       4283.266223
        1.034e-05       4283.266223
        1.036e-05       4283.266223
        1.038e-05       4283.266223
         1.04e-05        4283.49352
        1.042e-05        4283.49352
        1.044e-05        4283.49352
        1.046e-05        4283.49352
        1.048e-05        4283.49352
         1.05e-05       4276.980165
        1.052e-05       4276.980165
        1.054e-05       4276.980165
        1.056e-05       4276.980165
        1.058e-05       4276.980165
         1.06e-05       4261.220788
        1.062e-05       4261.220788
        1.064e-05       4261.220788
        1.066e-05       4261.220788
        1.068e-05       4261.220788
         1.07e-05       4262.171276
        1.072e-05       4262.171276
        1.074e-05       4262.171276
        1.076e-05       4262.171276
        1.078e-05       4262.171276
         1.08e-05       4254.071157
        1.082e-05       4254.071157
        1.084e-05       4254.071157
        1.086e-05       4254.071157
        1.088e-05       4254.071157
         1.09e-05       4257.827183
        1.092e-05       4257.827183
        1.094e-05       4257.827183
        1.096e-05       4257.827183
        1.098e-05       4257.827183
          1.1e-05       4260.696878
        1.102e-05       4260.696878
        1.104e-05       4260.696878
        1.106e-05       4260.696878
        1.108e-05       4260.696878
         1.11e-05       4263.036268
        1.112e-05       4263.036268
        1.114e-05       4263.036268
        1.116e-05       4263.036268
        1.118e-05       4263.036268
         1.12e-05       4236.637734
        1.122e-05       4236.637734
        1.124e-05       4236.637734
        1.126e-05       4236.637734
        1.128e-05       4236.637734
         1.13e-05       4230.035244
        1.132e-05       4230.035244
        1.134e-05       4230.035244
        1.136e-05       4230.035244
        1.138e-05       4230.035244
         1.14e-05       4233.723906
        1.142e-05       4233.723906
        1.144e-05       4233.723906
        1.146e-05       4233.723906
        1.148e-05       4233.723906
         1.15e-05       4236.579155
        1.152e-05       4236.579155
        1.154e-05       4236.579155
        1.156e-05       4236.579155
        1.158e-05       4236.579155
         1.16e-05       4244.405626
        1.162e-05       4244.405626
        1.164e-05       4244.405626
        1.166e-05       4244.405626
        1.168e-05       4244.405626
         1.17e-05       4246.401308
        1.172e-05       4246.401308
        1.174e-05       4246.401308
        1.176e-05       4246.401308
        1.178e-05       4246.401308
         1.18e-05       4239.069488
        1.182e-05       4239.069488
        1.184e-05       4239.069488
        1.186e-05       4239.069488
        1.188e-05       4239.069488
         1.19e-05       4232.422566
        1.192e-05       4232.422566
        1.194e-05       4232.422566
        1.196e-05       4232.422566
        1.198e-05       4232.422566
          1.2e-05       4231.338014
        1.202e-05       4231.338014
        1.204e-05       4231.338014
        1.206e-05       4231.338014
        1.208e-05       4231.338014
         1.21e-05       4240.622826
        1.212e-05       4240.622826
        1.214e-05       4240.622826
        1.216e-05       4240.622826
        1.218e-05       4240.622826
         1.22e-05       4239.734177
        1.222e-05       4239.734177
        1.224e-05       4239.734177
        1.226e-05       4239.734177
        1.228e-05       4239.734177
         1.23e-05       4245.304579
        1.232e-05       4245.304579
        1.234e-05       4245.304579
        1.236e-05       4245.304579
        1.238e-05       4245.304579
         1.24e-05       4218.703433
        1.242e-05       4218.703433
        1.244e-05       4218.703433
        1.246e-05       4218.703433
        1.248e-05       4218.703433
         1.25e-05        4207.64571
        1.252e-05        4207.64571
        1.254e-05        4207.64571
        1.256e-05        4207.64571
        1.258e-05        4207.64571
         1.26e-05       4217.678436
        1.262e-05       4217.678436
        1.264e-05       4217.678436
        1.266e-05       4217.678436
        1.268e-05       4217.678436
         1.27e-05       4216.691505
        1.272e-05       4216.691505
        1.274e-05       4216.691505
        1.276e-05       4216.691505
        1.278e-05       4216.691505
         1.28e-05       4218.579847
        1.282e-05       4218.579847
        1.284e-05       4218.579847
        1.286e-05       4218.579847
        1.288e-05       4218.579847
         1.29e-05       4207.340082
        1.292e-05       4207.340082
        1.294e-05       4207.340082
        1.296e-05       4207.340082
        1.298e-05       4207.340082
          1.3e-05       4210.937159
        1.302e-05       4210.937159
        1.304e-05       4210.937159
        1.306e-05       4210.937159
        1.308e-05       4210.937159
         1.31e-05       4204.193242
        1.312e-05       4204.193242
        1.314e-05       4204.193242
        1.316e-05       4204.193242
        1.318e-05       4204.193242
         1.32e-05       4205.357131
        1.322e-05       4205.357131
        1.324e-05       4205.357131
        1.326e-05       4205.357131
        1.328e-05       4205.357131
         1.33e-05       4208.220628
        1.332e-05       4208.220628
        1.334e-05       4208.220628
        1.336e-05       4208.220628
        1.338e-05       4208.220628
         1.34e-05       4207.507449
        1.342e-05       4207.507449
        1.344e-05       4207.507449
        1.346e-05       4207.507449
        1.348e-05       4207.507449
         1.35e-05       4213.165377
        1.352e-05       4213.165377
        1.354e-05       4213.165377
        1.356e-05       4213.165377
        1.358e-05       4213.165377
         1.36e-05       4207.920123
        1.362e-05       4207.920123
        1.364e-05       4207.920123
        1.366e-05       4207.920123
        1.368e-05       4207.920123
         1.37e-05       4201.575385
        1.372e-05       4201.575385
        1.374e-05       4201.575385
        1.376e-05       4201.575385
        1.378e-05       4201.575385
         1.38e-05       4184.395084
        1.382e-05       4184.395084
        1.384e-05       4184.395084
        1.386e-05       4184.395084
        1.388e-05       4184.395084
         1.39e-05       4176.349632
        1.392e-05       4176.349632
        1.394e-05       4176.349632
        1.396e-05       4176.349632
        1.398e-05       4176.349632
          1.4e-05       4186.177179
        1.402e-05       4186.177179
        1.404e-05       4186.177179
        1.406e-05       4186.177179
        1.408e-05       4186.177179
         1.41e-05       4188.778716
        1.412e-05       4188.778716
        1.414e-05       4188.778716
        1.416e-05       4188.778716
        1.418e-05       4188.778716
         1.42e-05       4188.178015
        1.422e-05       4188.178015
        1.424e-05       4188.178015
        1.426e-05       4188.178015
        1.428e-05       4188.178015
         1.43e-05       4191.329695
        1.432e-05       4191.329695
        1.434e-05       4191.329695
        1.436e-05       4191.329695
        1.438e-05       4191.329695
         1.44e-05       4184.508914
        1.442e-05       4184.508914
        1.444e-05       4184.508914
        1.446e-05       4184.508914
        1.448e-05       4184.508914
         1.45e-05       4175.173971
        1.452e-05       4175.173971
        1.454e-05       4175.173971
        1.456e-05       4175.173971
        1.458e-05       4175.173971
         1.46e-05       4165.353316
        1.462e-05       4165.353316
        1.464e-05       4165.353316
        1.466e-05       4165.353316
        1.468e-05       4165.353316
         1.47e-05       4165.071863
        1.472e-05       4165.071863
        1.474e-05       4165.071863
        1.476e-05       4165.071863
        1.478e-05       4165.071863
         1.48e-05       4167.660327
        1.482e-05       4167.660327
        1.484e-05       4167.660327
        1.486e-05       4167.660327
        1.488e-05       4167.660327
         1.49e-05       4172.497816
        1.492e-05       4172.497816
        1.494e-05       4172.497816
        1.496e-05       4172.497816
        1.498e-05       4172.497816
          1.5e-05       4171.382453
        1.502e-05       4171.382453
        1.504e-05       4171.382453
        1.506e-05       4171.382453
        1.508e-05       4171.382453
         1.51e-05       4179.180714
        1.512e-05       4179.180714
        1.514e-05       4179.180714
        1.516e-05       4179.180714
        1.518e-05       4179.180714
         1.52e-05       4174.013646
        1.522e-05       4174.013646
        1.524e-05       4174.013646
        1.526e-05       4174.013646
        1.528e-05       4174.013646
         1.53e-05       4175.411526
        1.532e-05       4175.411526
        1.534e-05       4175.411526
        1.536e-05       4175.411526
        1.538e-05       4175.411526
         1.54e-05       4170.513488
        1.542e-05       4170.513488
        1.544e-05       4170.513488
        1.546e-05       4170.513488
        1.548e-05       4170.513488
         1.55e-05       4164.852369
        1.552e-05       4164.852369
        1.554e-05       4164.852369
        1.556e-05       4164.852369
        1.558e-05       4164.852369
         1.56e-05       4159.595706
        1.562e-05       4159.595706
        1.564e-05       4159.595706
        1.566e-05       4159.595706
        1.568e-05       4159.595706
         1.57e-05       4159.319574
        1.572e-05       4159.319574
        1.574e-05       4159.319574
        1.576e-05       4159.319574
        1.578e-05       4159.319574
         1.58e-05       4156.563485
        1.582e-05       4156.563485
        1.584e-05       4156.563485
        1.586e-05       4156.563485
        1.588e-05       4156.563485
         1.59e-05       4162.161513
        1.592e-05       4162.161513
        1.594e-05       4162.161513
        1.596e-05       4162.161513
        1.598e-05       4162.161513
          1.6e-05       4145.845732
        1.602e-05       4145.845732
        1.604e-05       4145.845732
        1.606e-05       4145.845732
        1.608e-05       4145.845732
         1.61e-05       4143.176022
        1.612e-05       4143.176022
        1.614e-05       4143.176022
        1.616e-05       4143.176022
        1.618e-05       4143.176022
         1.62e-05       4132.519932
        1.622e-05       4132.519932
        1.624e-05       4132.519932
        1.626e-05       4132.519932
        1.628e-05       4132.519932
         1.63e-05       4141.477906
        1.632e-05       4141.477906
        1.634e-05       4141.477906
        1.636e-05       4141.477906
        1.638e-05       4141.477906
         1.64e-05       4151.654409
        1.642e-05       4151.654409
        1.644e-05       4151.654409
        1.646e-05       4151.654409
        1.648e-05       4151.654409
         1.65e-05       4156.354497
        1.652e-05       4156.354497
        1.654e-05       4156.354497
        1.656e-05       4156.354497
        1.658e-05       4156.354497
         1.66e-05       4152.276664
        1.662e-05       4152.276664