# Probe 0 (5e-06 5e-06 5e-06)
#           Probe                 0
#            Time
            2e-08       4995.324587
            4e-08       4997.783267
            6e-08       4996.674661
            8e-08       4991.304451
            1e-07       4985.623563
          1.2e-07       4955.866578
          1.4e-07       4958.361007
          1.6e-07       4956.371774
          1.8e-07       4953.384406
            2e-07       4952.125775
          2.2e-07       4947.744871
          2.4e-07       4943.616247
          2.6e-07       4943.293089
          2.8e-07       4942.910981
            3e-07       4941.042637
          3.2e-07       4921.134517
          3.4e-07        4917.91312
          3.6e-07       4915.735028
          3.8e-07       4915.458372
            4e-07       4913.452207
          4.2e-07       4904.769541
          4.4e-07       4903.367942
          4.6e-07       4902.868656
          4.8e-07       4901.932247
            5e-07       4901.552771
          5.2e-07       4887.102982
          5.4e-07       4882.837932
          5.6e-07       4880.199387
          5.8e-07       4880.574045
            6e-07       4879.706567
          6.2e-07       4874.434229
          6.4e-07       4871.421727
          6.6e-07       4867.894936
          6.8e-07       4863.951749
            7e-07       4860.282331
          7.2e-07       4849.273567
          7.4e-07       4846.733527
          7.6e-07       4844.540539
          7.8e-07       4844.563222
            8e-07       4842.937433
          8.2e-07       4842.048274
          8.4e-07       4840.431066
          8.6e-07       4837.656919
          8.8e-07       4834.109061
            9e-07       4831.037045
          9.2e-07       4813.376774
          9.4e-07       4814.886573
          9.6e-07       4813.803501
          9.8e-07       4812.558987
            1e-06       4813.379358
         1.02e-06       4810.908903
         1.04e-06       4809.115883
         1.06e-06        4806.23456
         1.08e-06       4807.086704
          1.1e-06        4806.85735
         1.12e-06       4796.378782
         1.14e-06       4798.195204
         1.16e-06       4796.408558
         1.18e-06       4793.301334
          1.2e-06       4792.324617
         1.22e-06       4774.194835
         1.24e-06       4778.195833
         1.26e-06       4776.369306
         1.28e-06       4774.212325
          1.3e-06       4773.467759
         1.32e-06       4771.787778
         1.34e-06       4768.202727
         1.36e-06       4766.222158
         1.38e-06       4764.672054
          1.4e-06       4763.438528
         1.42e-06       4752.825682
         1.44e-06        4753.45162
         1.46e-06       4751.798821
         1.48e-06       4751.138502
          1.5e-06       4751.117569
         1.52e-06       4756.744006
         1.54e-06       4754.993479
         1.56e-06       4754.957355
         1.58e-06       4753.323559
          1.6e-06       4753.333702
         1.62e-06       4743.754617
         1.64e-06       4743.783374
         1.66e-06       4741.076038
         1.68e-06        4741.63311
          1.7e-06       4740.174532
         1.72e-06       4729.035307
         1.74e-06       4727.401388
         1.76e-06       4725.751279
         1.78e-06       4725.440664
          1.8e-06       4722.909038
         1.82e-06        4708.15903
         1.84e-06       4709.287261
         1.86e-06       4709.668833
         1.88e-06       4710.960492
          1.9e-06       4711.036969
         1.92e-06       4713.411785
         1.94e-06       4714.854907
         1.96e-06       4715.328255
         1.98e-06       4713.213499
            2e-06       4710.069612
         2.02e-06       4692.892678
         2.04e-06       4693.719182
         2.06e-06       4694.444801
         2.08e-06       4693.574994
          2.1e-06       4692.591531
         2.12e-06       4691.486819
         2.14e-06       4686.753703
         2.16e-06       4686.433799
         2.18e-06       4686.196716
          2.2e-06       4683.575215
         2.22e-06       4669.725379
         2.24e-06       4667.576704
         2.26e-06        4666.86064
         2.28e-06       4665.787432
          2.3e-06       4663.428426
         2.32e-06       4649.345044
         2.34e-06       4646.382062
         2.36e-06       4646.042034
         2.38e-06       4644.466361
          2.4e-06       4646.023464
         2.42e-06       4649.584901
         2.44e-06       4647.221958
         2.46e-06       4644.502763
         2.48e-06       4639.921917
          2.5e-06       4636.846876
         2.52e-06       4629.745177
         2.54e-06       4632.561455
         2.56e-06        4634.44259
         2.58e-06       4633.687572
          2.6e-06       4632.538832
         2.62e-06       4632.455237
         2.64e-06       4631.118378
         2.66e-06       4630.246584
         2.68e-06        4629.07639
          2.7e-06       4628.239203
         2.72e-06       4628.704039
         2.74e-06        4625.56293
         2.76e-06       4626.042359
         2.78e-06       4622.941292
          2.8e-06       4619.541507
         2.82e-06       4611.928078
         2.84e-06       4613.282644
         2.86e-06       4615.201397
         2.88e-06       4615.073337
          2.9e-06       4613.968167
         2.92e-06       4616.286826
         2.94e-06        4614.30921
         2.96e-06       4610.555701
         2.98e-06       4605.880556
            3e-06       4605.009492
         3.02e-06       4605.226468
         3.04e-06       4600.994928
         3.06e-06       4597.048478
         3.08e-06       4592.253586
          3.1e-06       4589.601893
         3.12e-06       4582.043733
         3.14e-06       4583.675361
         3.16e-06       4582.386543
         3.18e-06       4579.132243
          3.2e-06        4576.98642
         3.22e-06       4567.937463
         3.24e-06       4568.980848
         3.26e-06       4569.015756
         3.28e-06       4569.016504
          3.3e-06       4567.446998
         3.32e-06       4567.692498
         3.34e-06       4568.033159
         3.36e-06       4567.921367
         3.38e-06       4565.958738
          3.4e-06       4563.334773
         3.42e-06       4556.440456
         3.44e-06       4555.884609
         3.46e-06       4554.984229
         3.48e-06       4553.797047
          3.5e-06       4553.156973
         3.52e-06       4555.221697
         3.54e-06        4552.89474
         3.56e-06       4551.709642
         3.58e-06       4549.506391
          3.6e-06       4549.657004
         3.62e-06       4557.296494
         3.64e-06       4555.227603
         3.66e-06       4554.612251
         3.68e-06       4556.017695
          3.7e-06       4556.638817
         3.72e-06       4555.501022
         3.74e-06       4556.803316
         3.76e-06       4554.467925
         3.78e-06       4554.228982
          3.8e-06       4555.015639
         3.82e-06        4553.39245
         3.84e-06       4547.657136
         3.86e-06       4543.241619
         3.88e-06       4541.361563
          3.9e-06       4540.648686
         3.92e-06       4535.503571
         3.94e-06        4538.09136
         3.96e-06       4537.888574
         3.98e-06       4536.279734
            4e-06       4533.122264
         4.02e-06       4521.739422
         4.04e-06       4518.367353
         4.06e-06       4516.153158
         4.08e-06       4517.563656
          4.1e-06       4517.320867
         4.12e-06       4515.993888
         4.14e-06        4521.47987
         4.16e-06       4521.985387
         4.18e-06       4522.963662
          4.2e-06       4523.608857
         4.22e-06       4518.010457
         4.24e-06       4518.543459
         4.26e-06       4517.416282
         4.28e-06       4516.743047
          4.3e-06       4515.783919
         4.32e-06       4504.713206
         4.34e-06       4500.482901
         4.36e-06       4500.068798
         4.38e-06       4498.960572
          4.4e-06       4498.351894
         4.42e-06       4494.787397
         4.44e-06       4496.402118
         4.46e-06        4495.49448
         4.48e-06       4496.839667
          4.5e-06       4496.495766
         4.52e-06       4498.532613
         4.54e-06       4493.591915
         4.56e-06       4493.923328
         4.58e-06       4492.604247
          4.6e-06       4492.430449
         4.62e-06       4500.728736
         4.64e-06       4500.826277
         4.66e-06       4498.044749
         4.68e-06       4498.489756
          4.7e-06        4497.80101
         4.72e-06       4498.080316
         4.74e-06       4494.841524
         4.76e-06       4494.407626
         4.78e-06        4494.12435
          4.8e-06       4493.273887
         4.82e-06       4490.332997
         4.84e-06        4488.74691
         4.86e-06       4487.891818
         4.88e-06       4487.041817
          4.9e-06       4486.702436
         4.92e-06       4488.440571
         4.94e-06       4490.786645
         4.96e-06       4487.092671
         4.98e-06       4483.895066
            5e-06       4479.462112
         5.02e-06        4461.27816
         5.04e-06       4459.228151
         5.06e-06       4458.276521
         5.08e-06       4456.247581
          5.1e-06       4454.791153
         5.12e-06       4453.837614
         5.14e-06       4452.888631
         5.16e-06       4452.803126
         5.18e-06       4452.290927
          5.2e-06       4452.633788
         5.22e-06       4451.561356
         5.24e-06       4454.917186
         5.26e-06       4455.208481
         5.28e-06       4455.553325
          5.3e-06        4453.99162
         5.32e-06       4453.318263
         5.34e-06       4452.497064
         5.36e-06        4451.41285
         5.38e-06       4451.883418
          5.4e-06       4452.268941
         5.42e-06       4449.475768
         5.44e-06         4448.2471
         5.46e-06       4447.301036
         5.48e-06       4446.680827
          5.5e-06       4446.282639
         5.52e-06       4442.384105
         5.54e-06       4445.446854
         5.56e-06       4447.993321
         5.58e-06        4447.02429
          5.6e-06       4446.508022
         5.62e-06       4440.766019
         5.64e-06       4440.098434
         5.66e-06       4440.376155
         5.68e-06       4439.318923
          5.7e-06       4439.567837
         5.72e-06       4440.835491
         5.74e-06       4440.034418
         5.76e-06       4438.241226
         5.78e-06       4435.475294
          5.8e-06        4434.70808
         5.82e-06       4433.907314
         5.84e-06       4430.824328
         5.86e-06       4429.184475
         5.88e-06       4427.433653
          5.9e-06       4426.680345
         5.92e-06       4417.437938
         5.94e-06       4417.521635
         5.96e-06        4416.10549
         5.98e-06        4415.32497
            6e-06       4415.156168
         6.02e-06       4414.337921
         6.04e-06        4409.81819
         6.06e-06       4406.940606
         6.08e-06       4406.141112
          6.1e-06       4404.709068
         6.12e-06       4405.279457
         6.14e-06        4407.02305
         6.16e-06        4407.65039
         6.18e-06       4409.019271
          6.2e-06       4407.500088
         6.22e-06       4405.867815
         6.24e-06       4402.988752
         6.26e-06       4401.648225
         6.28e-06       4401.963813
          6.3e-06        4401.94041
         6.32e-06       4401.091419
         6.34e-06       4399.263652
         6.36e-06       4396.044109
         6.38e-06       4395.490874
          6.4e-06       4396.009941
         6.42e-06       4404.067069
         6.44e-06       4405.407693
         6.46e-06       4407.369816
         6.48e-06       4406.790868
          6.5e-06       4404.819819
         6.52e-06       4394.703951
         6.54e-06       4396.391333
         6.56e-06       4394.967282
         6.58e-06       4394.028057
          6.6e-06       4394.338553
         6.62e-06       4388.695634
         6.64e-06       4384.850036
         6.66e-06       4383.272023
         6.68e-06        4383.35597
          6.7e-06       4383.409288
         6.72e-06       4380.295718
         6.74e-06        4375.75414
         6.76e-06       4375.327768
         6.78e-06       4373.194143
          6.8e-06       4371.508886
         6.82e-06       4363.635456
         6.84e-06        4367.75473
         6.86e-06       4370.684301
         6.88e-06        4371.41003
          6.9e-06       4371.103361
         6.92e-06       4371.177726
         6.94e-06       4369.841071
         6.96e-06       4366.872591
         6.98e-06       4367.535967
            7e-06       4367.684532
         7.02e-06       4368.896085
         7.04e-06       4368.275976
         7.06e-06       4369.399426
         7.08e-06       4370.777763
          7.1e-06       4373.106243
         7.12e-06       4378.703612
         7.14e-06       4376.970921
         7.16e-06       4373.394913
         7.18e-06        4372.32946
          7.2e-06       4370.437613
         7.22e-06       4362.560612
         7.24e-06       4362.796888
         7.26e-06       4361.808104
         7.28e-06        4360.40851
          7.3e-06       4359.423911
         7.32e-06       4354.812098
         7.34e-06       4352.916116
         7.36e-06       4352.264231
         7.38e-06       4351.441261
          7.4e-06       4350.973386
         7.42e-06       4352.852965
         7.44e-06       4352.796784
         7.46e-06       4353.422779
         7.48e-06       4353.335737
          7.5e-06       4352.643577
         7.52e-06       4348.189149
         7.54e-06       4344.367935
         7.56e-06       4343.025477
         7.58e-06        4341.82047
          7.6e-06       4342.621363
         7.62e-06       4343.138007
         7.64e-06       4342.484187
         7.66e-06       4342.026569
         7.68e-06       4341.370181
          7.7e-06        4341.37643
         7.72e-06       4331.551579
         7.74e-06       4330.595663
         7.76e-06       4330.450774
         7.78e-06       4329.806166
          7.8e-06       4330.649639
         7.82e-06       4327.797172
         7.84e-06       4326.164648
         7.86e-06        4328.47449
         7.88e-06       4330.645892
          7.9e-06        4333.07793
         7.92e-06       4342.805255
         7.94e-06       4342.588936
         7.96e-06       4343.057934
         7.98e-06       4344.079332
            8e-06       4344.121886
         8.02e-06       4338.080485
         8.04e-06       4338.880511
         8.06e-06       4336.155629
         8.08e-06        4333.73325
          8.1e-06       4332.173622
         8.12e-06       4321.149379
         8.14e-06       4320.260661
         8.16e-06       4322.115164
         8.18e-06       4322.651198
          8.2e-06       4322.034059
         8.22e-06       4325.419518
         8.24e-06       4325.858922
         8.26e-06       4327.989874
         8.28e-06       4329.671409
          8.3e-06       4330.998601
         8.32e-06         4334.5338
         8.34e-06       4332.114802
         8.36e-06        4329.89172
         8.38e-06       4328.109903
          8.4e-06       4328.153296
         8.42e-06       4328.725424
         8.44e-06       4328.116933
         8.46e-06       4326.413284
         8.48e-06       4326.124141
          8.5e-06       4327.436953
         8.52e-06       4333.963458
         8.54e-06       4330.026088
         8.56e-06       4328.758147
         8.58e-06       4327.599799
          8.6e-06       4328.115747
         8.62e-06       4335.515626
         8.64e-06       4331.964764
         8.66e-06       4331.472893
         8.68e-06        4330.76672
          8.7e-06       4330.052052
         8.72e-06       4319.729932
         8.74e-06       4319.711484
         8.76e-06       4319.466452
         8.78e-06       4318.513205
          8.8e-06       4316.668325
         8.82e-06       4306.165847
         8.84e-06       4310.634474
         8.86e-06         4311.0618
         8.88e-06       4311.573639
          8.9e-06       4312.242171
         8.92e-06       4311.163076
         8.94e-06       4310.233623
         8.96e-06        4310.99604
         8.98e-06       4309.965487
            9e-06        4309.05422
         9.02e-06       4313.306857
         9.04e-06       4311.897851
         9.06e-06       4311.471206
         9.08e-06       4309.492035
          9.1e-06       4306.877396
         9.12e-06       4299.885848
         9.14e-06       4297.937533
         9.16e-06       4299.332605
         9.18e-06       4301.234879
          9.2e-06       4302.204414
         9.22e-06       4305.065984
         9.24e-06       4303.107135
         9.26e-06       4304.377827
         9.28e-06       4305.293416
          9.3e-06       4305.639469
         9.32e-06        4306.04848
         9.34e-06       4305.805564
         9.36e-06       4305.480007
         9.38e-06       4303.459064
          9.4e-06       4302.765881
         9.42e-06       4296.824746
         9.44e-06       4299.631543
         9.46e-06       4299.627085
         9.48e-06       4299.768751
          9.5e-06       4300.100585
         9.52e-06       4302.919911
         9.54e-06       4303.546446
         9.56e-06       4304.047029
         9.58e-06       4304.189678
          9.6e-06       4303.155164
         9.62e-06       4299.162326
         9.64e-06        4297.47712
         9.66e-06       4297.946606
         9.68e-06       4298.247162
          9.7e-06       4296.746271
         9.72e-06       4295.527003
         9.74e-06       4296.979987
         9.76e-06       4296.125212
         9.78e-06       4296.780774
          9.8e-06       4296.947183
         9.82e-06       4293.952663
         9.84e-06       4293.946106
         9.86e-06       4294.272752
         9.88e-06       4293.011671
          9.9e-06       4291.432271
         9.92e-06       4279.868703
         9.94e-06       4276.356808
         9.96e-06       4276.638787
         9.98e-06       4277.364991
            1e-05       4277.240527
        1.002e-05       4278.624976
        1.004e-05        4278.97014
        1.006e-05       4276.418919
        1.008e-05       4274.621992
         1.01e-05       4273.729372
        1.012e-05       4268.219915
        1.014e-05       4267.453993
        1.016e-05       4265.703715
        1.018e-05       4265.792503
         1.02e-05       4265.468165
        1.022e-05       4263.970379
        1.024e-05       4265.102281
        1.026e-05       4263.764041
        1.028e-05        4262.49837
         1.03e-05       4261.851628
        1.032e-05       4262.823794
        1.034e-05        4262.70487
        1.036e-05       4259.526272
        1.038e-05       4259.608787
         1.04e-05       4258.243752
        1.042e-05       4259.544195
        1.044e-05       4256.503297
        1.046e-05       4255.864398
        1.048e-05       4255.781293
         1.05e-05       4255.946415
        1.052e-05       4257.866501
        1.054e-05       4257.980898
        1.056e-05       4259.073192
        1.058e-05       4259.703931
         1.06e-05       4260.337438
        1.062e-05       4257.945725
        1.064e-05       4256.950717
        1.066e-05       4256.969003
        1.068e-05       4256.845448
         1.07e-05       4255.602114
        1.072e-05       4251.425756
        1.074e-05       4251.818421
        1.076e-05       4254.972025
        1.078e-05        4256.63419
         1.08e-05       4255.677115
        1.082e-05        4249.76909
        1.084e-05       4252.133841
        1.086e-05       4250.616513
        1.088e-05       4248.806949
         1.09e-05       4248.375333
        1.092e-05       4247.976401
        1.094e-05       4248.947579
        1.096e-05       4245.932806
        1.098e-05       4245.193888
          1.1e-05       4243.472565
        1.102e-05       4233.675433
        1.104e-05       4235.247523
        1.106e-05       4236.093478
        1.108e-05       4237.900882
         1.11e-05       4238.484001
        1.112e-05       4247.123389
        1.114e-05       4250.152792
        1.116e-05       4250.645882
        1.118e-05       4250.847842
         1.12e-05       4250.264643
        1.122e-05       4255.269399
        1.124e-05       4255.666231
        1.126e-05        4253.88234
        1.128e-05       4251.426841
         1.13e-05       4250.023068
        1.132e-05       4242.587695
        1.134e-05       4240.838789
        1.136e-05       4242.294129
        1.138e-05       4242.838132
         1.14e-05       4244.357728
        1.142e-05       4249.027479
        1.144e-05       4244.740286
        1.146e-05       4242.242759
        1.148e-05       4241.877575
         1.15e-05       4241.046877
        1.152e-05       4234.475476
        1.154e-05       4234.360292
        1.156e-05       4235.713607
        1.158e-05        4235.38589
         1.16e-05       4234.719245
        1.162e-05       4228.325392
        1.164e-05       4232.801481
        1.166e-05       4233.930289
        1.168e-05       4233.125899
         1.17e-05       4231.257296
        1.172e-05       4225.147227
        1.174e-05        4228.02662
        1.176e-05       4229.377571
        1.178e-05       4231.411273
         1.18e-05       4232.870322
        1.182e-05       4233.206385
        1.184e-05       4231.239331
        1.186e-05       4231.029149
        1.188e-05       4232.156208
         1.19e-05       4232.135378
        1.192e-05       4231.183512
        1.194e-05       4228.801453
        1.196e-05       4229.486041
        1.198e-05       4228.672915
          1.2e-05       4228.126036
        1.202e-05       4219.062824
        1.204e-05       4219.200199
        1.206e-05        4219.35866
        1.208e-05       4218.519774
         1.21e-05       4217.787478
        1.212e-05       4208.820833
        1.214e-05       4210.196218
        1.216e-05       4210.987466
        1.218e-05       4211.922845
         1.22e-05       4212.785543
        1.222e-05       4207.309778
        1.224e-05        4202.13392
        1.226e-05       4202.331745
        1.228e-05        4202.28798
         1.23e-05       4202.289394
        1.232e-05       4211.029005
        1.234e-05       4214.268523
        1.236e-05       4214.802877
        1.238e-05       4214.644524
         1.24e-05       4215.960448
        1.242e-05       4220.789419
        1.244e-05       4220.628235
        1.246e-05       4223.254592
        1.248e-05       4222.673206
         1.25e-05       4220.628109
        1.252e-05       4214.658202
        1.254e-05       4211.338813
        1.256e-05       4211.405456
        1.258e-05       4210.456909
         1.26e-05       4211.365774
        1.262e-05       4213.473084
        1.264e-05       4214.923083
        1.266e-05       4214.670251
        1.268e-05        4213.32342
         1.27e-05       4210.860438
        1.272e-05       4206.965422
        1.274e-05       4206.698456
        1.276e-05       4208.283855
        1.278e-05       4208.289232
         1.28e-05       4207.796247
        1.282e-05       4206.868181
        1.284e-05       4208.631548
        1.286e-05       4210.230468
        1.288e-05       4213.325126
         1.29e-05       4213.662988
        1.292e-05       4213.835685
        1.294e-05       4212.048203
        1.296e-05       4210.453257
        1.298e-05       4209.238563
          1.3e-05       4208.778969
        1.302e-05       4200.636474
        1.304e-05       4206.089886
        1.306e-05       4207.969991
        1.308e-05       4209.349186
         1.31e-05       4209.114912
        1.312e-05       4206.520603
        1.314e-05       4208.752537
        1.316e-05       4209.635494
        1.318e-05       4210.846061
         1.32e-05       4209.636153
        1.322e-05       4205.087419
        1.324e-05       4207.380753
        1.326e-05       4206.464948
        1.328e-05       4206.060848
         1.33e-05       4205.056852
        1.332e-05       4197.980588
        1.334e-05       4197.799987
        1.336e-05        4199.84201
        1.338e-05       4201.317163
         1.34e-05       4200.653245
        1.342e-05       4197.118843
        1.344e-05       4195.044989
        1.346e-05        4194.70288
        1.348e-05       4194.180475
         1.35e-05       4191.548332
        1.352e-05       4186.412812
        1.354e-05       4188.977572
        1.356e-05       4189.914506
        1.358e-05       4191.042911
         1.36e-05       4191.996467
        1.362e-05       4199.184125
        1.364e-05       4197.039905
        1.366e-05       4196.246005
        1.368e-05       4194.335253
         1.37e-05       4192.723174
        1.372e-05       4194.594582
        1.374e-05       4194.095988
        1.376e-05       4195.155486
        1.378e-05       4197.893442
         1.38e-05       4200.040713
        1.382e-05       4214.483059
        1.384e-05       4211.927913
        1.386e-05        4209.09124
        1.388e-05       4205.454604
         1.39e-05       4201.398028
        1.392e-05       4189.011614
        1.394e-05       4189.561584
        1.396e-05       4188.638366
        1.398e-05         4189.8903
          1.4e-05       4190.408057
        1.402e-05       4189.959456
        1.404e-05       4189.435819
        1.406e-05       4188.462937
        1.408e-05       4187.713676
         1.41e-05       4186.667706
        1.412e-05       4183.344482
        1.414e-05       4182.022687
        1.416e-05       4182.351578
        1.418e-05       4182.907186
         1.42e-05       4184.360638
        1.422e-05       4183.405437
        1.424e-05       4182.868138
        1.426e-05         4180.8418
        1.428e-05       4178.556835
         1.43e-05        4177.29552
        1.432e-05       4177.090298
        1.434e-05        4175.67442
        1.436e-05       4176.772413
        1.438e-05       4178.108678
         1.44e-05       4178.800833
        1.442e-05       4181.992401
        1.444e-05       4182.809272
        1.446e-05       4182.848223
        1.448e-05       4182.318045
         1.45e-05       4181.548969
        1.452e-05       4180.931018
        1.454e-05       4185.041828
        1.456e-05       4184.335606
        1.458e-05       4184.468789
         1.46e-05       4185.051779
        1.462e-05        4181.43499
        1.464e-05       4180.063519
        1.466e-05       4181.009255
        1.468e-05       4181.332712
         1.47e-05       4180.376868
        1.472e-05       4175.650252
        1.474e-05       4176.895645
        1.476e-05       4177.222094
        1.478e-05       4177.366615
         1.48e-05       4176.701479
        1.482e-05       4168.886042
        1.484e-05       4167.860556
        1.486e-05       4168.324782
        1.488e-05       4169.201508
         1.49e-05       4170.724573
        1.492e-05       4175.420388
        1.494e-05       4173.747254
        1.496e-05       4171.626017
        1.498e-05       4169.473894
          1.5e-05       4168.374181
        1.502e-05        4165.58239
        1.504e-05       4165.089998
        1.506e-05       4162.826502
        1.508e-05       4161.911332
         1.51e-05       4160.452672
        1.512e-05       4163.159192
        1.514e-05       4165.626758
        1.516e-05        4164.14224
        1.518e-05       4161.915484
         1.52e-05       4160.954758
        1.522e-05       4165.386866
        1.524e-05       4161.733709
        1.526e-05       4158.084943
        1.528e-05        4156.44234
         1.53e-05       4155.421721
        1.532e-05       4148.844039
        1.534e-05       4151.601955
        1.536e-05       4152.396349
        1.538e-05       4153.195107
         1.54e-05       4154.355108
        1.542e-05       4155.068657
        1.544e-05       4152.981837
        1.546e-05       4152.418687
        1.548e-05       4152.336367
         1.55e-05        4153.08365
        1.552e-05       4161.678261
        1.554e-05          4160.635
        1.556e-05          4159.386
        1.558e-05       4157.391632
         1.56e-05       4155.675574
        1.562e-05       4152.864869
        1.564e-05       4154.605273
        1.566e-05       4152.085552
        1.568e-05       4152.904284
         1.57e-05       4153.122813
        1.572e-05        4154.67237
        1.574e-05       4155.118961
        1.576e-05       4155.953684
        1.578e-05       4154.340681
         1.58e-05       4152.561075
        1.582e-05       4148.330239
        1.584e-05       4149.256893
        1.586e-05       4149.900977
        1.588e-05        4148.70286
         1.59e-05       4146.321759
        1.592e-05       4149.595339
        1.594e-05       4153.704668
        1.596e-05       4154.422764
        1.598e-05       4153.814392
          1.6e-05        4153.41888
        1.602e-05       4154.167987
        1.604e-05           4154.68
        1.606e-05       4153.112544
        1.608e-05       4152.430713
         1.61e-05       4152.600075
        1.612e-05        4156.86162
        1.614e-05       4156.706954
        1.616e-05       4156.235634
        1.618e-05       4156.708551
         1.62e-05       4157.162583
        1.622e-05       4155.596483
        1.624e-05       4153.615454
        1.626e-05       4152.826238
        1.628e-05       4151.057327
         1.63e-05       4149.000774
        1.632e-05       4137.071422
        1.634e-05       4137.139048
        1.636e-05       4138.661339
        1.638e-05       4139.977801
         1.64e-05       4140.586561
        1.642e-05       4138.398223
        1.644e-05       4137.851559
        1.646e-05        4136.52099
        1.648e-05       4136.288543
         1.65e-05       4135.657037
        1.652e-05       4132.491502
        1.654e-05       4133.898852
        1.656e-05       4131.889396
        1.658e-05       4132.484055
         1.66e-05       4134.578968
        1.662e-05       4139.827187