# Probe 0 (5e-06 5e-06 5e-06)
#           Probe                 0
#            Time
            2e-08                 0
            4e-08                 0
            6e-08                 0
            8e-08                 0
            1e-07       518.4275797
          1.2e-07       518.4275797
          1.4e-07       518.4275797
          1.6e-07       518.4275797
          1.8e-07       518.4275797
            2e-07       678.3145643
          2.2e-07       678.3145643
          2.4e-07       678.3145643
          2.6e-07       678.3145643
          2.8e-07       678.3145643
            3e-07       774.9702574
          3.2e-07       774.9702574
          3.4e-07       774.9702574
          3.6e-07       774.9702574
          3.8e-07       774.9702574
            4e-07        857.371638
          4.2e-07        857.371638
          4.4e-07        857.371638
          4.6e-07        857.371638
          4.8e-07        857.371638
            5e-07       925.8345298
          5.2e-07       925.8345298
          5.4e-07       925.8345298
          5.6e-07       925.8345298
          5.8e-07       925.8345298
            6e-07       988.1354647
          6.2e-07       988.1354647
          6.4e-07       988.1354647
          6.6e-07       988.1354647
          6.8e-07       988.1354647
            7e-07       1049.013505
          7.2e-07       1049.013505
          7.4e-07       1049.013505
          7.6e-07       1049.013505
          7.8e-07       1049.013505
            8e-07       1105.555024
          8.2e-07       1105.555024
          8.4e-07       1105.555024
          8.6e-07       1105.555024
          8.8e-07       1105.555024
            9e-07       1157.542937
          9.2e-07       1157.542937
          9.4e-07       1157.542937
          9.6e-07       1157.542937
          9.8e-07       1157.542937
            1e-06       1207.800149
         1.02e-06       1207.800149
         1.04e-06       1207.800149
         1.06e-06       1207.800149
         1.08e-06       1207.800149
          1.1e-06       1250.327201
         1.12e-06       1250.327201
         1.14e-06       1250.327201
         1.16e-06       1250.327201
         1.18e-06       1250.327201
          1.2e-06       1299.464429
         1.22e-06       1299.464429
         1.24e-06       1299.464429
         1.26e-06       1299.464429
         1.28e-06       1299.464429
          1.3e-06        1342.30741
         1.32e-06        1342.30741
         1.34e-06        1342.30741
         1.36e-06        1342.30741
         1.38e-06        1342.30741
          1.4e-06       1390.325764
         1.42e-06       1390.325764
         1.44e-06       1390.325764
         1.46e-06       1390.325764
         1.48e-06       1390.325764
          1.5e-06       1427.467033
         1.52e-06       1427.467033
         1.54e-06       1427.467033
         1.56e-06       1427.467033
         1.58e-06       1427.467033
          1.6e-06       1466.301215
         1.62e-06       1466.301215
         1.64e-06       1466.301215
         1.66e-06       1466.301215
         1.68e-06       1466.301215
          1.7e-06       1503.582201
         1.72e-06       1503.582201
         1.74e-06       1503.582201
         1.76e-06       1503.582201
         1.78e-06       1503.582201
          1.8e-06       1542.994023
         1.82e-06       1542.994023
         1.84e-06       1542.994023
         1.86e-06       1542.994023
         1.88e-06       1542.994023
          1.9e-06       1576.499297
         1.92e-06       1576.499297
         1.94e-06       1576.499297
         1.96e-06       1576.499297
         1.98e-06       1576.499297
            2e-06        1609.11894
         2.02e-06        1609.11894
         2.04e-06        1609.11894
         2.06e-06        1609.11894
         2.08e-06        1609.11894
          2.1e-06       1639.812172
         2.12e-06       1639.812172
         2.14e-06       1639.812172
         2.16e-06       1639.812172
         2.18e-06       1639.812172
          2.2e-06       1669.832652
         2.22e-06       1669.832652
         2.24e-06       1669.832652
         2.26e-06       1669.832652
         2.28e-06       1669.832652
          2.3e-06       1694.091383
         2.32e-06       1694.091383
         2.34e-06       1694.091383
         2.36e-06       1694.091383
         2.38e-06       1694.091383
          2.4e-06        1718.04279
         2.42e-06        1718.04279
         2.44e-06        1718.04279
         2.46e-06        1718.04279
         2.48e-06        1718.04279
          2.5e-06       1744.422947
         2.52e-06       1744.422947
         2.54e-06       1744.422947
         2.56e-06       1744.422947
         2.58e-06       1744.422947
          2.6e-06       1774.087351
         2.62e-06       1774.087351
         2.64e-06       1774.087351
         2.66e-06       1774.087351
         2.68e-06       1774.087351
          2.7e-06        1801.28155
         2.72e-06        1801.28155
         2.74e-06        1801.28155
         2.76e-06        1801.28155
         2.78e-06        1801.28155
          2.8e-06       1822.574649
         2.82e-06       1822.574649
         2.84e-06       1822.574649
         2.86e-06       1822.574649
         2.88e-06       1822.574649
          2.9e-06       1838.445054
         2.92e-06       1838.445054
         2.94e-06       1838.445054
         2.96e-06       1838.445054
         2.98e-06       1838.445054
            3e-06       1862.549683
         3.02e-06       1862.549683
         3.04e-06       1862.549683
         3.06e-06       1862.549683
         3.08e-06       1862.549683
          3.1e-06       1884.666167
         3.12e-06       1884.666167
         3.14e-06       1884.666167
         3.16e-06       1884.666167
         3.18e-06       1884.666167
          3.2e-06        1910.93412
         3.22e-06        1910.93412
         3.24e-06        1910.93412
         3.26e-06        1910.93412
         3.28e-06        1910.93412
          3.3e-06       1934.435621
         3.32e-06       1934.435621
         3.34e-06       1934.435621
         3.36e-06       1934.435621
         3.38e-06       1934.435621
          3.4e-06       1954.268986
         3.42e-06       1954.268986
         3.44e-06       1954.268986
         3.46e-06       1954.268986
         3.48e-06       1954.268986
          3.5e-06       1975.827332
         3.52e-06       1975.827332
         3.54e-06       1975.827332
         3.56e-06       1975.827332
         3.58e-06       1975.827332
          3.6e-06       1997.200413
         3.62e-06       1997.200413
         3.64e-06       1997.200413
         3.66e-06       1997.200413
         3.68e-06       1997.200413
          3.7e-06       2018.305879
         3.72e-06       2018.305879
         3.74e-06       2018.305879
         3.76e-06       2018.305879
         3.78e-06       2018.305879
          3.8e-06       2038.897208
         3.82e-06       2038.897208
         3.84e-06       2038.897208
         3.86e-06       2038.897208
         3.88e-06       2038.897208
          3.9e-06        2058.61505
         3.92e-06        2058.61505
         3.94e-06        2058.61505
         3.96e-06        2058.61505
         3.98e-06        2058.61505
            4e-06       2078.340647
         4.02e-06       2078.340647
         4.04e-06       2078.340647
         4.06e-06       2078.340647
         4.08e-06       2078.340647
          4.1e-06       2093.944192
         4.12e-06       2093.944192
         4.14e-06       2093.944192
         4.16e-06       2093.944192
         4.18e-06       2093.944192
          4.2e-06       2110.512456
         4.22e-06       2110.512456
         4.24e-06       2110.512456
         4.26e-06       2110.512456
         4.28e-06       2110.512456
          4.3e-06       2128.888243
         4.32e-06       2128.888243
         4.34e-06       2128.888243
         4.36e-06       2128.888243
         4.38e-06       2128.888243
          4.4e-06       2140.921441
         4.42e-06       2140.921441
         4.44e-06       2140.921441
         4.46e-06       2140.921441
         4.48e-06       2140.921441
          4.5e-06        2155.29866
         4.52e-06        2155.29866
         4.54e-06        2155.29866
         4.56e-06        2155.29866
         4.58e-06        2155.29866
          4.6e-06       2167.872638
         4.62e-06       2167.872638
         4.64e-06       2167.872638
         4.66e-06       2167.872638
         4.68e-06       2167.872638
          4.7e-06       2183.183889
         4.72e-06       2183.183889
         4.74e-06       2183.183889
         4.76e-06       2183.183889
         4.78e-06       2183.183889
          4.8e-06       2196.453221
         4.82e-06       2196.453221
         4.84e-06       2196.453221
         4.86e-06       2196.453221
         4.88e-06       2196.453221
          4.9e-06       2208.916917
         4.92e-06       2208.916917
         4.94e-06       2208.916917
         4.96e-06       2208.916917
         4.98e-06       2208.916917
            5e-06       2228.127774
         5.02e-06       2228.127774
         5.04e-06       2228.127774
         5.06e-06       2228.127774
         5.08e-06       2228.127774
          5.1e-06       2247.232377
         5.12e-06       2247.232377
         5.14e-06       2247.232377
         5.16e-06       2247.232377
         5.18e-06       2247.232377
          5.2e-06       2264.503012
         5.22e-06       2264.503012
         5.24e-06       2264.503012
         5.26e-06       2264.503012
         5.28e-06       2264.503012
          5.3e-06       2280.421605
         5.32e-06       2280.421605
         5.34e-06       2280.421605
         5.36e-06       2280.421605
         5.38e-06       2280.421605
          5.4e-06       2293.223793
         5.42e-06       2293.223793
         5.44e-06       2293.223793
         5.46e-06       2293.223793
         5.48e-06       2293.223793
          5.5e-06       2308.695493
         5.52e-06       2308.695493
         5.54e-06       2308.695493
         5.56e-06       2308.695493
         5.58e-06       2308.695493
          5.6e-06       2322.702237
         5.62e-06       2322.702237
         5.64e-06       2322.702237
         5.66e-06       2322.702237
         5.68e-06       2322.702237
          5.7e-06       2337.285611
         5.72e-06       2337.285611
         5.74e-06       2337.285611
         5.76e-06       2337.285611
         5.78e-06       2337.285611
          5.8e-06       2353.787882
         5.82e-06       2353.787882
         5.84e-06       2353.787882
         5.86e-06       2353.787882
         5.88e-06       2353.787882
          5.9e-06       2366.926542
         5.92e-06       2366.926542
         5.94e-06       2366.926542
         5.96e-06       2366.926542
         5.98e-06       2366.926542
            6e-06       2379.232944
         6.02e-06       2379.232944
         6.04e-06       2379.232944
         6.06e-06       2379.232944
         6.08e-06       2379.232944
          6.1e-06       2391.204552
         6.12e-06       2391.204552
         6.14e-06       2391.204552
         6.16e-06       2391.204552
         6.18e-06       2391.204552
          6.2e-06       2407.132072
         6.22e-06       2407.132072
         6.24e-06       2407.132072
         6.26e-06       2407.132072
         6.28e-06       2407.132072
          6.3e-06       2419.519859
         6.32e-06       2419.519859
         6.34e-06       2419.519859
         6.36e-06       2419.519859
         6.38e-06       2419.519859
          6.4e-06       2433.327822
         6.42e-06       2433.327822
         6.44e-06       2433.327822
         6.46e-06       2433.327822
         6.48e-06       2433.327822
          6.5e-06       2443.067665
         6.52e-06       2443.067665
         6.54e-06       2443.067665
         6.56e-06       2443.067665
         6.58e-06       2443.067665
          6.6e-06       2453.982804
         6.62e-06       2453.982804
         6.64e-06       2453.982804
         6.66e-06       2453.982804
         6.68e-06       2453.982804
          6.7e-06       2466.453145
         6.72e-06       2466.453145
         6.74e-06       2466.453145
         6.76e-06       2466.453145
         6.78e-06       2466.453145
          6.8e-06       2475.995942
         6.82e-06       2475.995942
         6.84e-06       2475.995942
         6.86e-06       2475.995942
         6.88e-06       2475.995942
          6.9e-06       2486.248614
         6.92e-06       2486.248614
         6.94e-06       2486.248614
         6.96e-06       2486.248614
         6.98e-06       2486.248614
            7e-06       2502.167104
         7.02e-06       2502.167104
         7.04e-06       2502.167104
         7.06e-06       2502.167104
         7.08e-06       2502.167104
          7.1e-06       2515.048402
         7.12e-06       2515.048402
         7.14e-06       2515.048402
         7.16e-06       2515.048402
         7.18e-06       2515.048402
          7.2e-06       2527.520946
         7.22e-06       2527.520946
         7.24e-06       2527.520946
         7.26e-06       2527.520946
         7.28e-06       2527.520946
          7.3e-06       2535.071899
         7.32e-06       2535.071899
         7.34e-06       2535.071899
         7.36e-06       2535.071899
         7.38e-06       2535.071899
          7.4e-06       2545.099972
         7.42e-06       2545.099972
         7.44e-06       2545.099972
         7.46e-06       2545.099972
         7.48e-06       2545.099972
          7.5e-06       2555.021869
         7.52e-06       2555.021869
         7.54e-06       2555.021869
         7.56e-06       2555.021869
         7.58e-06       2555.021869
          7.6e-06       2564.217233
         7.62e-06       2564.217233
         7.64e-06       2564.217233
         7.66e-06       2564.217233
         7.68e-06       2564.217233
          7.7e-06       2572.158145
         7.72e-06       2572.158145
         7.74e-06       2572.158145
         7.76e-06       2572.158145
         7.78e-06       2572.158145
          7.8e-06       2579.841184
         7.82e-06       2579.841184
         7.84e-06       2579.841184
         7.86e-06       2579.841184
         7.88e-06       2579.841184
          7.9e-06       2586.108564
         7.92e-06       2586.108564
         7.94e-06       2586.108564
         7.96e-06       2586.108564
         7.98e-06       2586.108564
            8e-06       2593.253172
         8.02e-06       2593.253172
         8.04e-06       2593.253172
         8.06e-06       2593.253172
         8.08e-06       2593.253172
          8.1e-06       2602.541823
         8.12e-06       2602.541823
         8.14e-06       2602.541823
         8.16e-06       2602.541823
         8.18e-06       2602.541823
          8.2e-06        2610.46803
         8.22e-06        2610.46803
         8.24e-06        2610.46803
         8.26e-06        2610.46803
         8.28e-06        2610.46803
          8.3e-06       2618.784727
         8.32e-06       2618.784727
         8.34e-06       2618.784727
         8.36e-06       2618.784727
         8.38e-06       2618.784727
          8.4e-06       2623.913265
         8.42e-06       2623.913265
         8.44e-06       2623.913265
         8.46e-06       2623.913265
         8.48e-06       2623.913265
          8.5e-06       2633.298837
         8.52e-06       2633.298837
         8.54e-06       2633.298837
         8.56e-06       2633.298837
         8.58e-06       2633.298837
          8.6e-06       2640.010612
         8.62e-06       2640.010612
         8.64e-06       2640.010612
         8.66e-06       2640.010612
         8.68e-06       2640.010612
          8.7e-06       2652.910646
         8.72e-06       2652.910646
         8.74e-06       2652.910646
         8.76e-06       2652.910646
         8.78e-06       2652.910646
          8.8e-06       2661.225572
         8.82e-06       2661.225572
         8.84e-06       2661.225572
         8.86e-06       2661.225572
         8.88e-06       2661.225572
          8.9e-06       2666.789488
         8.92e-06       2666.789488
         8.94e-06       2666.789488
         8.96e-06       2666.789488
         8.98e-06       2666.789488
            9e-06       2673.366743
         9.02e-06       2673.366743
         9.04e-06       2673.366743
         9.06e-06       2673.366743
         9.08e-06       2673.366743
          9.1e-06       2679.650222
         9.12e-06       2679.650222
         9.14e-06       2679.650222
         9.16e-06       2679.650222
         9.18e-06       2679.650222
          9.2e-06       2685.711932
         9.22e-06       2685.711932
         9.24e-06       2685.711932
         9.26e-06       2685.711932
         9.28e-06       2685.711932
          9.3e-06       2694.540911
         9.32e-06       2694.540911
         9.34e-06       2694.540911
         9.36e-06       2694.540911
         9.38e-06       2694.540911
          9.4e-06       2699.857729
         9.42e-06       2699.857729
         9.44e-06       2699.857729
         9.46e-06       2699.857729
         9.48e-06       2699.857729
          9.5e-06         2705.9333
         9.52e-06         2705.9333
         9.54e-06         2705.9333
         9.56e-06         2705.9333
         9.58e-06         2705.9333
          9.6e-06       2714.047561
         9.62e-06       2714.047561
         9.64e-06       2714.047561
         9.66e-06       2714.047561
         9.68e-06       2714.047561
          9.7e-06        2724.58529
         9.72e-06        2724.58529
         9.74e-06        2724.58529
         9.76e-06        2724.58529
         9.78e-06        2724.58529
          9.8e-06       2732.273108
         9.82e-06       2732.273108
         9.84e-06       2732.273108
         9.86e-06       2732.273108
         9.88e-06       2732.273108
          9.9e-06       2742.912671
         9.92e-06       2742.912671
         9.94e-06       2742.912671
         9.96e-06       2742.912671
         9.98e-06       2742.912671
            1e-05       2753.428381
        1.002e-05       2753.428381
        1.004e-05       2753.428381
        1.006e-05       2753.428381
        1.008e-05       2753.428381
         1.01e-05       2762.237351
        1.012e-05       2762.237351
        1.014e-05       2762.237351
        1.016e-05       2762.237351
        1.018e-05       2762.237351
         1.02e-05       2771.834516
        1.022e-05       2771.834516
        1.024e-05       2771.834516
        1.026e-05       2771.834516
        1.028e-05       2771.834516
         1.03e-05       2777.968505
        1.032e-05       2777.968505
        1.034e-05       2777.968505
        1.036e-05       2777.968505
        1.038e-05       2777.968505
         1.04e-05       2783.462584
        1.042e-05       2783.462584
        1.044e-05       2783.462584
        1.046e-05       2783.462584
        1.048e-05       2783.462584
         1.05e-05       2793.980498
        1.052e-05       2793.980498
        1.054e-05       2793.980498
        1.056e-05       2793.980498
        1.058e-05       2793.980498
         1.06e-05       2803.670549
        1.062e-05       2803.670549
        1.064e-05       2803.670549
        1.066e-05       2803.670549
        1.068e-05       2803.670549
         1.07e-05       2810.139701
        1.072e-05       2810.139701
        1.074e-05       2810.139701
        1.076e-05       2810.139701
        1.078e-05       2810.139701
         1.08e-05       2818.581968
        1.082e-05       2818.581968
        1.084e-05       2818.581968
        1.086e-05       2818.581968
        1.088e-05       2818.581968
         1.09e-05       2826.160601
        1.092e-05       2826.160601
        1.094e-05       2826.160601
        1.096e-05       2826.160601
        1.098e-05       2826.160601
          1.1e-05       2830.850384
        1.102e-05       2830.850384
        1.104e-05       2830.850384
        1.106e-05       2830.850384
        1.108e-05       2830.850384
         1.11e-05       2836.319185
        1.112e-05       2836.319185
        1.114e-05       2836.319185
        1.116e-05       2836.319185
        1.118e-05       2836.319185
         1.12e-05       2845.490038
        1.122e-05       2845.490038
        1.124e-05       2845.490038
        1.126e-05       2845.490038
        1.128e-05       2845.490038
         1.13e-05       2852.837819
        1.132e-05       2852.837819
        1.134e-05       2852.837819
        1.136e-05       2852.837819
        1.138e-05       2852.837819
         1.14e-05       2857.912635
        1.142e-05       2857.912635
        1.144e-05       2857.912635
        1.146e-05       2857.912635
        1.148e-05       2857.912635
         1.15e-05        2860.14089
        1.152e-05        2860.14089
        1.154e-05        2860.14089
        1.156e-05        2860.14089
        1.158e-05        2860.14089
         1.16e-05       2861.889161
        1.162e-05       2861.889161
        1.164e-05       2861.889161
        1.166e-05       2861.889161
        1.168e-05       2861.889161
         1.17e-05       2865.242875
        1.172e-05       2865.242875
        1.174e-05       2865.242875
        1.176e-05       2865.242875
        1.178e-05       2865.242875
         1.18e-05       2870.419918
        1.182e-05       2870.419918
        1.184e-05       2870.419918
        1.186e-05       2870.419918
        1.188e-05       2870.419918
         1.19e-05       2878.587264
        1.192e-05       2878.587264
        1.194e-05       2878.587264
        1.196e-05       2878.587264
        1.198e-05       2878.587264
          1.2e-05       2886.045038
        1.202e-05       2886.045038
        1.204e-05       2886.045038
        1.206e-05       2886.045038
        1.208e-05       2886.045038
         1.21e-05       2892.594503
        1.212e-05       2892.594503
        1.214e-05       2892.594503
        1.216e-05       2892.594503
        1.218e-05       2892.594503
         1.22e-05       2901.414946
        1.222e-05       2901.414946
        1.224e-05       2901.414946
        1.226e-05       2901.414946
        1.228e-05       2901.414946
         1.23e-05       2912.077517
        1.232e-05       2912.077517
        1.234e-05       2912.077517
        1.236e-05       2912.077517
        1.238e-05       2912.077517
         1.24e-05       2918.516821
        1.242e-05       2918.516821
        1.244e-05       2918.516821
        1.246e-05       2918.516821
        1.248e-05       2918.516821
         1.25e-05       2922.774147
        1.252e-05       2922.774147
        1.254e-05       2922.774147
        1.256e-05       2922.774147
        1.258e-05       2922.774147
         1.26e-05       2926.831788
        1.262e-05       2926.831788
        1.264e-05       2926.831788
        1.266e-05       2926.831788
        1.268e-05       2926.831788
         1.27e-05       2928.670818
        1.272e-05       2928.670818
        1.274e-05       2928.670818
        1.276e-05       2928.670818
        1.278e-05       2928.670818
         1.28e-05       2931.514455
        1.282e-05       2931.514455
        1.284e-05       2931.514455
        1.286e-05       2931.514455
        1.288e-05       2931.514455
         1.29e-05       2934.082975
        1.292e-05       2934.082975
        1.294e-05       2934.082975
        1.296e-05       2934.082975
        1.298e-05       2934.082975
          1.3e-05       2937.982727
        1.302e-05       2937.982727
        1.304e-05       2937.982727
        1.306e-05       2937.982727
        1.308e-05       2937.982727
         1.31e-05       2944.544355
        1.312e-05       2944.544355
        1.314e-05       2944.544355
        1.316e-05       2944.544355
        1.318e-05       2944.544355
         1.32e-05       2942.497848
        1.322e-05       2942.497848
        1.324e-05       2942.497848
        1.326e-05       2942.497848
        1.328e-05       2942.497848
         1.33e-05       2946.713882
        1.332e-05       2946.713882
        1.334e-05       2946.713882
        1.336e-05       2946.713882
        1.338e-05       2946.713882
         1.34e-05       2954.395985
        1.342e-05       2954.395985
        1.344e-05       2954.395985
        1.346e-05       2954.395985
        1.348e-05       2954.395985
         1.35e-05       2962.781586
        1.352e-05       2962.781586
        1.354e-05       2962.781586
        1.356e-05       2962.781586
        1.358e-05       2962.781586
         1.36e-05        2967.54867
        1.362e-05        2967.54867
        1.364e-05        2967.54867
        1.366e-05        2967.54867
        1.368e-05        2967.54867
         1.37e-05       2973.091202
        1.372e-05       2973.091202
        1.374e-05       2973.091202
        1.376e-05       2973.091202
        1.378e-05       2973.091202
         1.38e-05       2979.569655
        1.382e-05       2979.569655
        1.384e-05       2979.569655
        1.386e-05       2979.569655
        1.388e-05       2979.569655
         1.39e-05       2985.904852
        1.392e-05       2985.904852
        1.394e-05       2985.904852
        1.396e-05       2985.904852
        1.398e-05       2985.904852
          1.4e-05       2992.882037
        1.402e-05       2992.882037
        1.404e-05       2992.882037
        1.406e-05       2992.882037
        1.408e-05       2992.882037
         1.41e-05       2996.022455
        1.412e-05       2996.022455
        1.414e-05       2996.022455
        1.416e-05       2996.022455
        1.418e-05       2996.022455
         1.42e-05       3000.297468
        1.422e-05       3000.297468
        1.424e-05       3000.297468
        1.426e-05       3000.297468
        1.428e-05       3000.297468
         1.43e-05       3008.089394
        1.432e-05       3008.089394
        1.434e-05       3008.089394
        1.436e-05       3008.089394
        1.438e-05       3008.089394
         1.44e-05       3012.873311
        1.442e-05       3012.873311
        1.444e-05       3012.873311
        1.446e-05       3012.873311
        1.448e-05       3012.873311
         1.45e-05       3018.337084
        1.452e-05       3018.337084
        1.454e-05       3018.337084
        1.456e-05       3018.337084
        1.458e-05       3018.337084
         1.46e-05       3023.081697
        1.462e-05       3023.081697
        1.464e-05       3023.081697
        1.466e-05       3023.081697
        1.468e-05       3023.081697
         1.47e-05       3030.745353
        1.472e-05       3030.745353
        1.474e-05       3030.745353
        1.476e-05       3030.745353
        1.478e-05       3030.745353
         1.48e-05       3033.815987
        1.482e-05       3033.815987
        1.484e-05       3033.815987
        1.486e-05       3033.815987
        1.488e-05       3033.815987
         1.49e-05       3038.142737
        1.492e-05       3038.142737
        1.494e-05       3038.142737
        1.496e-05       3038.142737
        1.498e-05       3038.142737
          1.5e-05       3042.993131
        1.502e-05       3042.993131
        1.504e-05       3042.993131
        1.506e-05       3042.993131
        1.508e-05       3042.993131
         1.51e-05       3047.276197
        1.512e-05       3047.276197
        1.514e-05       3047.276197
        1.516e-05       3047.276197
        1.518e-05       3047.276197
         1.52e-05       3051.870324
        1.522e-05       3051.870324
        1.524e-05       3051.870324
        1.526e-05       3051.870324
        1.528e-05       3051.870324
         1.53e-05       3059.088407
        1.532e-05       3059.088407
        1.534e-05       3059.088407
        1.536e-05       3059.088407
        1.538e-05       3059.088407
         1.54e-05       3065.908538
        1.542e-05       3065.908538
        1.544e-05       3065.908538
        1.546e-05       3065.908538
        1.548e-05       3065.908538
         1.55e-05       3073.821966
        1.552e-05       3073.821966
        1.554e-05       3073.821966
        1.556e-05       3073.821966
        1.558e-05       3073.821966
         1.56e-05       3075.256286
        1.562e-05       3075.256286
        1.564e-05       3075.256286
        1.566e-05       3075.256286
        1.568e-05       3075.256286
         1.57e-05       3079.554174
        1.572e-05       3079.554174
        1.574e-05       3079.554174
        1.576e-05       3079.554174
        1.578e-05       3079.554174
         1.58e-05        3083.29965
        1.582e-05        3083.29965
        1.584e-05        3083.29965
        1.586e-05        3083.29965
        1.588e-05        3083.29965
         1.59e-05       3087.238097
        1.592e-05       3087.238097
        1.594e-05       3087.238097
        1.596e-05       3087.238097
        1.598e-05       3087.238097
          1.6e-05       3093.170874
        1.602e-05       3093.170874
        1.604e-05       3093.170874
        1.606e-05       3093.170874
        1.608e-05       3093.170874
         1.61e-05       3097.240237
        1.612e-05       3097.240237
        1.614e-05       3097.240237
        1.616e-05       3097.240237
        1.618e-05       3097.240237
         1.62e-05       3101.228984
        1.622e-05       3101.228984
        1.624e-05       3101.228984
        1.626e-05       3101.228984
        1.628e-05       3101.228984
         1.63e-05       3104.656307
        1.632e-05       3104.656307
        1.634e-05       3104.656307
        1.636e-05       3104.656307
        1.638e-05       3104.656307
         1.64e-05       3107.201836
        1.642e-05       3107.201836
        1.644e-05       3107.201836
        1.646e-05       3107.201836
        1.648e-05       3107.201836
         1.65e-05       3110.015848
        1.652e-05       3110.015848
        1.654e-05       3110.015848
        1.656e-05       3110.015848
        1.658e-05       3110.015848
         1.66e-05       3115.968381
        1.662e-05       3115.968381