# Probe 0 (5e-06 5e-06 5e-06)
#           Probe                 0
#            Time
            2e-08                 0
            4e-08                 0
            6e-08                 0
            8e-08                 0
            1e-07     1.6361805e-08
          1.2e-07     1.6361805e-08
          1.4e-07     1.6361805e-08
          1.6e-07     1.6361805e-08
          1.8e-07     1.6361805e-08
            2e-07   1.636477927e-08
          2.2e-07   1.636477927e-08
          2.4e-07   1.636477927e-08
          2.6e-07   1.636477927e-08
          2.8e-07   1.636477927e-08
            3e-07   1.636938652e-08
          3.2e-07   1.636938652e-08
          3.4e-07   1.636938652e-08
          3.6e-07   1.636938652e-08
          3.8e-07   1.636938652e-08
            4e-07   1.637034744e-08
          4.2e-07   1.637034744e-08
          4.4e-07   1.637034744e-08
          4.6e-07   1.637034744e-08
          4.8e-07   1.637034744e-08
            5e-07   1.636842365e-08
          5.2e-07   1.636842365e-08
          5.4e-07   1.636842365e-08
          5.6e-07   1.636842365e-08
          5.8e-07   1.636842365e-08
            6e-07   1.637783773e-08
          6.2e-07   1.637783773e-08
          6.4e-07   1.637783773e-08
          6.6e-07   1.637783773e-08
          6.8e-07   1.637783773e-08
            7e-07   1.638253751e-08
          7.2e-07   1.638253751e-08
          7.4e-07   1.638253751e-08
          7.6e-07   1.638253751e-08
          7.8e-07   1.638253751e-08
            8e-07   1.637547929e-08
          8.2e-07   1.637547929e-08
          8.4e-07   1.637547929e-08
          8.6e-07   1.637547929e-08
          8.8e-07   1.637547929e-08
            9e-07    1.63831389e-08
          9.2e-07    1.63831389e-08
          9.4e-07    1.63831389e-08
          9.6e-07    1.63831389e-08
          9.8e-07    1.63831389e-08
            1e-06   1.638777783e-08
         1.02e-06   1.638777783e-08
         1.04e-06   1.638777783e-08
         1.06e-06   1.638777783e-08
         1.08e-06   1.638777783e-08
          1.1e-06   1.638412866e-08
         1.12e-06   1.638412866e-08
         1.14e-06   1.638412866e-08
         1.16e-06   1.638412866e-08
         1.18e-06   1.638412866e-08
          1.2e-06   1.638209916e-08
         1.22e-06   1.638209916e-08
         1.24e-06   1.638209916e-08
         1.26e-06   1.638209916e-08
         1.28e-06   1.638209916e-08
          1.3e-06    1.63946048e-08
         1.32e-06    1.63946048e-08
         1.34e-06    1.63946048e-08
         1.36e-06    1.63946048e-08
         1.38e-06    1.63946048e-08
          1.4e-06   1.639503132e-08
         1.42e-06   1.639503132e-08
         1.44e-06   1.639503132e-08
         1.46e-06   1.639503132e-08
         1.48e-06   1.639503132e-08
          1.5e-06   1.639430376e-08
         1.52e-06   1.639430376e-08
         1.54e-06   1.639430376e-08
         1.56e-06   1.639430376e-08
         1.58e-06   1.639430376e-08
          1.6e-06     1.6392534e-08
         1.62e-06     1.6392534e-08
         1.64e-06     1.6392534e-08
         1.66e-06     1.6392534e-08
         1.68e-06     1.6392534e-08
          1.7e-06   1.639340876e-08
         1.72e-06   1.639340876e-08
         1.74e-06   1.639340876e-08
         1.76e-06   1.639340876e-08
         1.78e-06   1.639340876e-08
          1.8e-06   1.640543132e-08
         1.82e-06   1.640543132e-08
         1.84e-06   1.640543132e-08
         1.86e-06   1.640543132e-08
         1.88e-06   1.640543132e-08
          1.9e-06   1.640983631e-08
         1.92e-06   1.640983631e-08
         1.94e-06   1.640983631e-08
         1.96e-06   1.640983631e-08
         1.98e-06   1.640983631e-08
            2e-06   1.640501139e-08
         2.02e-06   1.640501139e-08
         2.04e-06   1.640501139e-08
         2.06e-06   1.640501139e-08
         2.08e-06   1.640501139e-08
          2.1e-06   1.640553932e-08
         2.12e-06   1.640553932e-08
         2.14e-06   1.640553932e-08
         2.16e-06   1.640553932e-08
         2.18e-06   1.640553932e-08
          2.2e-06   1.641046859e-08
         2.22e-06   1.641046859e-08
         2.24e-06   1.641046859e-08
         2.26e-06   1.641046859e-08
         2.28e-06   1.641046859e-08
          2.3e-06   1.641060204e-08
         2.32e-06   1.641060204e-08
         2.34e-06   1.641060204e-08
         2.36e-06   1.641060204e-08
         2.38e-06   1.641060204e-08
          2.4e-06   1.641107609e-08
         2.42e-06   1.641107609e-08
         2.44e-06   1.641107609e-08
         2.46e-06   1.641107609e-08
         2.48e-06   1.641107609e-08
          2.5e-06    1.64118208e-08
         2.52e-06    1.64118208e-08
         2.54e-06    1.64118208e-08
         2.56e-06    1.64118208e-08
         2.58e-06    1.64118208e-08
          2.6e-06   1.641983683e-08
         2.62e-06   1.641983683e-08
         2.64e-06   1.641983683e-08
         2.66e-06   1.641983683e-08
         2.68e-06   1.641983683e-08
          2.7e-06   1.642363104e-08
         2.72e-06   1.642363104e-08
         2.74e-06   1.642363104e-08
         2.76e-06   1.642363104e-08
         2.78e-06   1.642363104e-08
          2.8e-06   1.642030525e-08
         2.82e-06   1.642030525e-08
         2.84e-06   1.642030525e-08
         2.86e-06   1.642030525e-08
         2.88e-06   1.642030525e-08
          2.9e-06   1.641757513e-08
         2.92e-06   1.641757513e-08
         2.94e-06   1.641757513e-08
         2.96e-06   1.641757513e-08
         2.98e-06   1.641757513e-08
            3e-06   1.642888485e-08
         3.02e-06   1.642888485e-08
         3.04e-06   1.642888485e-08
         3.06e-06   1.642888485e-08
         3.08e-06   1.642888485e-08
          3.1e-06   1.643438214e-08
         3.12e-06   1.643438214e-08
         3.14e-06   1.643438214e-08
         3.16e-06   1.643438214e-08
         3.18e-06   1.643438214e-08
          3.2e-06   1.642948426e-08
         3.22e-06   1.642948426e-08
         3.24e-06   1.642948426e-08
         3.26e-06   1.642948426e-08
         3.28e-06   1.642948426e-08
          3.3e-06   1.643390418e-08
         3.32e-06   1.643390418e-08
         3.34e-06   1.643390418e-08
         3.36e-06   1.643390418e-08
         3.38e-06   1.643390418e-08
          3.4e-06   1.643586177e-08
         3.42e-06   1.643586177e-08
         3.44e-06   1.643586177e-08
         3.46e-06   1.643586177e-08
         3.48e-06   1.643586177e-08
          3.5e-06   1.643331101e-08
         3.52e-06   1.643331101e-08
         3.54e-06   1.643331101e-08
         3.56e-06   1.643331101e-08
         3.58e-06   1.643331101e-08
          3.6e-06   1.643817141e-08
         3.62e-06   1.643817141e-08
         3.64e-06   1.643817141e-08
         3.66e-06   1.643817141e-08
         3.68e-06   1.643817141e-08
          3.7e-06   1.644069369e-08
         3.72e-06   1.644069369e-08
         3.74e-06   1.644069369e-08
         3.76e-06   1.644069369e-08
         3.78e-06   1.644069369e-08
          3.8e-06   1.643987683e-08
         3.82e-06   1.643987683e-08
         3.84e-06   1.643987683e-08
         3.86e-06   1.643987683e-08
         3.88e-06   1.643987683e-08
          3.9e-06   1.644119047e-08
         3.92e-06   1.644119047e-08
         3.94e-06   1.644119047e-08
         3.96e-06   1.644119047e-08
         3.98e-06   1.644119047e-08
            4e-06   1.645594838e-08
         4.02e-06   1.645594838e-08
         4.04e-06   1.645594838e-08
         4.06e-06   1.645594838e-08
         4.08e-06   1.645594838e-08
          4.1e-06   1.645383636e-08
         4.12e-06   1.645383636e-08
         4.14e-06   1.645383636e-08
         4.16e-06   1.645383636e-08
         4.18e-06   1.645383636e-08
          4.2e-06   1.645421913e-08
         4.22e-06   1.645421913e-08
         4.24e-06   1.645421913e-08
         4.26e-06   1.645421913e-08
         4.28e-06   1.645421913e-08
          4.3e-06    1.64609059e-08
         4.32e-06    1.64609059e-08
         4.34e-06    1.64609059e-08
         4.36e-06    1.64609059e-08
         4.38e-06    1.64609059e-08
          4.4e-06   1.646220651e-08
         4.42e-06   1.646220651e-08
         4.44e-06   1.646220651e-08
         4.46e-06   1.646220651e-08
         4.48e-06   1.646220651e-08
          4.5e-06   1.646106973e-08
         4.52e-06   1.646106973e-08
         4.54e-06   1.646106973e-08
         4.56e-06   1.646106973e-08
         4.58e-06   1.646106973e-08
          4.6e-06   1.646326269e-08
         4.62e-06   1.646326269e-08
         4.64e-06   1.646326269e-08
         4.66e-06   1.646326269e-08
         4.68e-06   1.646326269e-08
          4.7e-06   1.646114329e-08
         4.72e-06   1.646114329e-08
         4.74e-06   1.646114329e-08
         4.76e-06   1.646114329e-08
         4.78e-06   1.646114329e-08
          4.8e-06   1.646952145e-08
         4.82e-06   1.646952145e-08
         4.84e-06   1.646952145e-08
         4.86e-06   1.646952145e-08
         4.88e-06   1.646952145e-08
          4.9e-06   1.646656466e-08
         4.92e-06   1.646656466e-08
         4.94e-06   1.646656466e-08
         4.96e-06   1.646656466e-08
         4.98e-06   1.646656466e-08
            5e-06   1.647360523e-08
         5.02e-06   1.647360523e-08
         5.04e-06   1.647360523e-08
         5.06e-06   1.647360523e-08
         5.08e-06   1.647360523e-08
          5.1e-06    1.64736532e-08
         5.12e-06    1.64736532e-08
         5.14e-06    1.64736532e-08
         5.16e-06    1.64736532e-08
         5.18e-06    1.64736532e-08
          5.2e-06   1.646721986e-08
         5.22e-06   1.646721986e-08
         5.24e-06   1.646721986e-08
         5.26e-06   1.646721986e-08
         5.28e-06   1.646721986e-08
          5.3e-06    1.64658509e-08
         5.32e-06    1.64658509e-08
         5.34e-06    1.64658509e-08
         5.36e-06    1.64658509e-08
         5.38e-06    1.64658509e-08
          5.4e-06   1.647870821e-08
         5.42e-06   1.647870821e-08
         5.44e-06   1.647870821e-08
         5.46e-06   1.647870821e-08
         5.48e-06   1.647870821e-08
          5.5e-06   1.647975741e-08
         5.52e-06   1.647975741e-08
         5.54e-06   1.647975741e-08
         5.56e-06   1.647975741e-08
         5.58e-06   1.647975741e-08
          5.6e-06   1.648433535e-08
         5.62e-06   1.648433535e-08
         5.64e-06   1.648433535e-08
         5.66e-06   1.648433535e-08
         5.68e-06   1.648433535e-08
          5.7e-06   1.648357328e-08
         5.72e-06   1.648357328e-08
         5.74e-06   1.648357328e-08
         5.76e-06   1.648357328e-08
         5.78e-06   1.648357328e-08
          5.8e-06   1.648905605e-08
         5.82e-06   1.648905605e-08
         5.84e-06   1.648905605e-08
         5.86e-06   1.648905605e-08
         5.88e-06   1.648905605e-08
          5.9e-06   1.648357009e-08
         5.92e-06   1.648357009e-08
         5.94e-06   1.648357009e-08
         5.96e-06   1.648357009e-08
         5.98e-06   1.648357009e-08
            6e-06   1.648796284e-08
         6.02e-06   1.648796284e-08
         6.04e-06   1.648796284e-08
         6.06e-06   1.648796284e-08
         6.08e-06   1.648796284e-08
          6.1e-06   1.649055736e-08
         6.12e-06   1.649055736e-08
         6.14e-06   1.649055736e-08
         6.16e-06   1.649055736e-08
         6.18e-06   1.649055736e-08
          6.2e-06   1.649505628e-08
         6.22e-06   1.649505628e-08
         6.24e-06   1.649505628e-08
         6.26e-06   1.649505628e-08
         6.28e-06   1.649505628e-08
          6.3e-06   1.650367903e-08
         6.32e-06   1.650367903e-08
         6.34e-06   1.650367903e-08
         6.36e-06   1.650367903e-08
         6.38e-06   1.650367903e-08
          6.4e-06   1.649997941e-08
         6.42e-06   1.649997941e-08
         6.44e-06   1.649997941e-08
         6.46e-06   1.649997941e-08
         6.48e-06   1.649997941e-08
          6.5e-06   1.649352699e-08
         6.52e-06   1.649352699e-08
         6.54e-06   1.649352699e-08
         6.56e-06   1.649352699e-08
         6.58e-06   1.649352699e-08
          6.6e-06    1.65036803e-08
         6.62e-06    1.65036803e-08
         6.64e-06    1.65036803e-08
         6.66e-06    1.65036803e-08
         6.68e-06    1.65036803e-08
          6.7e-06   1.650524371e-08
         6.72e-06   1.650524371e-08
         6.74e-06   1.650524371e-08
         6.76e-06   1.650524371e-08
         6.78e-06   1.650524371e-08
          6.8e-06   1.650850874e-08
         6.82e-06   1.650850874e-08
         6.84e-06   1.650850874e-08
         6.86e-06   1.650850874e-08
         6.88e-06   1.650850874e-08
          6.9e-06   1.652219178e-08
         6.92e-06   1.652219178e-08
         6.94e-06   1.652219178e-08
         6.96e-06   1.652219178e-08
         6.98e-06   1.652219178e-08
            7e-06   1.651712598e-08
         7.02e-06   1.651712598e-08
         7.04e-06   1.651712598e-08
         7.06e-06   1.651712598e-08
         7.08e-06   1.651712598e-08
          7.1e-06   1.651164851e-08
         7.12e-06   1.651164851e-08
         7.14e-06   1.651164851e-08
         7.16e-06   1.651164851e-08
         7.18e-06   1.651164851e-08
          7.2e-06   1.651501736e-08
         7.22e-06   1.651501736e-08
         7.24e-06   1.651501736e-08
         7.26e-06   1.651501736e-08
         7.28e-06   1.651501736e-08
          7.3e-06   1.651381081e-08
         7.32e-06   1.651381081e-08
         7.34e-06   1.651381081e-08
         7.36e-06   1.651381081e-08
         7.38e-06   1.651381081e-08
          7.4e-06   1.652129671e-08
         7.42e-06   1.652129671e-08
         7.44e-06   1.652129671e-08
         7.46e-06   1.652129671e-08
         7.48e-06   1.652129671e-08
          7.5e-06   1.651406096e-08
         7.52e-06   1.651406096e-08
         7.54e-06   1.651406096e-08
         7.56e-06   1.651406096e-08
         7.58e-06   1.651406096e-08
          7.6e-06   1.651933673e-08
         7.62e-06   1.651933673e-08
         7.64e-06   1.651933673e-08
         7.66e-06   1.651933673e-08
         7.68e-06   1.651933673e-08
          7.7e-06   1.652405571e-08
         7.72e-06   1.652405571e-08
         7.74e-06   1.652405571e-08
         7.76e-06   1.652405571e-08
         7.78e-06   1.652405571e-08
          7.8e-06   1.653169397e-08
         7.82e-06   1.653169397e-08
         7.84e-06   1.653169397e-08
         7.86e-06   1.653169397e-08
         7.88e-06   1.653169397e-08
          7.9e-06   1.652971837e-08
         7.92e-06   1.652971837e-08
         7.94e-06   1.652971837e-08
         7.96e-06   1.652971837e-08
         7.98e-06   1.652971837e-08
            8e-06   1.652429326e-08
         8.02e-06   1.652429326e-08
         8.04e-06   1.652429326e-08
         8.06e-06   1.652429326e-08
         8.08e-06   1.652429326e-08
          8.1e-06   1.652926659e-08
         8.12e-06   1.652926659e-08
         8.14e-06   1.652926659e-08
         8.16e-06   1.652926659e-08
         8.18e-06   1.652926659e-08
          8.2e-06   1.653158753e-08
         8.22e-06   1.653158753e-08
         8.24e-06   1.653158753e-08
         8.26e-06   1.653158753e-08
         8.28e-06   1.653158753e-08
          8.3e-06    1.65277105e-08
         8.32e-06    1.65277105e-08
         8.34e-06    1.65277105e-08
         8.36e-06    1.65277105e-08
         8.38e-06    1.65277105e-08
          8.4e-06   1.653702268e-08
         8.42e-06   1.653702268e-08
         8.44e-06   1.653702268e-08
         8.46e-06   1.653702268e-08
         8.48e-06   1.653702268e-08
          8.5e-06   1.654438963e-08
         8.52e-06   1.654438963e-08
         8.54e-06   1.654438963e-08
         8.56e-06   1.654438963e-08
         8.58e-06   1.654438963e-08
          8.6e-06   1.654189416e-08
         8.62e-06   1.654189416e-08
         8.64e-06   1.654189416e-08
         8.66e-06   1.654189416e-08
         8.68e-06   1.654189416e-08
          8.7e-06   1.654486723e-08
         8.72e-06   1.654486723e-08
         8.74e-06   1.654486723e-08
         8.76e-06   1.654486723e-08
         8.78e-06   1.654486723e-08
          8.8e-06   1.655151362e-08
         8.82e-06   1.655151362e-08
         8.84e-06   1.655151362e-08
         8.86e-06   1.655151362e-08
         8.88e-06   1.655151362e-08
          8.9e-06   1.655829559e-08
         8.92e-06   1.655829559e-08
         8.94e-06   1.655829559e-08
         8.96e-06   1.655829559e-08
         8.98e-06   1.655829559e-08
            9e-06   1.655429232e-08
         9.02e-06   1.655429232e-08
         9.04e-06   1.655429232e-08
         9.06e-06   1.655429232e-08
         9.08e-06   1.655429232e-08
          9.1e-06   1.655059423e-08
         9.12e-06   1.655059423e-08
         9.14e-06   1.655059423e-08
         9.16e-06   1.655059423e-08
         9.18e-06   1.655059423e-08
          9.2e-06   1.654908755e-08
         9.22e-06   1.654908755e-08
         9.24e-06   1.654908755e-08
         9.26e-06   1.654908755e-08
         9.28e-06   1.654908755e-08
          9.3e-06   1.656093219e-08
         9.32e-06   1.656093219e-08
         9.34e-06   1.656093219e-08
         9.36e-06   1.656093219e-08
         9.38e-06   1.656093219e-08
          9.4e-06   1.655628046e-08
         9.42e-06   1.655628046e-08
         9.44e-06   1.655628046e-08
         9.46e-06   1.655628046e-08
         9.48e-06   1.655628046e-08
          9.5e-06   1.655348466e-08
         9.52e-06   1.655348466e-08
         9.54e-06   1.655348466e-08
         9.56e-06   1.655348466e-08
         9.58e-06   1.655348466e-08
          9.6e-06   1.656188047e-08
         9.62e-06   1.656188047e-08
         9.64e-06   1.656188047e-08
         9.66e-06   1.656188047e-08
         9.68e-06   1.656188047e-08
          9.7e-06   1.658222278e-08
         9.72e-06   1.658222278e-08
         9.74e-06   1.658222278e-08
         9.76e-06   1.658222278e-08
         9.78e-06   1.658222278e-08
          9.8e-06   1.657365641e-08
         9.82e-06   1.657365641e-08
         9.84e-06   1.657365641e-08
         9.86e-06   1.657365641e-08
         9.88e-06   1.657365641e-08
          9.9e-06    1.65678261e-08
         9.92e-06    1.65678261e-08
         9.94e-06    1.65678261e-08
         9.96e-06    1.65678261e-08
         9.98e-06    1.65678261e-08
            1e-05   1.658230149e-08
        1.002e-05   1.658230149e-08
        1.004e-05   1.658230149e-08
        1.006e-05   1.658230149e-08
        1.008e-05   1.658230149e-08
         1.01e-05   1.657574612e-08
        1.012e-05   1.657574612e-08
        1.014e-05   1.657574612e-08
        1.016e-05   1.657574612e-08
        1.018e-05   1.657574612e-08
         1.02e-05   1.657263474e-08
        1.022e-05   1.657263474e-08
        1.024e-05   1.657263474e-08
        1.026e-05   1.657263474e-08
        1.028e-05   1.657263474e-08
         1.03e-05   1.657585552e-08
        1.032e-05   1.657585552e-08
        1.034e-05   1.657585552e-08
        1.036e-05   1.657585552e-08
        1.038e-05   1.657585552e-08
         1.04e-05   1.657735986e-08
        1.042e-05   1.657735986e-08
        1.044e-05   1.657735986e-08
        1.046e-05   1.657735986e-08
        1.048e-05   1.657735986e-08
         1.05e-05   1.658202882e-08
        1.052e-05   1.658202882e-08
        1.054e-05   1.658202882e-08
        1.056e-05   1.658202882e-08
        1.058e-05   1.658202882e-08
         1.06e-05   1.658430311e-08
        1.062e-05   1.658430311e-08
        1.064e-05   1.658430311e-08
        1.066e-05   1.658430311e-08
        1.068e-05   1.658430311e-08
         1.07e-05   1.657848428e-08
        1.072e-05   1.657848428e-08
        1.074e-05   1.657848428e-08
        1.076e-05   1.657848428e-08
        1.078e-05   1.657848428e-08
         1.08e-05   1.658647428e-08
        1.082e-05   1.658647428e-08
        1.084e-05   1.658647428e-08
        1.086e-05   1.658647428e-08
        1.088e-05   1.658647428e-08
         1.09e-05   1.658796351e-08
        1.092e-05   1.658796351e-08
        1.094e-05   1.658796351e-08
        1.096e-05   1.658796351e-08
        1.098e-05   1.658796351e-08
          1.1e-05   1.658877238e-08
        1.102e-05   1.658877238e-08
        1.104e-05   1.658877238e-08
        1.106e-05   1.658877238e-08
        1.108e-05   1.658877238e-08
         1.11e-05   1.659538325e-08
        1.112e-05   1.659538325e-08
        1.114e-05   1.659538325e-08
        1.116e-05   1.659538325e-08
        1.118e-05   1.659538325e-08
         1.12e-05   1.659183776e-08
        1.122e-05   1.659183776e-08
        1.124e-05   1.659183776e-08
        1.126e-05   1.659183776e-08
        1.128e-05   1.659183776e-08
         1.13e-05   1.659253138e-08
        1.132e-05   1.659253138e-08
        1.134e-05   1.659253138e-08
        1.136e-05   1.659253138e-08
        1.138e-05   1.659253138e-08
         1.14e-05   1.658999712e-08
        1.142e-05   1.658999712e-08
        1.144e-05   1.658999712e-08
        1.146e-05   1.658999712e-08
        1.148e-05   1.658999712e-08
         1.15e-05   1.659228498e-08
        1.152e-05   1.659228498e-08
        1.154e-05   1.659228498e-08
        1.156e-05   1.659228498e-08
        1.158e-05   1.659228498e-08
         1.16e-05   1.659852693e-08
        1.162e-05   1.659852693e-08
        1.164e-05   1.659852693e-08
        1.166e-05   1.659852693e-08
        1.168e-05   1.659852693e-08
         1.17e-05    1.65996106e-08
        1.172e-05    1.65996106e-08
        1.174e-05    1.65996106e-08
        1.176e-05    1.65996106e-08
        1.178e-05    1.65996106e-08
         1.18e-05   1.659991263e-08
        1.182e-05   1.659991263e-08
        1.184e-05   1.659991263e-08
        1.186e-05   1.659991263e-08
        1.188e-05   1.659991263e-08
         1.19e-05   1.660442424e-08
        1.192e-05   1.660442424e-08
        1.194e-05   1.660442424e-08
        1.196e-05   1.660442424e-08
        1.198e-05   1.660442424e-08
          1.2e-05   1.661467612e-08
        1.202e-05   1.661467612e-08
        1.204e-05   1.661467612e-08
        1.206e-05   1.661467612e-08
        1.208e-05   1.661467612e-08
         1.21e-05   1.660671153e-08
        1.212e-05   1.660671153e-08
        1.214e-05   1.660671153e-08
        1.216e-05   1.660671153e-08
        1.218e-05   1.660671153e-08
         1.22e-05    1.66092848e-08
        1.222e-05    1.66092848e-08
        1.224e-05    1.66092848e-08
        1.226e-05    1.66092848e-08
        1.228e-05    1.66092848e-08
         1.23e-05   1.661263098e-08
        1.232e-05   1.661263098e-08
        1.234e-05   1.661263098e-08
        1.236e-05   1.661263098e-08
        1.238e-05   1.661263098e-08
         1.24e-05   1.661970303e-08
        1.242e-05   1.661970303e-08
        1.244e-05   1.661970303e-08
        1.246e-05   1.661970303e-08
        1.248e-05   1.661970303e-08
         1.25e-05   1.661501556e-08
        1.252e-05   1.661501556e-08
        1.254e-05   1.661501556e-08
        1.256e-05   1.661501556e-08
        1.258e-05   1.661501556e-08
         1.26e-05   1.662004263e-08
        1.262e-05   1.662004263e-08
        1.264e-05   1.662004263e-08
        1.266e-05   1.662004263e-08
        1.268e-05   1.662004263e-08
         1.27e-05     1.6621028e-08
        1.272e-05     1.6621028e-08
        1.274e-05     1.6621028e-08
        1.276e-05     1.6621028e-08
        1.278e-05     1.6621028e-08
         1.28e-05    1.66223279e-08
        1.282e-05    1.66223279e-08
        1.284e-05    1.66223279e-08
        1.286e-05    1.66223279e-08
        1.288e-05    1.66223279e-08
         1.29e-05    1.66241865e-08
        1.292e-05    1.66241865e-08
        1.294e-05    1.66241865e-08
        1.296e-05    1.66241865e-08
        1.298e-05    1.66241865e-08
          1.3e-05   1.662109554e-08
        1.302e-05   1.662109554e-08
        1.304e-05   1.662109554e-08
        1.306e-05   1.662109554e-08
        1.308e-05   1.662109554e-08
         1.31e-05   1.662247804e-08
        1.312e-05   1.662247804e-08
        1.314e-05   1.662247804e-08
        1.316e-05   1.662247804e-08
        1.318e-05   1.662247804e-08
         1.32e-05   1.662239931e-08
        1.322e-05   1.662239931e-08
        1.324e-05   1.662239931e-08
        1.326e-05   1.662239931e-08
        1.328e-05   1.662239931e-08
         1.33e-05   1.662221298e-08
        1.332e-05   1.662221298e-08
        1.334e-05   1.662221298e-08
        1.336e-05   1.662221298e-08
        1.338e-05   1.662221298e-08
         1.34e-05   1.663411656e-08
        1.342e-05   1.663411656e-08
        1.344e-05   1.663411656e-08
        1.346e-05   1.663411656e-08
        1.348e-05   1.663411656e-08
         1.35e-05   1.663621332e-08
        1.352e-05   1.663621332e-08
        1.354e-05   1.663621332e-08
        1.356e-05   1.663621332e-08
        1.358e-05   1.663621332e-08
         1.36e-05   1.664364673e-08
        1.362e-05   1.664364673e-08
        1.364e-05   1.664364673e-08
        1.366e-05   1.664364673e-08
        1.368e-05   1.664364673e-08
         1.37e-05   1.663919635e-08
        1.372e-05   1.663919635e-08
        1.374e-05   1.663919635e-08
        1.376e-05   1.663919635e-08
        1.378e-05   1.663919635e-08
         1.38e-05   1.664473252e-08
        1.382e-05   1.664473252e-08
        1.384e-05   1.664473252e-08
        1.386e-05   1.664473252e-08
        1.388e-05   1.664473252e-08
         1.39e-05   1.663904897e-08
        1.392e-05   1.663904897e-08
        1.394e-05   1.663904897e-08
        1.396e-05   1.663904897e-08
        1.398e-05   1.663904897e-08
          1.4e-05   1.663993331e-08
        1.402e-05   1.663993331e-08
        1.404e-05   1.663993331e-08
        1.406e-05   1.663993331e-08
        1.408e-05   1.663993331e-08
         1.41e-05   1.664261567e-08
        1.412e-05   1.664261567e-08
        1.414e-05   1.664261567e-08
        1.416e-05   1.664261567e-08
        1.418e-05   1.664261567e-08
         1.42e-05   1.664036659e-08
        1.422e-05   1.664036659e-08
        1.424e-05   1.664036659e-08
        1.426e-05   1.664036659e-08
        1.428e-05   1.664036659e-08
         1.43e-05   1.664734623e-08
        1.432e-05   1.664734623e-08
        1.434e-05   1.664734623e-08
        1.436e-05   1.664734623e-08
        1.438e-05   1.664734623e-08
         1.44e-05   1.664424457e-08
        1.442e-05   1.664424457e-08
        1.444e-05   1.664424457e-08
        1.446e-05   1.664424457e-08
        1.448e-05   1.664424457e-08
         1.45e-05   1.665231342e-08
        1.452e-05   1.665231342e-08
        1.454e-05   1.665231342e-08
        1.456e-05   1.665231342e-08
        1.458e-05   1.665231342e-08
         1.46e-05   1.665284992e-08
        1.462e-05   1.665284992e-08
        1.464e-05   1.665284992e-08
        1.466e-05   1.665284992e-08
        1.468e-05   1.665284992e-08
         1.47e-05   1.664687843e-08
        1.472e-05   1.664687843e-08
        1.474e-05   1.664687843e-08
        1.476e-05   1.664687843e-08
        1.478e-05   1.664687843e-08
         1.48e-05   1.665623715e-08
        1.482e-05   1.665623715e-08
        1.484e-05   1.665623715e-08
        1.486e-05   1.665623715e-08
        1.488e-05   1.665623715e-08
         1.49e-05   1.666210672e-08
        1.492e-05   1.666210672e-08
        1.494e-05   1.666210672e-08
        1.496e-05   1.666210672e-08
        1.498e-05   1.666210672e-08
          1.5e-05   1.665407186e-08
        1.502e-05   1.665407186e-08
        1.504e-05   1.665407186e-08
        1.506e-05   1.665407186e-08
        1.508e-05   1.665407186e-08
         1.51e-05   1.665711493e-08
        1.512e-05   1.665711493e-08
        1.514e-05   1.665711493e-08
        1.516e-05   1.665711493e-08
        1.518e-05   1.665711493e-08
         1.52e-05   1.666289815e-08
        1.522e-05   1.666289815e-08
        1.524e-05   1.666289815e-08
        1.526e-05   1.666289815e-08
        1.528e-05   1.666289815e-08
         1.53e-05   1.666972951e-08
        1.532e-05   1.666972951e-08
        1.534e-05   1.666972951e-08
        1.536e-05   1.666972951e-08
        1.538e-05   1.666972951e-08
         1.54e-05   1.667105848e-08
        1.542e-05   1.667105848e-08
        1.544e-05   1.667105848e-08
        1.546e-05   1.667105848e-08
        1.548e-05   1.667105848e-08
         1.55e-05   1.667293898e-08
        1.552e-05   1.667293898e-08
        1.554e-05   1.667293898e-08
        1.556e-05   1.667293898e-08
        1.558e-05   1.667293898e-08
         1.56e-05   1.666990694e-08
        1.562e-05   1.666990694e-08
        1.564e-05   1.666990694e-08
        1.566e-05   1.666990694e-08
        1.568e-05   1.666990694e-08
         1.57e-05   1.667928033e-08
        1.572e-05   1.667928033e-08
        1.574e-05   1.667928033e-08
        1.576e-05   1.667928033e-08
        1.578e-05   1.667928033e-08
         1.58e-05   1.667835037e-08
        1.582e-05   1.667835037e-08
        1.584e-05   1.667835037e-08
        1.586e-05   1.667835037e-08
        1.588e-05   1.667835037e-08
         1.59e-05   1.667639975e-08
        1.592e-05   1.667639975e-08
        1.594e-05   1.667639975e-08
        1.596e-05   1.667639975e-08
        1.598e-05   1.667639975e-08
          1.6e-05   1.668239505e-08
        1.602e-05   1.668239505e-08
        1.604e-05   1.668239505e-08
        1.606e-05   1.668239505e-08
        1.608e-05   1.668239505e-08
         1.61e-05   1.668826202e-08
        1.612e-05   1.668826202e-08
        1.614e-05   1.668826202e-08
        1.616e-05   1.668826202e-08
        1.618e-05   1.668826202e-08
         1.62e-05   1.668570565e-08
        1.622e-05   1.668570565e-08
        1.624e-05   1.668570565e-08
        1.626e-05   1.668570565e-08
        1.628e-05   1.668570565e-08
         1.63e-05   1.668968416e-08
        1.632e-05   1.668968416e-08
        1.634e-05   1.668968416e-08
        1.636e-05   1.668968416e-08
        1.638e-05   1.668968416e-08
         1.64e-05   1.668534091e-08
        1.642e-05   1.668534091e-08
        1.644e-05   1.668534091e-08
        1.646e-05   1.668534091e-08
        1.648e-05   1.668534091e-08
         1.65e-05   1.668571263e-08
        1.652e-05   1.668571263e-08
        1.654e-05   1.668571263e-08
        1.656e-05   1.668571263e-08
        1.658e-05   1.668571263e-08
         1.66e-05   1.669341979e-08
        1.662e-05   1.669341979e-08