# Probe 0 (5e-06 5e-06 5e-06)
#           Probe                 0
#            Time
            2e-08                 0
            4e-08                 0
            6e-08                 0
            8e-08                 0
            1e-07       5020.327003
          1.2e-07       5020.327003
          1.4e-07       5020.327003
          1.6e-07       5020.327003
          1.8e-07       5020.327003
            2e-07       5016.361094
          2.2e-07       5016.361094
          2.4e-07       5016.361094
          2.6e-07       5016.361094
          2.8e-07       5016.361094
            3e-07       5010.225364
          3.2e-07       5010.225364
          3.4e-07       5010.225364
          3.6e-07       5010.225364
          3.8e-07       5010.225364
            4e-07        5008.94682
          4.2e-07        5008.94682
          4.4e-07        5008.94682
          4.6e-07        5008.94682
          4.8e-07        5008.94682
            5e-07       5011.506909
          5.2e-07       5011.506909
          5.4e-07       5011.506909
          5.6e-07       5011.506909
          5.8e-07       5011.506909
            6e-07        4998.99442
          6.2e-07        4998.99442
          6.4e-07        4998.99442
          6.6e-07        4998.99442
          6.8e-07        4998.99442
            7e-07       4992.762203
          7.2e-07       4992.762203
          7.4e-07       4992.762203
          7.6e-07       4992.762203
          7.8e-07       4992.762203
            8e-07       5002.125464
          8.2e-07       5002.125464
          8.4e-07       5002.125464
          8.6e-07       5002.125464
          8.8e-07       5002.125464
            9e-07       4991.965407
          9.2e-07       4991.965407
          9.4e-07       4991.965407
          9.6e-07       4991.965407
          9.8e-07       4991.965407
            1e-06       4985.824449
         1.02e-06       4985.824449
         1.04e-06       4985.824449
         1.06e-06       4985.824449
         1.08e-06       4985.824449
          1.1e-06       4990.654392
         1.12e-06       4990.654392
         1.14e-06       4990.654392
         1.16e-06       4990.654392
         1.18e-06       4990.654392
          1.2e-06        4993.34308
         1.22e-06        4993.34308
         1.24e-06        4993.34308
         1.26e-06        4993.34308
         1.28e-06        4993.34308
          1.3e-06       4976.803896
         1.32e-06       4976.803896
         1.34e-06       4976.803896
         1.36e-06       4976.803896
         1.38e-06       4976.803896
          1.4e-06        4976.24099
         1.42e-06        4976.24099
         1.44e-06        4976.24099
         1.46e-06        4976.24099
         1.48e-06        4976.24099
          1.5e-06       4977.201236
         1.52e-06       4977.201236
         1.54e-06       4977.201236
         1.56e-06       4977.201236
         1.58e-06       4977.201236
          1.6e-06       4979.537944
         1.62e-06       4979.537944
         1.64e-06       4979.537944
         1.66e-06       4979.537944
         1.68e-06       4979.537944
          1.7e-06       4978.382787
         1.72e-06       4978.382787
         1.74e-06       4978.382787
         1.76e-06       4978.382787
         1.78e-06       4978.382787
          1.8e-06       4962.539798
         1.82e-06       4962.539798
         1.84e-06       4962.539798
         1.86e-06       4962.539798
         1.88e-06       4962.539798
          1.9e-06       4956.750566
         1.92e-06       4956.750566
         1.94e-06       4956.750566
         1.96e-06       4956.750566
         1.98e-06       4956.750566
            2e-06       4963.092126
         2.02e-06       4963.092126
         2.04e-06       4963.092126
         2.06e-06       4963.092126
         2.08e-06       4963.092126
          2.1e-06       4962.397758
         2.12e-06       4962.397758
         2.14e-06       4962.397758
         2.16e-06       4962.397758
         2.18e-06       4962.397758
          2.2e-06       4955.920274
         2.22e-06       4955.920274
         2.24e-06       4955.920274
         2.26e-06       4955.920274
         2.28e-06       4955.920274
          2.3e-06       4955.745048
         2.32e-06       4955.745048
         2.34e-06       4955.745048
         2.36e-06       4955.745048
         2.38e-06       4955.745048
          2.4e-06       4955.122679
         2.42e-06       4955.122679
         2.44e-06       4955.122679
         2.46e-06       4955.122679
         2.48e-06       4955.122679
          2.5e-06       4954.145166
         2.52e-06       4954.145166
         2.54e-06       4954.145166
         2.56e-06       4954.145166
         2.58e-06       4954.145166
          2.6e-06       4943.638225
         2.62e-06       4943.638225
         2.64e-06       4943.638225
         2.66e-06       4943.638225
         2.68e-06       4943.638225
          2.7e-06       4938.674542
         2.72e-06       4938.674542
         2.74e-06       4938.674542
         2.76e-06       4938.674542
         2.78e-06       4938.674542
          2.8e-06       4943.025086
         2.82e-06       4943.025086
         2.84e-06       4943.025086
         2.86e-06       4943.025086
         2.88e-06       4943.025086
          2.9e-06       4946.599953
         2.92e-06       4946.599953
         2.94e-06       4946.599953
         2.96e-06       4946.599953
         2.98e-06       4946.599953
            3e-06       4931.811508
         3.02e-06       4931.811508
         3.04e-06       4931.811508
         3.06e-06       4931.811508
         3.08e-06       4931.811508
          3.1e-06       4924.642966
         3.12e-06       4924.642966
         3.14e-06       4924.642966
         3.16e-06       4924.642966
         3.18e-06       4924.642966
          3.2e-06       4931.029248
         3.22e-06       4931.029248
         3.24e-06       4931.029248
         3.26e-06       4931.029248
         3.28e-06       4931.029248
          3.3e-06       4925.265728
         3.32e-06       4925.265728
         3.34e-06       4925.265728
         3.36e-06       4925.265728
         3.38e-06       4925.265728
          3.4e-06       4922.715701
         3.42e-06       4922.715701
         3.44e-06       4922.715701
         3.46e-06       4922.715701
         3.48e-06       4922.715701
          3.5e-06       4926.038739
         3.52e-06       4926.038739
         3.54e-06       4926.038739
         3.56e-06       4926.038739
         3.58e-06       4926.038739
          3.6e-06       4919.709169
         3.62e-06       4919.709169
         3.64e-06       4919.709169
         3.66e-06       4919.709169
         3.68e-06       4919.709169
          3.7e-06       4916.428424
         3.72e-06       4916.428424
         3.74e-06       4916.428424
         3.76e-06       4916.428424
         3.78e-06       4916.428424
          3.8e-06       4917.490629
         3.82e-06       4917.490629
         3.84e-06       4917.490629
         3.86e-06       4917.490629
         3.88e-06       4917.490629
          3.9e-06        4915.78257
         3.92e-06        4915.78257
         3.94e-06        4915.78257
         3.96e-06        4915.78257
         3.98e-06        4915.78257
            4e-06       4896.643766
         4.02e-06       4896.643766
         4.04e-06       4896.643766
         4.06e-06       4896.643766
         4.08e-06       4896.643766
          4.1e-06       4899.377119
         4.12e-06       4899.377119
         4.14e-06       4899.377119
         4.16e-06       4899.377119
         4.18e-06       4899.377119
          4.2e-06       4898.881599
         4.22e-06       4898.881599
         4.24e-06       4898.881599
         4.26e-06       4898.881599
         4.28e-06       4898.881599
          4.3e-06       4890.235176
         4.32e-06       4890.235176
         4.34e-06       4890.235176
         4.36e-06       4890.235176
         4.38e-06       4890.235176
          4.4e-06       4888.555594
         4.42e-06       4888.555594
         4.44e-06       4888.555594
         4.46e-06       4888.555594
         4.48e-06       4888.555594
          4.5e-06       4890.023568
         4.52e-06       4890.023568
         4.54e-06       4890.023568
         4.56e-06       4890.023568
         4.58e-06       4890.023568
          4.6e-06       4887.192178
         4.62e-06       4887.192178
         4.64e-06       4887.192178
         4.66e-06       4887.192178
         4.68e-06       4887.192178
          4.7e-06       4889.928569
         4.72e-06       4889.928569
         4.74e-06       4889.928569
         4.76e-06       4889.928569
         4.78e-06       4889.928569
          4.8e-06        4879.12237
         4.82e-06        4879.12237
         4.84e-06        4879.12237
         4.86e-06        4879.12237
         4.88e-06        4879.12237
          4.9e-06       4882.932707
         4.92e-06       4882.932707
         4.94e-06       4882.932707
         4.96e-06       4882.932707
         4.98e-06       4882.932707
            5e-06       4873.865753
         5.02e-06       4873.865753
         5.04e-06       4873.865753
         5.06e-06       4873.865753
         5.08e-06       4873.865753
          5.1e-06       4873.804043
         5.12e-06       4873.804043
         5.14e-06       4873.804043
         5.16e-06       4873.804043
         5.18e-06       4873.804043
          5.2e-06       4882.088051
         5.22e-06       4882.088051
         5.24e-06       4882.088051
         5.26e-06       4882.088051
         5.28e-06       4882.088051
          5.3e-06       4883.853053
         5.32e-06       4883.853053
         5.34e-06       4883.853053
         5.36e-06       4883.853053
         5.38e-06       4883.853053
          5.4e-06       4867.306993
         5.42e-06       4867.306993
         5.44e-06       4867.306993
         5.46e-06       4867.306993
         5.48e-06       4867.306993
          5.5e-06       4865.959829
         5.52e-06       4865.959829
         5.54e-06       4865.959829
         5.56e-06       4865.959829
         5.58e-06       4865.959829
          5.6e-06       4860.087133
         5.62e-06       4860.087133
         5.64e-06       4860.087133
         5.66e-06       4860.087133
         5.68e-06       4860.087133
          5.7e-06       4861.064122
         5.72e-06       4861.064122
         5.74e-06       4861.064122
         5.76e-06       4861.064122
         5.78e-06       4861.064122
          5.8e-06       4854.040429
         5.82e-06       4854.040429
         5.84e-06       4854.040429
         5.86e-06       4854.040429
         5.88e-06       4854.040429
          5.9e-06       4861.068215
         5.92e-06       4861.068215
         5.94e-06       4861.068215
         5.96e-06       4861.068215
         5.98e-06       4861.068215
            6e-06        4855.43989
         6.02e-06        4855.43989
         6.04e-06        4855.43989
         6.06e-06        4855.43989
         6.08e-06        4855.43989
          6.1e-06       4852.119349
         6.12e-06       4852.119349
         6.14e-06       4852.119349
         6.16e-06       4852.119349
         6.18e-06       4852.119349
          6.2e-06       4846.368127
         6.22e-06       4846.368127
         6.24e-06       4846.368127
         6.26e-06       4846.368127
         6.28e-06       4846.368127
          6.3e-06       4835.368609
         6.32e-06       4835.368609
         6.34e-06       4835.368609
         6.36e-06       4835.368609
         6.38e-06       4835.368609
          6.4e-06       4840.084226
         6.42e-06       4840.084226
         6.44e-06       4840.084226
         6.46e-06       4840.084226
         6.48e-06       4840.084226
          6.5e-06       4848.322163
         6.52e-06       4848.322163
         6.54e-06       4848.322163
         6.56e-06       4848.322163
         6.58e-06       4848.322163
          6.6e-06          4835.367
         6.62e-06          4835.367
         6.64e-06          4835.367
         6.66e-06          4835.367
         6.68e-06          4835.367
          6.7e-06       4833.375932
         6.72e-06       4833.375932
         6.74e-06       4833.375932
         6.76e-06       4833.375932
         6.78e-06       4833.375932
          6.8e-06       4829.221054
         6.82e-06       4829.221054
         6.84e-06       4829.221054
         6.86e-06       4829.221054
         6.88e-06       4829.221054
          6.9e-06        4811.85656
         6.92e-06        4811.85656
         6.94e-06        4811.85656
         6.96e-06        4811.85656
         6.98e-06        4811.85656
            7e-06        4818.27637
         7.02e-06        4818.27637
         7.04e-06        4818.27637
         7.06e-06        4818.27637
         7.08e-06        4818.27637
          7.1e-06       4825.229719
         7.12e-06       4825.229719
         7.14e-06       4825.229719
         7.16e-06       4825.229719
         7.18e-06       4825.229719
          7.2e-06       4820.951685
         7.22e-06       4820.951685
         7.24e-06       4820.951685
         7.26e-06       4820.951685
         7.28e-06       4820.951685
          7.3e-06       4822.483326
         7.32e-06       4822.483326
         7.34e-06       4822.483326
         7.36e-06       4822.483326
         7.38e-06       4822.483326
          7.4e-06       4812.990112
         7.42e-06       4812.990112
         7.44e-06       4812.990112
         7.46e-06       4812.990112
         7.48e-06       4812.990112
          7.5e-06        4822.16572
         7.52e-06        4822.16572
         7.54e-06        4822.16572
         7.56e-06        4822.16572
         7.58e-06        4822.16572
          7.6e-06       4815.473424
         7.62e-06       4815.473424
         7.64e-06       4815.473424
         7.66e-06       4815.473424
         7.68e-06       4815.473424
          7.7e-06       4809.497094
         7.72e-06       4809.497094
         7.74e-06       4809.497094
         7.76e-06       4809.497094
         7.78e-06       4809.497094
          7.8e-06        4799.84296
         7.82e-06        4799.84296
         7.84e-06        4799.84296
         7.86e-06        4799.84296
         7.88e-06        4799.84296
          7.9e-06        4802.33767
         7.92e-06        4802.33767
         7.94e-06        4802.33767
         7.96e-06        4802.33767
         7.98e-06        4802.33767
            8e-06       4809.196484
         8.02e-06       4809.196484
         8.04e-06       4809.196484
         8.06e-06       4809.196484
         8.08e-06       4809.196484
          8.1e-06       4802.908383
         8.12e-06       4802.908383
         8.14e-06       4802.908383
         8.16e-06       4802.908383
         8.18e-06       4802.908383
          8.2e-06       4799.977328
         8.22e-06       4799.977328
         8.24e-06       4799.977328
         8.26e-06       4799.977328
         8.28e-06       4799.977328
          8.3e-06       4804.874755
         8.32e-06       4804.874755
         8.34e-06       4804.874755
         8.36e-06       4804.874755
         8.38e-06       4804.874755
          8.4e-06       4793.122032
         8.42e-06       4793.122032
         8.44e-06       4793.122032
         8.46e-06       4793.122032
         8.48e-06       4793.122032
          8.5e-06       4783.849379
         8.52e-06       4783.849379
         8.54e-06       4783.849379
         8.56e-06       4783.849379
         8.58e-06       4783.849379
          8.6e-06       4786.987906
         8.62e-06       4786.987906
         8.64e-06       4786.987906
         8.66e-06       4786.987906
         8.68e-06       4786.987906
          8.7e-06        4783.24899
         8.72e-06        4783.24899
         8.74e-06        4783.24899
         8.76e-06        4783.24899
         8.78e-06        4783.24899
          8.8e-06       4774.903512
         8.82e-06       4774.903512
         8.84e-06       4774.903512
         8.86e-06       4774.903512
         8.88e-06       4774.903512
          8.9e-06       4766.406248
         8.92e-06       4766.406248
         8.94e-06       4766.406248
         8.96e-06       4766.406248
         8.98e-06       4766.406248
            9e-06       4771.419769
         9.02e-06       4771.419769
         9.04e-06       4771.419769
         9.06e-06       4771.419769
         9.08e-06       4771.419769
          9.1e-06       4776.056863
         9.12e-06       4776.056863
         9.14e-06       4776.056863
         9.16e-06       4776.056863
         9.18e-06       4776.056863
          9.2e-06       4777.947703
         9.22e-06       4777.947703
         9.24e-06       4777.947703
         9.26e-06       4777.947703
         9.28e-06       4777.947703
          9.3e-06       4763.107814
         9.32e-06       4763.107814
         9.34e-06       4763.107814
         9.36e-06       4763.107814
         9.38e-06       4763.107814
          9.4e-06         4768.9291
         9.42e-06         4768.9291
         9.44e-06         4768.9291
         9.46e-06         4768.9291
         9.48e-06         4768.9291
          9.5e-06       4772.432039
         9.52e-06       4772.432039
         9.54e-06       4772.432039
         9.56e-06       4772.432039
         9.58e-06       4772.432039
          9.6e-06       4761.922188
         9.62e-06       4761.922188
         9.64e-06       4761.922188
         9.66e-06       4761.922188
         9.68e-06       4761.922188
          9.7e-06       4736.575568
         9.72e-06       4736.575568
         9.74e-06       4736.575568
         9.76e-06       4736.575568
         9.78e-06       4736.575568
          9.8e-06       4747.229035
         9.82e-06       4747.229035
         9.84e-06       4747.229035
         9.86e-06       4747.229035
         9.88e-06       4747.229035
          9.9e-06       4754.496683
         9.92e-06       4754.496683
         9.94e-06       4754.496683
         9.96e-06       4754.496683
         9.98e-06       4754.496683
            1e-05       4736.477811
        1.002e-05       4736.477811
        1.004e-05       4736.477811
        1.006e-05       4736.477811
        1.008e-05       4736.477811
         1.01e-05       4744.627479
        1.012e-05       4744.627479
        1.014e-05       4744.627479
        1.016e-05       4744.627479
        1.018e-05       4744.627479
         1.02e-05       4748.501586
        1.022e-05       4748.501586
        1.024e-05       4748.501586
        1.026e-05       4748.501586
        1.028e-05       4748.501586
         1.03e-05       4744.491325
        1.032e-05       4744.491325
        1.034e-05       4744.491325
        1.036e-05       4744.491325
        1.038e-05       4744.491325
         1.04e-05       4742.619672
        1.042e-05       4742.619672
        1.044e-05       4742.619672
        1.046e-05       4742.619672
        1.048e-05       4742.619672
         1.05e-05        4736.81646
        1.052e-05        4736.81646
        1.054e-05        4736.81646
        1.056e-05        4736.81646
        1.058e-05        4736.81646
         1.06e-05       4733.992824
        1.062e-05       4733.992824
        1.064e-05       4733.992824
        1.066e-05       4733.992824
        1.068e-05       4733.992824
         1.07e-05       4741.221293
        1.072e-05       4741.221293
        1.074e-05       4741.221293
        1.076e-05       4741.221293
        1.078e-05       4741.221293
         1.08e-05       4731.299154
        1.082e-05       4731.299154
        1.084e-05       4731.299154
        1.086e-05       4731.299154
        1.088e-05       4731.299154
         1.09e-05       4729.452631
        1.092e-05       4729.452631
        1.094e-05       4729.452631
        1.096e-05       4729.452631
        1.098e-05       4729.452631
          1.1e-05       4728.450072
        1.102e-05       4728.450072
        1.104e-05       4728.450072
        1.106e-05       4728.450072
        1.108e-05       4728.450072
         1.11e-05       4720.265927
        1.112e-05       4720.265927
        1.114e-05       4720.265927
        1.116e-05       4720.265927
        1.118e-05       4720.265927
         1.12e-05       4724.653015
        1.122e-05       4724.653015
        1.124e-05       4724.653015
        1.126e-05       4724.653015
        1.128e-05       4724.653015
         1.13e-05        4723.79436
        1.132e-05        4723.79436
        1.134e-05        4723.79436
        1.136e-05        4723.79436
        1.138e-05        4723.79436
         1.14e-05        4726.93254
        1.142e-05        4726.93254
        1.144e-05        4726.93254
        1.146e-05        4726.93254
        1.148e-05        4726.93254
         1.15e-05       4724.099357
        1.152e-05       4724.099357
        1.154e-05       4724.099357
        1.156e-05       4724.099357
        1.158e-05       4724.099357
         1.16e-05       4716.380232
        1.162e-05       4716.380232
        1.164e-05       4716.380232
        1.166e-05       4716.380232
        1.168e-05       4716.380232
         1.17e-05        4715.04169
        1.172e-05        4715.04169
        1.174e-05        4715.04169
        1.176e-05        4715.04169
        1.178e-05        4715.04169
         1.18e-05       4714.668703
        1.182e-05       4714.668703
        1.184e-05       4714.668703
        1.186e-05       4714.668703
        1.188e-05       4714.668703
         1.19e-05       4709.101547
        1.192e-05       4709.101547
        1.194e-05       4709.101547
        1.196e-05       4709.101547
        1.198e-05       4709.101547
          1.2e-05       4696.481137
        1.202e-05       4696.481137
        1.204e-05       4696.481137
        1.206e-05       4696.481137
        1.208e-05       4696.481137
         1.21e-05         4706.2822
        1.212e-05         4706.2822
        1.214e-05         4706.2822
        1.216e-05         4706.2822
        1.218e-05         4706.2822
         1.22e-05       4703.112844
        1.222e-05       4703.112844
        1.224e-05       4703.112844
        1.226e-05       4703.112844
        1.228e-05       4703.112844
         1.23e-05       4698.995452
        1.232e-05       4698.995452
        1.234e-05       4698.995452
        1.236e-05       4698.995452
        1.238e-05       4698.995452
         1.24e-05       4690.308053
        1.242e-05       4690.308053
        1.244e-05       4690.308053
        1.246e-05       4690.308053
        1.248e-05       4690.308053
         1.25e-05       4696.063991
        1.252e-05       4696.063991
        1.254e-05       4696.063991
        1.256e-05       4696.063991
        1.258e-05       4696.063991
         1.26e-05        4689.89138
        1.262e-05        4689.89138
        1.264e-05        4689.89138
        1.266e-05        4689.89138
        1.268e-05        4689.89138
         1.27e-05       4688.682631
        1.272e-05       4688.682631
        1.274e-05       4688.682631
        1.276e-05       4688.682631
        1.278e-05       4688.682631
         1.28e-05       4687.088647
        1.282e-05       4687.088647
        1.284e-05       4687.088647
        1.286e-05       4687.088647
        1.288e-05       4687.088647
         1.29e-05       4684.810726
        1.292e-05       4684.810726
        1.294e-05       4684.810726
        1.296e-05       4684.810726
        1.298e-05       4684.810726
          1.3e-05       4688.599802
        1.302e-05       4688.599802
        1.304e-05       4688.599802
        1.306e-05       4688.599802
        1.308e-05       4688.599802
         1.31e-05       4686.904585
        1.312e-05       4686.904585
        1.314e-05       4686.904585
        1.316e-05       4686.904585
        1.318e-05       4686.904585
         1.32e-05       4687.001099
        1.322e-05       4687.001099
        1.324e-05       4687.001099
        1.326e-05       4687.001099
        1.328e-05       4687.001099
         1.33e-05       4687.229542
        1.332e-05       4687.229542
        1.334e-05       4687.229542
        1.336e-05       4687.229542
        1.338e-05       4687.229542
         1.34e-05       4672.663356
        1.342e-05       4672.663356
        1.344e-05       4672.663356
        1.346e-05       4672.663356
        1.348e-05       4672.663356
         1.35e-05       4670.103352
        1.352e-05       4670.103352
        1.354e-05       4670.103352
        1.356e-05       4670.103352
        1.358e-05       4670.103352
         1.36e-05       4661.041578
        1.362e-05       4661.041578
        1.364e-05       4661.041578
        1.366e-05       4661.041578
        1.368e-05       4661.041578
         1.37e-05       4666.464257
        1.372e-05       4666.464257
        1.374e-05       4666.464257
        1.376e-05       4666.464257
        1.378e-05       4666.464257
         1.38e-05       4659.719747
        1.382e-05       4659.719747
        1.384e-05       4659.719747
        1.386e-05       4659.719747
        1.388e-05       4659.719747
         1.39e-05       4666.643969
        1.392e-05       4666.643969
        1.394e-05       4666.643969
        1.396e-05       4666.643969
        1.398e-05       4666.643969
          1.4e-05       4665.565759
        1.402e-05       4665.565759
        1.404e-05       4665.565759
        1.406e-05       4665.565759
        1.408e-05       4665.565759
         1.41e-05       4662.297205
        1.412e-05       4662.297205
        1.414e-05       4662.297205
        1.416e-05       4662.297205
        1.418e-05       4662.297205
         1.42e-05       4665.037595
        1.422e-05       4665.037595
        1.424e-05       4665.037595
        1.426e-05       4665.037595
        1.428e-05       4665.037595
         1.43e-05       4656.539723
        1.432e-05       4656.539723
        1.434e-05       4656.539723
        1.436e-05       4656.539723
        1.438e-05       4656.539723
         1.44e-05       4660.313712
        1.442e-05       4660.313712
        1.444e-05       4660.313712
        1.446e-05       4660.313712
        1.448e-05       4660.313712
         1.45e-05        4650.50364
        1.452e-05        4650.50364
        1.454e-05        4650.50364
        1.456e-05        4650.50364
        1.458e-05        4650.50364
         1.46e-05       4649.852271
        1.462e-05       4649.852271
        1.464e-05       4649.852271
        1.466e-05       4649.852271
        1.468e-05       4649.852271
         1.47e-05       4657.108676
        1.472e-05       4657.108676
        1.474e-05       4657.108676
        1.476e-05       4657.108676
        1.478e-05       4657.108676
         1.48e-05       4645.742369
        1.482e-05       4645.742369
        1.484e-05       4645.742369
        1.486e-05       4645.742369
        1.488e-05       4645.742369
         1.49e-05        4638.63109
        1.492e-05        4638.63109
        1.494e-05        4638.63109
        1.496e-05        4638.63109
        1.498e-05        4638.63109
          1.5e-05       4648.369109
        1.502e-05       4648.369109
        1.504e-05       4648.369109
        1.506e-05       4648.369109
        1.508e-05       4648.369109
         1.51e-05       4644.678044
        1.512e-05       4644.678044
        1.514e-05       4644.678044
        1.516e-05       4644.678044
        1.518e-05       4644.678044
         1.52e-05       4637.673257
        1.522e-05       4637.673257
        1.524e-05       4637.673257
        1.526e-05       4637.673257
        1.528e-05       4637.673257
         1.53e-05       4629.415674
        1.532e-05       4629.415674
        1.534e-05       4629.415674
        1.536e-05       4629.415674
        1.538e-05       4629.415674
         1.54e-05       4627.811353
        1.542e-05       4627.811353
        1.544e-05       4627.811353
        1.546e-05       4627.811353
        1.548e-05       4627.811353
         1.55e-05       4625.542386
        1.552e-05       4625.542386
        1.554e-05       4625.542386
        1.556e-05       4625.542386
        1.558e-05       4625.542386
         1.56e-05       4629.201449
        1.562e-05       4629.201449
        1.564e-05       4629.201449
        1.566e-05       4629.201449
        1.568e-05       4629.201449
         1.57e-05       4617.901172
        1.572e-05       4617.901172
        1.574e-05       4617.901172
        1.576e-05       4617.901172
        1.578e-05       4617.901172
         1.58e-05       4619.020778
        1.582e-05       4619.020778
        1.584e-05       4619.020778
        1.586e-05       4619.020778
        1.588e-05       4619.020778
         1.59e-05       4621.370293
        1.592e-05       4621.370293
        1.594e-05       4621.370293
        1.596e-05       4621.370293
        1.598e-05       4621.370293
          1.6e-05       4614.153671
        1.602e-05       4614.153671
        1.604e-05       4614.153671
        1.606e-05       4614.153671
        1.608e-05       4614.153671
         1.61e-05       4607.104924
        1.612e-05       4607.104924
        1.614e-05       4607.104924
        1.616e-05       4607.104924
        1.618e-05       4607.104924
         1.62e-05       4610.174592
        1.622e-05       4610.174592
        1.624e-05       4610.174592
        1.626e-05       4610.174592
        1.628e-05       4610.174592
         1.63e-05       4605.398327
        1.632e-05       4605.398327
        1.634e-05       4605.398327
        1.636e-05       4605.398327
        1.638e-05       4605.398327
         1.64e-05       4610.612768
        1.642e-05       4610.612768
        1.644e-05       4610.612768
        1.646e-05       4610.612768
        1.648e-05       4610.612768
         1.65e-05       4610.166211
        1.652e-05       4610.166211
        1.654e-05       4610.166211
        1.656e-05       4610.166211
        1.658e-05       4610.166211
         1.66e-05       4600.919181
        1.662e-05       4600.919181