# Probe 0 (5e-06 5e-06 5e-06)
#           Probe                 0
#            Time
            1e-07       299.8709091
            2e-07       299.8774643
            3e-07       299.8714632
            4e-07       299.8776292
            5e-07       299.8759571
            6e-07       299.8722935
            7e-07        299.875841
            8e-07       299.8746453
            9e-07         299.87366
            1e-06       299.8775614
          1.1e-06       299.8764268
          1.2e-06       299.8764559
          1.3e-06       299.8752547
          1.4e-06       299.8772799
          1.5e-06       299.8771437
          1.6e-06       299.8777544
          1.7e-06       299.8778742
          1.8e-06       299.8758516
          1.9e-06       299.8754343
            2e-06       299.8765818
          2.1e-06       299.8758029
          2.2e-06       299.8769106
          2.3e-06       299.8772917
          2.4e-06       299.8766753
          2.5e-06       299.8733624
          2.6e-06        299.876329
          2.7e-06       299.8759485
          2.8e-06       299.8773853
          2.9e-06        299.876754
            3e-06        299.877747
          3.1e-06       299.8732261
          3.2e-06       299.8778307
          3.3e-06       299.8778383
          3.4e-06       299.8774374
          3.5e-06       299.8777615
          3.6e-06       299.8766917
          3.7e-06        299.872982
          3.8e-06       299.8762732
          3.9e-06       299.8771137
            4e-06       299.8769391
          4.1e-06       299.8772884
          4.2e-06       299.8755461
          4.3e-06       299.8762387
          4.4e-06        299.876198
          4.5e-06       299.8765783
          4.6e-06       299.8768658
          4.7e-06       299.8757327
          4.8e-06       299.8752235
          4.9e-06        299.876238
            5e-06       299.8754602
          5.1e-06       299.8767505
          5.2e-06       299.8769026
          5.3e-06       299.8759692
          5.4e-06        299.876984
          5.5e-06       299.8732188
          5.6e-06       299.8769299
          5.7e-06        299.876897
          5.8e-06       299.8776228
          5.9e-06       299.8760554
            6e-06       299.8734571
          6.1e-06       299.8774995
          6.2e-06       299.8773572
          6.3e-06       299.8759704
          6.4e-06       299.8776947
          6.5e-06        299.876912
          6.6e-06       299.8742132
          6.7e-06       299.8768105
          6.8e-06       299.8771697
          6.9e-06       299.8764386
            7e-06       299.8754147
          7.1e-06       299.8748322
          7.2e-06        299.872291
          7.3e-06       299.8758891
          7.4e-06       299.8774789
          7.5e-06       299.8774008
          7.6e-06       299.8772393
          7.7e-06       299.8772294
          7.8e-06       299.8758132
          7.9e-06        299.877145
            8e-06       299.8773645
          8.1e-06       299.8770696
          8.2e-06       299.8762601
          8.3e-06       299.8762901
          8.4e-06       299.8766006
          8.5e-06       299.8777577
          8.6e-06       299.8778453
          8.7e-06       299.8737233
          8.8e-06       299.8717057
          8.9e-06       299.8776559
            9e-06       299.8769151
          9.1e-06       299.8762587
          9.2e-06       299.8759536
          9.3e-06       299.8740477
          9.4e-06       299.8769169
          9.5e-06       299.8777741
          9.6e-06       299.8775801
          9.7e-06       299.8764116
          9.8e-06       299.8762424
          9.9e-06       299.8766484
            1e-05       299.8766929
