# Probe 0 (5e-06 5e-06 5e-06)
#           Probe                 0
#            Time
            1e-07       1.00002e+22
            2e-07       1.00002e+22
            3e-07       1.00002e+22
            4e-07       1.00002e+22
            5e-07       1.00002e+22
            6e-07       1.00002e+22
            7e-07       1.00002e+22
            8e-07       1.00002e+22
            9e-07       1.00002e+22
            1e-06       1.00002e+22
          1.1e-06       1.00002e+22
          1.2e-06       1.00002e+22
          1.3e-06       1.00002e+22
          1.4e-06       1.00002e+22
          1.5e-06       1.00002e+22
          1.6e-06       1.00002e+22
          1.7e-06       1.00002e+22
          1.8e-06       1.00002e+22
          1.9e-06       1.00002e+22
            2e-06       1.00002e+22
          2.1e-06       1.00002e+22
          2.2e-06       1.00002e+22
          2.3e-06       1.00002e+22
          2.4e-06       1.00002e+22
          2.5e-06       1.00002e+22
          2.6e-06       1.00002e+22
          2.7e-06       1.00002e+22
          2.8e-06       1.00002e+22
          2.9e-06       1.00002e+22
            3e-06       1.00002e+22
          3.1e-06       1.00002e+22
          3.2e-06       1.00002e+22
          3.3e-06       1.00002e+22
          3.4e-06       1.00002e+22
          3.5e-06       1.00002e+22
          3.6e-06       1.00002e+22
          3.7e-06       1.00002e+22
          3.8e-06       1.00002e+22
          3.9e-06       1.00002e+22
            4e-06       1.00002e+22
          4.1e-06       1.00002e+22
          4.2e-06       1.00002e+22
          4.3e-06       1.00002e+22
          4.4e-06       1.00002e+22
          4.5e-06       1.00002e+22
          4.6e-06       1.00002e+22
          4.7e-06       1.00002e+22
          4.8e-06       1.00002e+22
          4.9e-06       1.00002e+22
            5e-06       1.00002e+22
          5.1e-06       1.00002e+22
          5.2e-06       1.00002e+22
          5.3e-06       1.00002e+22
          5.4e-06       1.00002e+22
          5.5e-06       1.00002e+22
          5.6e-06       1.00002e+22
          5.7e-06       1.00002e+22
          5.8e-06       1.00002e+22
          5.9e-06       1.00002e+22
            6e-06       1.00002e+22
          6.1e-06       1.00002e+22
          6.2e-06       1.00002e+22
          6.3e-06       1.00002e+22
          6.4e-06       1.00002e+22
          6.5e-06       1.00002e+22
          6.6e-06       1.00002e+22
          6.7e-06       1.00002e+22
          6.8e-06       1.00002e+22
          6.9e-06       1.00002e+22
            7e-06       1.00002e+22
          7.1e-06       1.00002e+22
          7.2e-06       1.00002e+22
          7.3e-06       1.00002e+22
          7.4e-06       1.00002e+22
          7.5e-06       1.00002e+22
          7.6e-06       1.00002e+22
          7.7e-06       1.00002e+22
          7.8e-06       1.00002e+22
          7.9e-06       1.00002e+22
            8e-06       1.00002e+22
          8.1e-06       1.00002e+22
          8.2e-06       1.00002e+22
          8.3e-06       1.00002e+22
          8.4e-06       1.00002e+22
          8.5e-06       1.00002e+22
          8.6e-06       1.00002e+22
          8.7e-06       1.00002e+22
          8.8e-06       1.00002e+22
          8.9e-06       1.00002e+22
            9e-06       1.00002e+22
          9.1e-06       1.00002e+22
          9.2e-06       1.00002e+22
          9.3e-06       1.00002e+22
          9.4e-06       1.00002e+22
          9.5e-06       1.00002e+22
          9.6e-06       1.00002e+22
          9.7e-06       1.00002e+22
          9.8e-06       1.00002e+22
          9.9e-06       1.00002e+22
            1e-05       1.00002e+22
