# Probe 0 (5e-06 5e-06 5e-06)
#           Probe                 0
#            Time
            1e-07       489.7030023
            2e-07       474.8958563
            3e-07       460.6385059
            4e-07       448.0346566
            5e-07       436.2540906
            6e-07       425.7462337
            7e-07       416.0677792
            8e-07       406.6946742
            9e-07       398.6305603
            1e-06       391.3239253
          1.1e-06       384.7297635
          1.2e-06       378.2175281
          1.3e-06       372.2673607
          1.4e-06         366.98098
          1.5e-06       362.2693375
          1.6e-06        357.933704
          1.7e-06        353.709791
          1.8e-06       349.6264253
          1.9e-06       345.4114258
            2e-06       342.2605147
          2.1e-06       339.1223009
          2.2e-06       336.1415296
          2.3e-06       333.2174975
          2.4e-06       331.1931215
          2.5e-06       328.8629219
          2.6e-06       326.6963264
          2.7e-06       325.0576645
          2.8e-06       322.9960843
          2.9e-06       321.3368386
            3e-06       319.8156342
          3.1e-06       318.4961295
          3.2e-06       317.1481506
          3.3e-06       315.8609919
          3.4e-06       314.7108595
          3.5e-06       313.6502707
          3.6e-06       312.8579557
          3.7e-06       311.9428711
          3.8e-06        311.118558
          3.9e-06       310.1485632
            4e-06       309.3475295
          4.1e-06       308.4772951
          4.2e-06        307.981012
          4.3e-06       307.1901253
          4.4e-06       306.5691365
          4.5e-06       306.0011224
          4.6e-06       305.2717263
          4.7e-06       304.8659607
          4.8e-06       304.2688985
          4.9e-06       303.7537805
            5e-06       303.5329888
          5.1e-06       303.0434603
          5.2e-06       303.1410812
          5.3e-06       302.9637105
          5.4e-06       302.6985871
          5.5e-06       302.2743562
          5.6e-06       301.9641334
          5.7e-06       301.6207533
          5.8e-06       301.6340732
          5.9e-06       301.1268482
            6e-06       301.2869218
          6.1e-06       301.3517163
          6.2e-06       301.2674549
          6.3e-06        301.210844
          6.4e-06       301.3683631
          6.5e-06       301.3325489
          6.6e-06       301.4118406
          6.7e-06       301.3232199
          6.8e-06       301.5034411
          6.9e-06       301.7769186
            7e-06       301.6454534
          7.1e-06       301.4831208
          7.2e-06       301.3754294
          7.3e-06        301.301779
          7.4e-06         300.99017
          7.5e-06       300.8604344
          7.6e-06        301.087153
          7.7e-06       300.9196146
          7.8e-06       300.8844971
          7.9e-06       300.8348127
            8e-06       300.7654508
          8.1e-06       300.6307795
          8.2e-06       300.7423292
          8.3e-06       300.6354181
          8.4e-06       300.8725677
          8.5e-06        300.579266
          8.6e-06       300.2561735
          8.7e-06       300.6423169
          8.8e-06       300.3229195
          8.9e-06       300.2243905
            9e-06        300.423902
          9.1e-06       300.3006431
          9.2e-06       300.2905746
          9.3e-06        300.199852
          9.4e-06       300.3623338
          9.5e-06       300.4175871
          9.6e-06       300.4037718
          9.7e-06       300.3234115
          9.8e-06       300.3183607
          9.9e-06       300.3383011
            1e-05        300.400885
