/*--------------------------------*- C++ -*----------------------------------*\
| =========                 |                                                 |
| \\      /  F ield         | OpenFOAM: The Open Source CFD Toolbox           |
|  \\    /   O peration     | Version:  v1706                                 |
|   \\  /    A nd           | Web:      www.OpenFOAM.com                      |
|    \\/     M anipulation  |                                                 |
\*---------------------------------------------------------------------------*/
FoamFile
{
    version     2.0;
    format      ascii;
    class       vectorField;
    location    "0.29/lagrangian/dsmc";
    object      U;
}
// * * * * * * * * * * * * * * * * * * * * * * * * * * * * * * * * * * * * * //


97197
(
(351.4965738 26.43750141 5.56735053)
(-432.5394387 199.7047894 -209.4756896)
(220.8669314 -46.48351876 -400.3572697)
(94.97640765 -26.76824818 13.03622507)
(435.3415464 -301.9238826 101.8654152)
(351.9837012 -290.7542804 535.1500519)
(-13.65476547 -396.9628338 -24.16107358)
(291.3652787 334.8342114 -24.28030809)
(-479.6181578 -256.7317384 233.799624)
(358.0795965 -154.9723666 199.6016145)
(93.24803282 65.06812635 388.5709346)
(-13.20794198 -372.5295866 -180.5623843)
(-291.5975379 167.0067853 -258.8895883)
(-55.43311545 177.8338483 23.0262857)
(-53.90440093 261.841817 381.7072527)
(-391.4296438 -333.4059776 224.1320353)
(-480.4951771 88.72327323 38.88274416)
(67.10032655 150.8007205 -15.47552001)
(-318.1462557 211.0854266 -94.60436125)
(398.627488 237.99732 116.3098851)
(166.665116 -272.5422893 -41.773963)
(119.0688018 189.1474314 -310.4491657)
(11.10418233 172.8502581 105.9777004)
(-190.585771 344.4378731 -100.6728301)
(20.51219332 -255.6897451 137.4478064)
(-253.3721917 -290.6786148 -36.38282606)
(-111.4891602 -331.9997108 228.5576285)
(423.7752327 180.5347386 -117.8574203)
(-226.1647128 -92.53315904 294.1601503)
(-303.5166245 129.909566 157.6208492)
(-46.76566451 -108.3351044 -39.48132889)
(113.4785681 -245.201148 -5.693946236)
(57.05634989 -367.41145 -149.7306899)
(-220.5356485 -179.0306548 -252.5449787)
(101.5695885 -102.9397338 -247.0583745)
(17.73034072 -228.8802203 121.4989756)
(56.92253304 -121.7595696 -300.7441608)
(-328.2629736 -465.7836028 165.1065455)
(-139.4058141 -265.209554 -123.6882942)
(29.40786296 -489.1108385 -338.4342251)
(-244.326365 13.10399254 -116.5899399)
(-224.8810381 210.9835595 156.3510374)
(416.3218055 -173.5551122 -90.69513694)
(69.47532123 -69.04447929 -80.1702827)
(301.0791439 293.8287078 235.2186817)
(112.888536 -76.98043804 40.19685659)
(121.11566 152.661389 -224.0645137)
(384.7755006 245.3598526 111.9964389)
(-0.4935574077 259.5058465 85.27323112)
(254.8391434 346.3867159 -201.6923789)
(-218.6605798 -421.5350807 -114.9249869)
(-13.41591128 14.11102582 398.3003779)
(-115.9176089 -43.48872566 87.07223724)
(53.74724204 49.57113353 -18.78990767)
(-2.797671053 -160.507718 30.12654467)
(125.2315247 -159.2793699 -414.1115003)
(-53.44344073 433.6580828 196.2361286)
(42.71544602 -247.9878555 44.59186103)
(-95.60707009 364.2890165 -48.33347372)
(158.7611896 -539.2137425 167.1746589)
(50.56988947 -272.4694241 312.5910045)
(-621.3226005 226.5774214 -42.81488551)
(342.8752299 -129.8987115 -318.3975443)
(-8.549546945 -598.7702327 196.4737364)
(119.9621062 -44.20719636 -571.9129252)
(319.2400783 34.98585447 -140.8663619)
(55.74390018 -260.2166388 -308.6005349)
(-243.6632317 -212.0708292 -361.9860247)
(-137.5976955 -274.0278719 28.6657148)
(90.74856427 -289.4401711 42.78133447)
(-14.98788523 -403.1566456 251.4371648)
(564.4116968 -74.33412724 -45.22405786)
(-77.2724394 133.2186469 343.1363328)
(253.5972733 -392.5937277 250.9003553)
(185.7817175 147.5044635 89.09892293)
(94.99666853 381.0462247 -114.2922045)
(466.6949016 -37.75895422 79.82790249)
(95.14292608 48.96258823 -380.9014288)
(64.95200956 -315.0366672 -137.123469)
(12.37326455 -124.2271057 -135.0306127)
(362.9010635 543.2716209 34.72935128)
(98.60639254 152.4782894 295.274322)
(-98.90043155 -652.8448628 115.1237181)
(-85.75615396 -326.985658 278.7683437)
(-73.8666784 -109.7412227 -143.7768668)
(108.5483619 208.9232804 -269.5240124)
(-244.1597708 -235.5814908 -390.7829267)
(-259.4387294 -20.91285296 200.6351466)
(-42.02435298 427.7304118 128.9164277)
(278.4785919 20.68429477 -98.67483525)
(281.257114 -170.1629807 41.05510863)
(-13.03396168 181.6577788 -558.7665913)
(40.83620229 406.2575056 -102.325896)
(299.2605006 515.9992226 187.3067684)
(455.4618768 -75.38608352 -95.79073257)
(-58.69593695 -304.4456698 -82.33414635)
(-202.7159678 200.1364391 84.85331586)
(-468.4773132 -125.6992993 81.65974338)
(84.34167464 102.5987884 110.6130797)
(166.9661718 5.886196366 -264.9951082)
(210.0069038 343.9887804 134.7724601)
(470.4164813 14.30569229 -177.3727368)
(-82.77559015 -214.0568082 -88.72155603)
(315.2950785 212.715255 161.966213)
(-140.2399528 137.3400806 -204.8325684)
(250.1657597 -184.4444225 -145.1152741)
(-179.7947166 158.0713027 105.8030439)
(-99.06754947 225.1800356 74.94761265)
(-126.7675004 133.2608321 -188.8775568)
(187.5777985 -190.8856748 236.7013821)
(-567.5317012 302.6724405 -562.1077095)
(-264.5800055 -1.797896084 165.8146107)
(-27.7386152 -419.722807 -167.30514)
(-73.63883702 227.9121103 171.2947904)
(131.5285559 6.169030158 117.9575031)
(82.96488189 46.07880306 -155.0135283)
(-217.3320313 255.3847977 130.1907626)
(-6.745318541 115.8764315 -249.8455551)
(53.3345017 -552.7363825 -334.0570949)
(-15.72546669 -80.79592665 219.0338447)
(-135.3332388 591.4278435 305.4017129)
(44.07657068 34.49274308 47.89004739)
(-123.3366188 -181.4946217 -301.3355424)
(-342.4968328 86.92431637 -456.9992055)
(34.07288119 -40.44708558 44.56002339)
(264.3208755 -505.4796578 -169.8742587)
(48.33618184 156.4098539 -286.1125664)
(79.10921842 -228.0571867 146.4918281)
(-302.8805851 117.510984 -117.5396413)
(-27.41317301 54.25016222 285.7234029)
(147.0070484 -255.6357918 165.7190086)
(-265.9057657 -222.1600771 -174.2008614)
(253.0799848 276.7574406 27.79029235)
(-294.5627191 35.77257123 -81.78435091)
(12.2535954 -208.3688012 -73.96526224)
(725.0642536 16.26093975 163.7664164)
(122.8748279 96.57489115 256.832986)
(-362.6180617 259.7459094 -77.65789895)
(342.6580735 -364.4603948 -269.1360927)
(351.3288925 -200.2363621 170.7893845)
(132.8668375 -10.93500006 46.13593449)
(20.87909501 526.0785201 62.41195763)
(-2.074196535 422.8450854 -376.0015182)
(-202.122762 -439.5626085 2.273163179)
(-6.03730391 254.336353 -269.7431376)
(40.51555785 -11.31597762 1.090101589)
(242.9463028 -212.8232934 -107.556453)
(-62.51380842 -30.40390085 39.26841018)
(113.1249185 -137.9599626 15.79716413)
(174.257533 -273.2830766 -200.4166967)
(-33.00725254 -481.9658447 152.4611473)
(-85.86451454 162.4441259 306.5887803)
(-186.5178596 -280.6724985 -96.41907501)
(-157.2989997 -1.218966371 -324.3643064)
(148.8345815 118.6369132 -297.4293157)
(128.7061044 198.4702563 188.4901121)
(46.82545576 -149.4621496 98.37658227)
(-359.8528739 682.7133614 -26.22102193)
(-88.23233933 -335.143004 105.1547514)
(-117.4332573 -79.16375166 -61.02465082)
(-48.53492717 -158.0678177 341.6348318)
(-457.865957 -108.3666769 -75.24787567)
(-12.86050255 -206.5093863 321.2138777)
(220.6776938 40.54236599 68.13536045)
(214.3990163 -407.6039351 152.8991072)
(32.17733417 -53.62812635 -153.746749)
(379.2213303 209.8367853 233.8786235)
(154.1754263 -302.7472765 -126.0185876)
(-258.3968418 137.6869367 -192.3126347)
(340.1367855 35.21953286 496.8661361)
(163.3397115 64.04551238 -474.7609573)
(392.482184 152.4065757 -300.948748)
(-198.4499465 215.0207917 152.2217646)
(269.9281806 -1.930412376 -628.3645617)
(-147.124263 95.97757893 21.94222786)
(77.53343695 512.0738875 61.83345144)
(-242.8324426 -234.965433 221.8493714)
(239.8938224 -477.876168 -88.56164944)
(123.2350085 -1.167681552 19.25383532)
(-217.9328388 -92.76526678 -0.490482108)
(-67.57071245 288.08874 -243.5532311)
(87.41828868 447.8636691 -40.00338672)
(76.406321 -246.6419041 -151.270402)
(120.6475862 67.12493168 107.5933446)
(-178.2542867 159.4471229 313.1346404)
(54.80884199 -121.023383 237.0607)
(275.8808705 106.5376483 -104.6572645)
(-203.3702516 140.9129181 175.2284923)
(-10.97710954 -191.9144974 212.6448502)
(-188.176984 -80.06490187 -53.24988259)
(24.2221017 -157.3726027 179.0213999)
(-73.86644497 -1.155129781 251.5845181)
(558.204271 -191.513517 45.86244277)
(260.5629103 208.7428599 -340.9312656)
(-130.7139298 519.2968988 219.6790085)
(183.6882174 175.6746447 27.94076235)
(-163.4450763 117.3700531 315.6491381)
(185.3616948 92.91306218 -48.84472262)
(-80.43213931 59.19111356 381.5163575)
(-139.7478269 -303.2981778 -181.9812724)
(216.1087331 -81.85438162 155.3354137)
(434.5655897 -89.64695962 -48.51917748)
(106.0042279 -92.25757564 340.6660193)
(29.43312674 370.5684806 109.773945)
(350.2971904 248.9588141 176.4722723)
(353.0829686 -152.9120856 -259.9720681)
(3.769860565 33.88034912 27.56761533)
(154.5000152 -74.39333143 57.66821255)
(98.82063417 290.5527982 292.9131311)
(-6.361752853 -354.9843686 -103.6220836)
(-178.1877038 70.67773753 155.886219)
(237.5992786 -89.90661418 362.968246)
(232.807366 -168.3402345 42.94823648)
(-111.279875 -38.16762388 -30.04059482)
(205.844601 105.135967 -348.4316968)
(244.8074819 144.725271 -185.4546169)
(349.4347691 174.3722298 -4.976124143)
(-18.25999233 -55.13403013 -131.8903107)
(-374.1142059 -92.39007946 31.55515692)
(-176.1542815 -58.1535707 32.11621143)
(-110.0302175 85.7213793 13.83331423)
(-161.9206862 52.12134761 121.1576238)
(-191.763983 94.25677514 575.109472)
(-280.8018336 354.9961994 275.2019466)
(84.21520469 367.7727497 -664.5632047)
(-149.5083743 -500.3854524 255.5262418)
(281.0243185 160.1388944 -79.16753735)
(-66.19232863 99.50150726 -131.7931415)
(54.1616499 124.6193994 -58.2733876)
(1.072807964 180.7933546 682.7024452)
(-4.984793821 9.383264764 -273.9206993)
(31.68031107 11.04183274 -65.4190256)
(115.7095965 179.2680904 368.6938655)
(167.2423805 105.9118939 -40.19251655)
(241.5642129 218.2684775 -205.2826639)
(-70.22301558 -118.0555239 -44.42087446)
(-12.99968425 -86.53811854 -161.1432909)
(282.8098278 11.95120947 -142.3127741)
(-342.9511621 181.7813036 157.4324859)
(159.5727889 45.3232935 -159.3261233)
(300.1574328 -31.2513436 -35.32850535)
(-439.9496405 374.4533983 -247.8604513)
(66.1066355 248.6636623 298.191109)
(-166.5692503 -155.5832174 -309.2960011)
(-187.6790512 -77.45590479 18.18521944)
(292.1864497 -376.6274599 2.367281966)
(232.91932 50.37521156 -331.6459302)
(-240.5037575 21.1814673 -30.10274643)
(112.3521495 -14.82948441 239.0217608)
(307.9326856 -79.12684916 115.1311933)
(-177.4364392 -147.4295279 -231.9022124)
(-143.0463435 -50.63409644 464.7910023)
(-109.7780386 -345.4092555 -152.4807808)
(167.9452456 89.92930305 -153.9094494)
(509.0193747 204.4509135 495.9567032)
(30.69711222 339.7564795 23.35596897)
(-235.33173 25.21961105 -372.5223247)
(-215.4066322 -171.7841994 -80.98832296)
(99.35355526 238.0561399 -317.5300266)
(267.9529916 68.88988523 336.078733)
(-163.3457469 -50.37651922 467.6270149)
(-352.8607971 188.8305456 -1.886952106)
(-174.8150094 36.30332591 72.7858075)
(139.8052088 -126.6159118 -268.1272246)
(395.4852332 148.791982 237.9859289)
(220.5802771 -67.07079536 210.1953755)
(33.39281956 -220.4027365 -157.9671188)
(-278.3579706 -92.38246644 267.7795864)
(142.7410041 -274.0524002 -391.2699142)
(130.0350878 206.7143051 -315.7902239)
(-48.67614008 -45.80362801 41.07946617)
(-166.4319427 249.8998664 -88.29547425)
(-98.22926757 303.1980036 367.9749589)
(415.3887232 201.4464739 131.8371903)
(405.6520699 -374.0396478 123.8942321)
(71.21384697 -141.8396927 264.6218018)
(-640.848749 198.3588266 -191.325691)
(51.79022627 -547.5443617 121.280029)
(-54.2027099 457.7488472 145.1020611)
(-164.5432254 131.0774102 -152.7155492)
(-263.1559414 -50.2204484 -68.20024086)
(-160.0701241 -507.8540664 -278.7371405)
(135.2388404 139.5334467 -190.3970601)
(-18.04238258 -133.3946178 -247.9224278)
(-156.6293067 267.3632436 -40.34259091)
(-50.90098058 366.1183846 225.1791899)
(25.5496682 -160.0529563 128.3551079)
(511.1439005 -286.4049507 -95.92769544)
(-12.52912797 92.52182048 98.07779693)
(209.2976519 -10.49411259 -162.5487624)
(-90.52558122 -276.2812956 53.50488475)
(43.64854401 233.489218 332.8364976)
(-261.3895366 -278.7978557 163.2837627)
(-45.83739104 390.6993993 -231.936689)
(-58.00021181 754.7302487 67.06584659)
(24.29393748 -350.8053939 484.1111837)
(-160.20043 -224.799844 348.7447886)
(-132.4541243 322.8252556 71.9462271)
(-413.5321369 642.4751739 282.0279358)
(248.1975429 148.9402371 569.8200892)
(556.2946986 140.852999 115.7178895)
(-274.9509608 -161.5497963 -20.66806121)
(65.2035662 -8.331888296 140.3238281)
(54.0772478 -236.5205258 -182.2707717)
(8.1116582 -76.72577775 -286.9540913)
(34.04628076 451.6230429 -405.4524165)
(333.0700713 -357.2990311 -249.1913538)
(308.5803295 57.59501281 100.0483334)
(-226.4989082 154.8653758 -313.1023365)
(-291.4719268 -506.2569672 66.8293874)
(-407.7954149 217.8278757 77.91484764)
(-142.002768 -615.8485044 235.3201024)
(-137.777833 -358.5402646 -151.8999281)
(161.7136905 204.7933132 404.9939712)
(-114.746958 135.1637544 -107.0166185)
(-355.9797137 126.1514448 73.78387547)
(294.091846 193.6250821 -25.00466874)
(87.35839496 99.45457966 173.7725167)
(119.7929905 373.8837722 442.5669776)
(43.80682522 -441.5552092 -177.9962167)
(-65.40062501 -90.06165572 -202.1484703)
(-237.082252 55.17588592 448.3327431)
(-61.60586112 -183.8953345 594.0818215)
(-25.41665331 -13.6728005 85.51635602)
(-22.35789673 -753.5850063 61.34582145)
(-18.44497075 -93.81269627 187.1211789)
(-403.9224258 90.46416456 224.4762019)
(440.8484269 -99.03122676 349.8570077)
(135.8320393 -172.9520869 -41.10096351)
(-78.51576888 13.17172037 248.6488289)
(-139.0059059 63.33040527 96.22902805)
(60.09685925 328.1078823 -71.95856287)
(139.4895909 -268.7095151 -2.690445237)
(334.3979255 -112.5954319 120.7775642)
(-185.6009584 183.2970126 -325.392978)
(209.7650008 4.189311036 -231.0548911)
(-345.030112 408.5926148 27.75701746)
(247.9513216 123.8377842 -94.95947009)
(58.4330641 -98.08256638 479.4386426)
(-196.9664831 418.9522934 311.7744456)
(714.172939 130.3385225 -211.2646942)
(149.3666097 22.45630006 107.1478972)
(88.36095424 148.0232192 -166.5524338)
(460.2812695 -455.1620351 -159.5724282)
(218.1978463 204.1428101 377.9607657)
(9.160019294 735.7119494 -171.2142285)
(-126.6912643 137.7528932 -360.6088531)
(-214.9527456 21.6395492 -328.3296105)
(-122.8796062 -275.5938127 -120.6025972)
(117.6521435 -83.74827125 146.5500815)
(-310.6485991 -233.3699586 7.009905143)
(-114.5247728 -167.7378102 398.809296)
(-265.5508584 104.9933598 -210.078294)
(262.6630563 39.07427207 -198.1721679)
(580.9238748 -222.6256854 -139.2947386)
(-1.571444733 57.09698324 286.8034056)
(-84.0339115 -169.1730466 -41.39446816)
(-225.4212269 98.23507883 236.8828305)
(27.5945399 47.67293546 505.4087561)
(-158.0479796 -328.2672217 -215.7309753)
(-42.29668076 84.82670741 -168.7857762)
(-69.13701187 -284.7876238 -60.38859137)
(34.54963586 -417.6110813 -187.0842035)
(-198.2245236 282.8220515 -226.280585)
(165.951945 87.17027324 263.701952)
(142.9767081 -273.5200722 98.93934654)
(95.63243265 -69.58604792 -583.3629436)
(200.7933778 -103.6784975 -377.497166)
(-290.7813968 -74.44685394 -98.58367468)
(134.1616443 68.12983533 113.4271598)
(173.1576632 -104.0434957 -229.9422754)
(-67.95122143 230.3035093 6.361644678)
(-40.44503055 -145.3492469 61.01653676)
(-4.200847396 -244.0818822 -71.8140119)
(-297.1255568 -99.20284041 431.1334556)
(14.4101643 104.1088591 212.580944)
(-345.130403 138.6912456 -8.602731095)
(-277.313 205.0213428 -287.0872312)
(398.1275096 254.7448818 218.8182122)
(365.8121647 454.5377131 -165.3212515)
(33.64490603 5.163396692 107.0906141)
(207.4051701 -85.83185726 -180.9187486)
(-274.9321227 187.8895293 93.49981501)
(-22.31844719 -545.3539874 518.8164077)
(204.3559183 -377.0786997 110.6724222)
(-178.4628481 197.146372 -149.955832)
(-128.518997 -51.29019108 -193.8747515)
(-117.5674852 294.6270156 -142.7902543)
(412.8618007 32.98125767 58.64096436)
(-121.4037673 -178.158636 -429.5565627)
(-314.0830253 -49.53501192 145.6136228)
(56.92336982 -114.4401171 261.8841498)
(-72.68749353 55.13528761 52.44717)
(-374.001517 -103.6660337 483.2453598)
(230.8509804 149.0158963 -433.5836702)
(200.7643212 -157.3299042 21.0739106)
(452.3885587 106.8261934 219.9034431)
(103.9508675 -94.91985968 -164.454529)
(-282.9111014 172.631314 286.400456)
(12.96978453 247.5020017 188.4546357)
(239.3253546 -351.3750526 -285.0518903)
(-224.7142292 -97.51182821 82.1994761)
(-506.521342 59.24120277 -80.78861244)
(-326.3512861 -174.3726662 -220.6184495)
(145.0752748 -57.52276369 -344.9594662)
(-61.70552917 183.4976013 80.70285209)
(270.9051292 -174.9391695 -242.9020717)
(-11.34234908 -173.407277 223.5823168)
(-232.0916045 -182.9158234 -321.8690104)
(59.79685987 170.8505815 173.6867633)
(-109.0216707 -207.5449839 -271.6028885)
(-219.4080818 -340.2411981 -102.0720639)
(47.45189367 -5.672457989 -182.033878)
(139.0829832 -44.96633276 -418.9325085)
(191.4515704 -520.9627751 -46.36435904)
(465.3342221 284.3874943 155.7856761)
(185.7456265 66.87928194 167.7031593)
(-177.0128124 347.5398544 -287.6255761)
(202.2518791 -74.06110499 235.7983646)
(-460.5895261 506.3397188 79.49019434)
(168.2219635 -47.21842568 -130.0825753)
(-238.0747821 -159.1417721 -52.38182107)
(-32.04256911 24.50588047 -121.93106)
(349.2891815 12.26922084 31.56672489)
(41.80201934 222.2394634 -404.5953191)
(-261.3773567 -283.4291464 -423.4086133)
(-86.24349045 83.34863935 186.5009786)
(76.33579556 -20.80899486 242.0705351)
(120.1955147 -123.3360106 -154.4330311)
(97.66881878 407.813014 101.8301006)
(209.9207861 205.3913082 73.68134318)
(-262.2672406 205.9625532 -33.35645446)
(56.22051515 131.4037961 98.91392317)
(-8.429951385 422.0943898 109.1895129)
(-347.000625 -58.99288134 142.8092861)
(-28.43024224 427.4486815 161.1350753)
(126.9295078 93.01804179 -372.2676655)
(62.69176598 412.741336 146.466108)
(-85.35696234 47.34301001 -94.39137287)
(-370.6232323 -243.2834792 176.1281985)
(-100.3281022 -302.705724 -236.6648829)
(219.2769694 -168.5738976 -403.4775665)
(-90.47450748 -167.9127023 -247.5056762)
(158.4823753 -156.9490074 -386.0270335)
(-217.9474416 367.9249281 107.0790257)
(-82.13469694 155.3583456 -192.5542041)
(-157.2616584 147.1592344 481.4609932)
(-85.59000948 90.19753954 -20.43932067)
(51.7146692 -451.4697045 56.54032523)
(98.54091167 219.3003079 -159.3000066)
(-224.0486741 -87.56208454 -406.2644374)
(332.9260462 -84.93704483 260.0792399)
(31.48512597 106.2622545 -252.3129778)
(315.4145636 87.16262614 -78.03048991)
(-57.28963957 -28.01705004 36.42114759)
(196.5452497 -5.924158834 -198.2285602)
(-553.1711112 -65.1827377 -54.15387664)
(-322.4108128 505.251979 414.3162545)
(-400.6468467 233.2080631 129.5010899)
(50.03958637 321.8079194 -242.5852542)
(254.5883482 -105.6451015 -13.45743363)
(252.8718762 7.175873025 505.0132944)
(126.4083553 85.01922498 -61.13443209)
(-187.6398629 -368.0557384 -179.6784586)
(-326.0437138 -361.7940693 370.0797667)
(23.38612315 -252.2804486 -226.3006595)
(-2.334598472 -359.4333789 -301.8145541)
(-475.1061618 -59.61565673 223.8676278)
(316.4076621 -7.702753133 -170.9138053)
(-42.88923382 7.313966563 33.117549)
(-130.7354724 46.18035392 -135.1720139)
(-436.850165 -136.5794675 -383.1421362)
(-32.72869882 -157.760788 123.3227219)
(183.5343488 -253.4638379 -398.172814)
(-63.36478541 -284.7016922 255.4425948)
(-80.61498977 -387.1489635 -64.03080922)
(-101.2638334 421.067871 -86.6485749)
(-147.8796664 -372.6513643 -53.74573815)
(163.9296551 -76.20127483 240.3141569)
(-8.978334616 74.68537478 -191.1983347)
(-120.1419812 -186.1879756 303.9335623)
(89.26638003 171.8811716 306.9205834)
(13.87500359 -180.4168627 236.4288233)
(-5.051372294 290.1106878 -53.42781618)
(134.2754361 7.794757813 -384.3643336)
(527.3478859 138.2874675 222.0559329)
(-42.56781936 230.0341536 -280.546719)
(-321.7590952 -96.88860589 -408.3626764)
(-42.53310137 -360.1928796 -782.9739638)
(23.31322226 305.5119596 -39.978114)
(104.4284743 -496.5951584 -99.38406085)
(-239.9494298 33.00496065 -128.9015583)
(-48.6241031 206.309378 -366.5601444)
(214.8988395 520.6375674 -76.89076301)
(141.1815043 8.670476465 94.14012473)
(-399.3336024 29.3496464 -275.7235396)
(106.3633426 -726.1110313 -288.8830469)
(197.4927118 -128.5714865 68.42181714)
(8.072101065 489.8262847 -191.2943961)
(24.86181912 417.0593813 -385.4414486)
(-60.92907793 109.7342163 113.2707291)
(9.61707532 173.4293334 152.3722486)
(465.7932686 165.4755466 -0.2217852705)
(334.6656658 -66.80185339 1.693869951)
(-156.9895459 68.02777045 146.0305337)
(220.0556941 470.1219109 -106.5691144)
(347.4440739 -41.45995878 247.1954396)
(-161.403297 33.64701521 -134.1647546)
(-337.3927893 -136.7898914 69.67043977)
(133.7853769 -22.15438386 -354.6485353)
(41.18630293 185.4153463 -335.9070321)
(29.57372997 -46.83457017 191.1374445)
(5.337986282 -76.12524887 -92.99612294)
(-96.11246098 278.8670237 -161.4520065)
(-271.2052052 94.66702374 259.4778215)
(-347.0339792 226.6740933 226.4534735)
(-12.99151198 -333.2944919 -260.4680284)
(-133.2849185 -62.69427437 -290.6243216)
(435.2573815 31.13166949 -27.48503602)
(-32.23082342 223.9903538 194.3962285)
(-34.71149985 139.0597358 -33.53665992)
(177.5397655 -378.9044781 -80.8672743)
(-20.78198266 164.5695361 -325.1165432)
(253.6881742 -382.8975934 -339.7082081)
(-56.33819472 -76.51623959 202.7524736)
(-389.6164772 -405.7675503 535.3975272)
(-61.88982942 79.59151773 -300.9457793)
(-62.61839498 -130.365756 -210.7125792)
(-305.1312553 84.72528256 276.1403782)
(8.920555577 460.859082 231.7322451)
(-131.5530157 447.789397 -99.02513097)
(48.98548702 -154.6921414 108.6563736)
(-109.5298861 -144.6556539 147.5456142)
(70.09202564 37.311382 -360.3980213)
(110.538248 356.5193934 65.56973555)
(-55.91718357 74.69697917 64.6895558)
(132.0564604 22.19260781 115.3973528)
(-85.99787538 50.47524436 -87.56320237)
(171.390163 126.6316088 -193.7420136)
(241.6486391 -180.4829619 -348.8361258)
(-273.4226071 140.9402151 84.56450082)
(437.978941 -70.32387251 110.4342418)
(-93.20894351 -40.10698005 -203.6861155)
(5.781083272 -152.0027188 -21.09472648)
(-89.16947657 30.38315383 96.32321796)
(77.78805986 228.7089668 213.4049868)
(-40.76999186 294.4696908 295.217203)
(-50.15691351 -166.5161331 -145.7445641)
(-60.12534117 -160.6567056 -42.67604362)
(-474.7503106 -59.03931073 192.692225)
(80.77918721 -53.05018487 -89.19301144)
(-395.9094784 306.2810562 -161.6263222)
(19.68414205 -85.89113167 76.3490452)
(-13.90441645 32.4182066 415.3625349)
(231.7220293 426.9056724 380.6398153)
(167.2324071 -155.0419074 -377.9904975)
(-384.5253971 -621.4289459 -375.2305287)
(138.034785 50.51539221 -457.9653476)
(-146.6546066 -310.7811229 -139.4063343)
(-143.2128044 -240.8113325 -391.802873)
(-60.87353539 66.16185449 198.9688206)
(-229.2213282 -205.3194155 1.048324753)
(-35.21017377 -148.1057225 10.22077368)
(125.0424778 91.56305197 82.79761525)
(-122.1779249 30.6352947 -42.53300378)
(-29.05738656 -756.624802 311.4856384)
(-137.3773718 -153.0801097 53.23431883)
(-110.00502 -247.1017802 275.3654205)
(-293.6776204 266.9876936 -333.5111741)
(15.91773899 -85.96805467 -11.56414445)
(-4.937582087 2.983234049 129.7867435)
(41.37394924 -95.77675903 -155.0868847)
(132.75641 7.085242237 449.5608393)
(-125.1271476 -26.25895048 -389.9291002)
(-11.67826807 151.3076009 16.28050707)
(-402.7879401 224.0390953 -43.99920394)
(92.85589525 236.7078572 -13.03409293)
(171.6820743 -393.4809582 181.8071752)
(6.501748538 256.6624777 333.1034718)
(13.81233673 -34.62485815 130.1697997)
(340.0942311 137.6594608 14.58681628)
(-105.7515263 162.5945638 -136.0302467)
(170.3547027 297.3034693 -342.0635091)
(-193.3497356 23.17565739 243.6881873)
(160.2284005 162.3695013 -272.8882263)
(-385.1369141 -225.1828483 -160.7587355)
(144.271761 127.6205436 87.04017114)
(-119.9674274 -215.2607438 154.6155625)
(-23.49942902 167.9735685 -82.21674484)
(-265.2685537 195.3898905 432.0794758)
(196.1129033 403.2208441 -245.6430242)
(488.5037766 85.02937873 -59.74606789)
(-112.26127 430.4966485 -65.795207)
(99.48111393 -421.2514543 -248.4470212)
(75.54741762 -305.0186244 -279.0839526)
(141.0486527 316.8138481 -60.48612641)
(468.3047101 34.45921231 -26.30018016)
(-110.3716588 -41.25469253 300.3004942)
(-64.69445511 -56.39438227 -378.5796298)
(-564.6623127 -46.63655249 -556.2783652)
(250.5348075 -18.00421386 -91.0868302)
(90.29539095 80.29206747 -243.3238773)
(332.2237574 -424.6112044 -351.2810968)
(-540.8402508 184.6906956 323.2280545)
(-369.6187808 -347.5328982 -190.0519665)
(-162.780107 -360.8164474 85.63559898)
(129.1128655 442.6102902 -48.18377757)
(94.92135738 259.7561766 -177.0719561)
(23.24337822 -35.20090903 -145.8076565)
(428.9312786 -247.4489567 -51.67801851)
(-43.00684818 -122.3737424 252.1425773)
(12.14227197 -44.56311795 -630.0975568)
(-89.89283502 391.9406866 146.0713485)
(-184.730715 -432.528862 178.6661154)
(-55.11522128 391.81641 -42.90858515)
(-379.4678067 258.6658281 253.6038345)
(-272.1207916 -12.99940224 253.4189386)
(50.29683325 -383.792466 -196.6967414)
(176.1696797 -32.98465405 286.5663087)
(-5.730105014 194.785059 -19.49909956)
(-88.56305659 109.8008166 125.1241523)
(101.0795526 273.0740827 117.3210754)
(-65.11233328 9.491394798 438.2704303)
(-204.2228629 -285.6572758 -217.3452586)
(102.4955645 294.8045029 165.6122113)
(572.5947225 104.6236955 -204.0093084)
(50.80050386 -281.3338135 22.0947049)
(244.5530196 -130.7669738 46.70276764)
(-136.9681826 37.3321522 -313.7105122)
(51.31232375 222.3280876 -336.2829317)
(-211.7260748 165.7457727 -112.491257)
(40.54772144 -255.2494139 -61.12242388)
(60.51801488 -237.8819577 159.9330569)
(-267.7512205 -196.7226224 196.8566276)
(85.02999533 -15.80533243 -502.6246852)
(-173.2757159 -299.8047382 -131.8758471)
(-151.3566032 -170.446944 20.94516061)
(-39.05225941 233.9279653 0.5920363002)
(19.85276337 183.8965521 -125.9499855)
(187.1255673 -45.16948006 85.736624)
(-260.8313793 -149.1939036 16.43273383)
(-316.2809404 15.56632145 -473.3482479)
(-44.68036748 -481.7074684 -138.2912624)
(-423.1852165 -223.3080805 58.214243)
(325.4829649 185.627157 172.8813192)
(488.179717 180.3493509 35.69779594)
(-79.83945502 -183.9813161 -52.48214798)
(384.0525191 -198.9679277 11.24508795)
(315.7694103 489.3276276 520.8658358)
(-494.6191209 -66.45471681 74.4758952)
(228.9070921 316.3087344 -15.64377628)
(-88.78206524 -127.088049 -276.3455068)
(-126.009876 243.7080197 129.7542826)
(381.2253849 -31.90525697 289.4998402)
(-2.814733027 537.5770931 -158.0880584)
(-309.4658873 155.287624 117.5080443)
(181.2668823 85.63742403 -154.8383616)
(-303.5131899 -217.9136629 51.73548137)
(141.2805309 -266.1233166 62.70390668)
(-266.0342549 -20.29302501 204.5945652)
(-30.39634446 484.1962189 -0.1509736577)
(-488.6192419 -49.63805122 97.72488985)
(241.8864996 128.4227931 32.51269459)
(-361.0524377 -252.2956489 -112.7686174)
(423.2083183 -86.03975229 402.8056985)
(44.01503319 -52.1162599 80.20143535)
(-176.8685745 190.5026437 -107.7882057)
(-41.80782934 -530.1290298 -140.2520084)
(75.85210038 -128.474264 -233.5880753)
(-495.8988211 -306.7628928 118.5823713)
(151.286249 -306.6595305 16.48371804)
(159.5889453 99.03432169 491.250456)
(-241.0668415 139.5175569 -194.7776605)
(204.2811386 -133.7903861 151.8355225)
(397.0606792 90.67316581 -33.808142)
(138.5659001 -90.63912394 315.1001485)
(-163.4786917 215.3496013 154.0699287)
(-135.6167295 -259.1876266 -66.26695862)
(-315.1158439 225.1409579 85.62195661)
(346.9577353 143.4920624 147.187189)
(188.5587252 403.7528562 -66.1127086)
(-7.201091351 -166.3962952 5.36514889)
(-66.88413208 -631.0271677 -588.3642812)
(-65.34189342 77.91422393 -212.8856176)
(253.1739479 -383.8041295 -67.43583739)
(-26.7783279 18.98859104 84.76612953)
(223.002705 -69.7428552 111.0274083)
(213.6398924 -161.9070985 140.9107917)
(-196.1672063 386.9920662 -390.5951312)
(-419.6586849 -152.7322032 -84.51737808)
(2.347270236 278.8258168 -49.79584547)
(-204.6424233 157.3545034 82.16760795)
(55.725453 -128.3013746 152.2714614)
(-37.25634635 252.5034793 95.71688429)
(5.503907065 135.2695372 -260.0643987)
(-209.9541797 124.1628937 -96.18744483)
(231.4531999 189.2240492 21.36526385)
(362.8896858 -116.505746 6.107158903)
(-22.72709448 50.70161237 196.3735006)
(-49.35623317 -178.5882463 -43.76956169)
(71.0756695 59.26364963 83.41571426)
(-111.6748946 -104.1378032 -273.8278838)
(8.860756704 121.8238879 184.6992104)
(-229.2020189 292.7008446 -495.0140965)
(-389.1852792 138.1425203 -20.25483987)
(-249.5965454 412.4432679 -218.7376807)
(-209.6207826 49.35044453 -205.0958347)
(274.1153453 123.4596727 -67.33656488)
(156.2777919 53.83067639 13.30422138)
(-621.3841679 -64.88204138 124.5618548)
(-60.8544264 -131.7704659 -133.7145578)
(256.2181853 -19.80617029 -219.5443694)
(-23.09772986 219.2285915 130.5574636)
(-169.9329987 -303.2095472 201.8204205)
(-125.5879823 -169.8097661 -75.674524)
(-95.4773318 155.0515494 -113.7263427)
(99.27101854 4.671161839 -353.7644791)
(-186.1454268 -42.44771273 266.022112)
(-158.9533509 851.1296344 123.9583874)
(-329.2428443 -137.5635789 -486.1430735)
(-180.6974437 -138.9079431 18.71499179)
(505.1737806 351.0090565 60.41885888)
(83.11261332 7.725932159 228.4217116)
(193.0325916 621.1174526 103.5629139)
(173.9912572 -216.162784 -155.8832786)
(-12.3657409 -19.25397461 -297.8836461)
(94.83032213 -66.56582728 270.8675375)
(-26.42294774 123.1637773 -173.6305846)
(-204.6316409 5.857841123 -292.1779269)
(-173.5456912 183.4965784 33.1157502)
(165.1560694 -60.80618604 134.5128414)
(-204.0845552 -108.4135394 325.1284393)
(211.8849047 94.31572466 15.65513593)
(-118.9356609 123.0154462 -143.7655792)
(-112.1049346 29.45823564 14.89239309)
(-230.5968606 -249.5827488 -300.1390177)
(-129.4842669 747.0274401 12.94110769)
(485.3253045 -326.8522752 -20.18451275)
(394.1888863 -203.0978721 3.738011519)
(-122.2533652 119.9650654 -256.8389827)
(-404.2253477 106.6782687 28.98132072)
(-126.3353016 181.9640988 47.71154412)
(-105.2165332 -106.3304465 557.8850627)
(92.30536499 243.4698326 9.932630001)
(257.8503203 141.0391937 -233.656624)