/*--------------------------------*- C++ -*----------------------------------*\
| =========                 |                                                 |
| \\      /  F ield         | OpenFOAM: The Open Source CFD Toolbox           |
|  \\    /   O peration     | Version:  v1706                                 |
|   \\  /    A nd           | Web:      www.OpenFOAM.com                      |
|    \\/     M anipulation  |                                                 |
\*---------------------------------------------------------------------------*/
FoamFile
{
    version     2.0;
    format      ascii;
    class       volScalarField;
    location    "0.02";
    object      dsmcRhoNMean_O2;
}
// * * * * * * * * * * * * * * * * * * * * * * * * * * * * * * * * * * * * * //

dimensions      [0 -3 0 0 0 0 0];


internalField   nonuniform List<scalar> 
5120
(
5.537769231
5.529461538
5.554153846
5.564615385
5.591846154
5.584461538
5.549692308
5.517307692
5.522461538
5.480153846
5.474230769
5.492153846
5.515076923
5.526692308
5.525153846
5.527538462
5.519538462
5.536461538
5.549769231
5.558615385
5.540615385
5.545076923
5.562615385
5.553153846
5.537
5.558538462
5.601307692
5.563230769
5.555384615
5.545769231
5.557
5.541769231
5.553
5.559615385
5.560384615
5.545076923
5.539461538
5.533461538
5.532307692
5.535692308
5.546923077
5.560769231
5.545538462
5.555692308
5.588230769
5.558230769
5.573538462
5.577461538
5.578538462
5.556153846
5.537692308
5.550384615
5.576384615
5.575076923
5.580615385
5.574307692
5.57
5.565461538
5.577923077
5.569076923
5.524769231
5.572153846
5.577923077
5.592769231
5.597153846
5.610692308
5.594230769
5.559153846
5.570615385
5.536923077
5.607307692
5.594384615
5.586692308
5.571692308
5.523384615
5.533615385
5.532461538
5.532384615
5.556
5.556307692
5.523769231
5.489384615
5.500846154
5.519846154
5.523538462
5.523615385
5.552153846
5.551230769
5.558615385
5.542230769
5.552461538
5.564230769
5.568076923
5.536076923
5.546846154
5.550230769
5.532384615
5.543384615
5.531230769
5.535461538
5.532692308
5.554692308
5.542230769
5.494076923
5.469846154
5.494
5.495769231
5.546846154
5.579846154
5.589
5.610769231
5.577461538
5.586384615
5.575153846
5.549076923
5.555769231
5.571384615
5.561769231
5.541230769
5.544538462
5.496692308
5.525384615
5.527769231
5.566846154
5.571076923
5.569307692
5.582538462
5.571615385
5.552538462
5.576230769
5.541538462
5.555461538
5.540615385
5.555769231
5.551692308
5.547692308
5.550692308
5.553076923
5.515384615
5.512
5.538461538
5.542692308
5.518923077
5.515384615
5.528307692
5.559769231
5.598538462
5.581230769
5.583230769
5.558538462
5.546384615
5.512615385
5.509692308
5.521
5.516692308
5.535923077
5.529153846
5.562538462
5.540307692
5.548769231
5.567769231
5.555538462
5.555307692
5.565076923
5.573384615
5.562307692
5.556461538
5.551307692
5.559846154
5.566307692
5.562923077
5.586153846
5.603076923
5.607384615
5.620923077
5.567
5.596153846
5.585846154
5.561
5.569307692
5.559923077
5.578769231
5.579230769
5.562615385
5.547923077
5.552846154
5.507538462
5.51
5.523384615
5.516692308
5.550538462
5.534769231
5.563846154
5.583461538
5.577692308
5.595538462
5.579307692
5.579
5.557615385
5.548538462
5.554846154
5.539692308
5.525
5.507692308
5.506846154
5.507384615
5.507615385
5.544846154
5.551
5.566769231
5.580384615
5.594846154
5.557153846
5.526230769
5.526384615
5.557384615
5.556923077
5.553692308
5.565923077
5.547153846
5.531076923
5.516384615
5.553923077
5.565307692
5.565538462
5.581
5.576846154
5.532538462
5.533769231
5.511769231
5.533923077
5.501230769
5.509461538
5.533461538
5.529307692
5.518538462
5.518384615
5.502538462
5.504076923
5.534153846
5.559230769
5.563615385
5.551538462
5.541846154
5.536076923
5.527
5.520923077
5.519538462
5.515076923
5.544923077
5.540923077
5.531230769
5.519923077
5.500461538
5.505769231
5.502615385
5.514
5.505230769
5.564230769
5.572076923
5.544846154
5.522538462
5.541461538
5.556923077
5.561384615
5.556384615
5.557076923
5.546923077
5.548
5.551153846
5.572076923
5.567615385
5.598
5.59
5.608076923
5.586307692
5.557307692
5.550384615
5.536615385
5.519615385
5.535153846
5.516076923
5.506384615
5.535153846
5.520307692
5.489615385
5.511538462
5.533153846
5.541538462
5.548384615
5.565307692
5.558692308
5.554692308
5.561538462
5.530230769
5.511615385
5.532923077
5.549615385
5.544692308
5.567846154
5.556538462
5.578538462
5.566846154
5.555076923
5.557384615
5.546615385
5.553461538
5.550923077
5.537230769
5.539461538
5.506769231
5.541153846
5.553461538
5.558692308
5.551307692
5.544769231
5.517923077
5.536615385
5.539692308
5.534
5.516923077
5.518307692
5.508769231
5.515846154
5.548692308
5.55
5.525
5.522384615
5.558
5.574307692
5.539
5.538538462
5.539307692
5.520076923
5.509307692
5.529
5.533076923
5.516692308
5.511076923
5.492307692
5.634615385
5.654692308
5.666307692
5.644538462
5.594
5.584
5.577769231
5.615615385
5.583923077
5.557923077
5.585615385
5.573461538
5.592076923
5.602153846
5.614076923
5.632153846
5.610307692
5.623692308
5.635692308
5.613615385
5.550615385
5.530230769
5.528307692
5.539076923
5.522538462
5.515461538
5.530076923
5.539769231
5.548461538
5.588153846
5.592307692
5.570769231
5.548384615
5.521615385
5.547153846
5.529769231
5.553307692
5.541692308
5.543692308
5.545307692
5.525846154
5.538692308
5.546230769
5.536846154
5.532769231
5.564
5.555769231
5.544384615
5.503307692
5.531384615
5.494461538
5.471538462
5.501846154
5.533692308
5.505461538
5.499538462
5.521230769
5.521153846
5.481769231
5.512153846
5.578384615
5.574153846
5.562
5.547923077
5.539615385
5.571615385
5.582
5.602
5.578076923
5.530307692
5.517923077
5.528076923
5.539538462
5.526923077
5.526
5.511153846
5.495615385
5.505076923
5.543
5.558230769
5.570615385
5.560230769
5.519923077
5.537
5.562384615
5.554
5.546153846
5.544076923
5.565769231
5.544615385
5.568153846
5.588769231
5.576384615
5.612692308
5.595153846
5.576307692
5.592769231
5.583307692
5.586615385
5.607615385
5.602846154
5.598923077
5.651307692
5.663615385
5.623153846
5.609538462
5.587923077
5.591461538
5.569
5.565846154
5.580923077
5.600461538
5.600615385
5.551307692
5.561230769
5.552076923
5.521846154
5.530923077
5.564384615
5.588
5.596384615
5.600538462
5.602307692
5.584153846
5.591
5.602538462
5.592230769
5.583846154
5.579307692
5.581923077
5.575076923
5.547538462
5.533153846
5.549769231
5.561615385
5.541615385
5.548461538
5.564692308
5.567
5.574
5.582384615
5.576692308
5.611692308
5.604230769
5.582076923
5.576615385
5.575769231
5.553538462
5.531923077
5.563307692
5.578
5.585
5.594230769
5.574076923
5.589692308
5.606846154
5.623615385
5.615076923
5.612230769
5.579076923
5.508846154
5.518692308
5.526923077
5.483230769
5.492692308
5.493076923
5.539923077
5.532076923
5.531615385
5.501230769
5.507
5.518923077
5.539230769
5.505
5.510461538
5.507923077
5.528076923
5.543692308
5.552923077
5.567615385
5.545153846
5.563615385
5.596076923
5.589615385
5.577461538
5.576769231
5.562538462
5.556692308
5.567769231
5.530307692
5.496230769
5.501076923
5.521846154
5.564538462
5.577461538
5.552846154
5.523538462
5.528076923
5.518230769
5.537153846
5.523461538
5.504230769
5.526538462
5.542769231
5.527615385
5.535846154
5.544153846
5.561384615
5.541923077
5.523923077
5.516538462
5.539461538
5.541615385
5.538153846
5.552230769
5.530615385
5.535307692
5.539076923
5.529
5.507769231
5.530153846
5.554384615
5.563230769
5.572692308
5.558692308
5.569846154
5.567538462
5.564384615
5.540461538
5.567846154
5.538307692
5.572461538
5.541538462
5.536615385
5.521230769
5.511153846
5.499769231
5.492076923
5.506461538
5.513538462
5.555
5.560923077
5.558846154
5.538230769
5.542384615
5.547230769
5.544307692
5.567923077
5.549692308
5.554230769
5.582923077
5.583923077
5.554230769
5.541076923
5.520692308
5.516384615
5.542692308
5.542538462
5.553846154
5.584076923
5.511307692
5.537538462
5.553076923
5.533076923
5.544307692
5.551538462
5.568307692
5.558153846
5.552923077
5.531307692
5.521076923
5.523230769
5.531769231
5.501461538
5.488461538
5.513230769
5.520153846
5.543538462
5.533538462
5.507769231
5.580923077
5.577769231
5.557307692
5.551769231
5.541307692
5.552384615
5.54
5.566461538
5.574230769
5.559230769
5.554153846
5.553846154
5.556
5.582692308
5.580769231
5.549384615
5.557
5.549692308
5.570230769
5.589153846
5.573076923
5.583846154
5.576307692
5.527
5.546923077
5.562538462
5.598615385
5.598076923
5.569769231
5.533076923
5.534384615
5.537461538
5.535538462
5.561153846
5.526461538
5.513538462
5.481
5.517461538
5.552769231
5.546769231
5.556538462
5.557153846
5.528923077
5.538076923
5.535538462
5.527076923
5.518923077
5.509846154
5.530769231
5.538846154
5.549615385
5.553153846
5.550461538
5.544153846
5.529923077
5.544307692
5.560461538
5.592923077
5.569384615
5.575153846
5.537538462
5.531692308
5.551538462
5.586076923
5.565230769
5.552
5.541076923
5.544307692
5.520307692
5.504153846
5.524230769
5.527153846
5.561692308
5.569769231
5.572307692
5.555769231
5.563384615
5.553307692
5.550615385
5.536230769
5.535461538
5.498384615
5.505384615
5.499923077
5.502076923
5.538461538
5.511769231
5.499923077
5.515307692
5.549538462
5.560538462
5.538692308
5.513076923
5.532
5.532538462
5.531692308
5.544692308
5.556153846
5.565846154
5.568307692
5.523615385
5.541
5.533
5.520230769
5.540153846
5.522692308
5.513307692
5.505384615
5.539
5.569153846
5.571846154
5.556307692
5.546384615
5.556769231
5.554307692
5.589923077
5.572538462
5.540461538
5.519846154
5.522230769
5.511384615
5.538307692
5.572384615
5.586
5.591076923
5.575923077
5.592846154
5.575
5.566461538
5.537230769
5.528307692
5.530692308
5.541846154
5.529538462
5.536615385
5.537615385
5.552076923
5.552538462
5.556846154
5.513
5.53
5.534153846
5.497692308
5.501230769
5.514230769
5.540153846
5.564538462
5.560307692
5.589538462
5.592615385
5.572615385
5.520923077
5.522615385
5.539538462
5.549
5.522384615
5.533
5.499230769
5.512230769
5.541384615
5.550846154
5.533230769
5.560923077
5.559307692
5.565692308
5.562076923
5.562615385
5.594846154
5.576230769
5.594538462
5.596461538
5.585076923
5.610538462
5.576076923
5.543923077
5.564615385
5.569153846
5.580461538
5.575230769
5.559384615
5.614461538
5.605384615
5.605076923
5.623076923
5.609076923
5.593769231
5.600538462
5.603
5.646230769
5.619538462
5.617307692
5.612923077
5.632
5.648923077
5.648461538
5.631692308
5.604538462
5.613384615
5.588846154
5.604769231
5.601692308
5.602
5.594615385
5.589538462
5.592307692
5.561769231
5.547384615
5.546076923
5.533153846
5.549461538
5.559769231
5.544384615
5.520384615
5.551
5.583846154
5.612076923
5.626
5.582538462
5.604615385
5.590923077
5.534846154
5.514692308
5.517
5.521615385
5.545076923
5.563
5.590307692
5.608923077
5.615307692
5.617076923
5.597153846
5.587615385
5.571692308
5.573923077
5.555076923
5.550153846
5.554923077
5.566
5.555230769
5.555615385
5.563
5.557230769
5.546769231
5.548846154
5.557307692
5.501153846
5.501769231
5.512153846
5.508692308
5.532461538
5.545461538
5.511153846
5.536384615
5.535692308
5.557153846
5.574307692
5.599153846
5.603769231
5.593769231
5.576692308
5.560692308
5.522076923
5.557230769
5.54
5.558461538
5.555076923
5.573461538
5.594692308
5.605153846
5.561538462
5.578923077
5.561384615
5.536846154
5.571384615
5.552307692
5.558538462
5.544923077
5.511846154
5.502461538
5.515307692
5.619
5.596384615
5.600923077
5.573615385
5.550461538
5.545384615
5.553076923
5.570615385
5.580538462
5.565384615
5.535538462
5.555846154
5.571384615
5.561923077
5.571615385
5.574076923
5.552
5.594307692
5.622769231
5.608076923
5.545846154
5.548384615
5.538
5.560461538
5.572153846
5.583923077
5.583384615
5.559
5.546384615
5.510461538
5.545076923
5.536923077
5.531538462
5.549538462
5.549076923
5.578230769
5.561461538
5.544153846
5.535923077
5.547692308
5.554923077
5.524307692
5.567153846
5.569153846
5.546307692
5.548153846
5.547615385
5.525615385
5.515923077
5.508692308
5.532307692
5.516461538
5.511384615
5.522538462
5.536307692
5.518692308
5.533307692
5.522538462
5.540076923
5.532076923
5.534615385
5.521153846
5.550307692
5.579384615
5.585230769
5.594153846
5.594
5.597923077
5.580461538
5.599461538
5.581153846
5.583230769
5.563846154
5.540692308
5.563
5.554076923
5.570461538
5.536538462
5.503692308
5.528538462
5.497538462
5.522461538
5.558769231
5.573538462
5.558846154
5.542461538
5.512769231
5.532538462
5.556846154
5.548307692
5.518615385
5.524692308
5.516615385
5.557538462
5.556076923
5.552923077
5.544615385
5.506384615
5.497846154
5.482384615
5.565461538
5.533384615
5.527230769
5.495615385
5.518230769
5.51
5.539769231
5.591692308
5.562846154
5.549846154
5.531230769
5.525461538
5.542153846
5.538153846
5.539461538
5.541923077
5.548538462
5.541076923
5.533769231
5.540769231
5.554384615
5.546461538
5.553307692
5.538384615
5.529692308
5.507153846
5.499692308
5.501076923
5.510153846
5.481538462
5.492846154
5.489153846
5.514384615
5.541076923
5.537230769
5.540384615
5.513923077
5.534230769
5.534846154
5.543615385
5.505307692
5.508615385
5.507538462
5.506615385
5.520615385
5.547
5.546692308
5.575153846
5.555846154
5.576615385
5.589153846
5.579923077
5.573153846
5.570230769
5.566153846
5.543461538
5.528538462
5.489461538
5.511692308
5.513769231
5.572153846
5.553076923
5.553
5.551230769
5.523615385
5.515769231
5.516692308
5.525307692
5.516538462
5.570230769
5.563615385
5.544769231
5.535692308
5.545230769
5.547
5.538307692
5.536230769
5.548538462
5.577538462
5.592692308
5.507307692
5.521769231
5.533
5.529692308
5.554846154
5.560230769
5.575230769
5.583153846
5.563769231
5.531923077
5.516923077
5.525538462
5.522769231
5.503846154
5.469153846
5.474
5.504846154
5.524384615
5.521230769
5.513076923
5.602307692
5.615153846
5.566076923
5.557230769
5.562538462
5.595230769
5.559538462
5.543769231
5.554692308
5.561692308
5.553153846
5.544307692
5.532076923
5.548538462
5.550615385
5.563076923
5.558692308
5.557769231
5.567307692
5.582307692
5.573769231
5.579384615
5.590461538
5.593615385
5.585230769
5.577692308
5.588230769
5.594
5.591769231
5.597538462
5.601384615
5.609769231
5.598692308
5.578692308
5.563615385
5.564076923
5.540076923
5.567461538
5.585384615
5.575538462
5.557
5.531923077
5.507923077
5.538846154
5.548461538
5.546769231
5.513769231
5.500769231
5.502384615
5.536307692
5.568846154
5.582461538
5.601307692
5.577076923
5.542461538
5.523692308
5.534076923
5.566
5.576153846
5.594076923
5.533153846
5.535384615
5.574307692
5.576692308
5.583076923
5.584
5.605307692
5.611076923
5.598769231
5.584769231
5.555692308
5.569076923
5.578692308
5.553769231
5.553923077
5.540692308
5.542384615
5.539307692
5.537538462
5.520384615
5.552692308
5.564153846
5.591538462
5.597769231
5.608846154
5.619153846
5.624461538
5.636230769
5.607692308
5.588153846
5.553846154
5.560692308
5.563307692
5.588076923
5.590384615
5.586615385
5.544461538
5.539923077
5.517076923
5.514384615
5.547076923
5.531769231
5.578769231
5.550307692
5.579923077
5.577846154
5.566230769
5.584307692
5.575230769
5.583076923
5.594153846
5.561846154
5.543230769
5.526230769
5.550153846
5.532692308
5.546923077
5.551692308
5.549307692
5.561769231
5.542923077
5.581076923
5.547461538
5.536230769
5.532846154
5.524769231
5.527615385
5.557846154
5.554076923
5.567
5.577076923
5.630615385
5.599384615
5.551307692
5.550153846
5.547923077
5.558692308
5.562384615
5.544076923
5.555153846
5.506615385
5.530846154
5.553923077
5.575615385
5.571846154
5.544230769
5.492846154
5.487769231
5.532384615
5.525769231
5.503923077
5.496307692
5.489769231
5.527923077
5.522076923
5.501538462
5.505384615
5.508076923
5.491615385
5.493538462
5.479461538
5.483923077
5.444923077
5.420307692
5.453076923
5.485076923
5.505923077
5.543153846
5.553846154
5.575769231
5.592923077
5.550846154
5.568692308
5.578538462
5.559615385
5.570846154
5.562461538
5.531307692
5.535230769
5.509384615
5.569
5.563307692
5.550692308
5.513769231
5.519
5.519692308
5.524230769
5.512461538
5.522538462
5.528538462
5.542692308
5.562615385
5.554153846
5.551923077
5.546846154
5.573230769
5.550692308
5.584461538
5.596076923
5.589615385
5.552230769
5.513384615
5.518384615
5.536384615
5.538846154
5.540615385
5.542538462
5.518384615
5.558769231
5.590076923
5.584076923
5.563538462
5.538
5.520230769
5.532846154
5.540153846
5.575076923
5.594461538
5.593
5.578846154
5.512615385
5.505
5.520384615
5.523538462
5.513769231
5.539230769
5.537230769
5.538769231
5.508538462
5.514076923
5.545692308
5.547461538
5.565076923
5.589461538
5.570230769
5.541307692
5.532846154
5.525153846
5.510769231
5.492692308
5.530538462
5.548307692
5.531846154
5.533461538
5.540153846
5.513076923
5.489
5.490846154
5.527769231
5.526153846
5.538
5.534384615
5.472615385
5.471307692
5.493846154
5.498769231
5.513538462
5.488846154
5.521769231
5.540538462
5.593769231
5.584076923
5.594307692
5.577923077
5.589384615
5.573153846
5.574307692
5.580846154
5.558692308
5.538538462
5.506076923
5.494846154
5.523307692
5.553692308
5.585384615
5.588769231
5.576307692
5.557615385
5.564615385
5.534692308
5.581384615
5.588769231
5.552076923
5.539076923
5.549615385
5.546230769
5.565076923
5.529307692
5.527307692
5.518846154
5.519153846
5.519846154
5.550846154
5.582692308
5.592
5.599692308
5.632615385
5.628461538
5.597923077
5.565538462
5.585
5.599615385
5.543307692
5.573615385
5.586846154
5.553153846
5.541615385
5.522461538
5.508307692
5.532846154
5.509076923
5.538230769
5.543076923
5.522230769
5.563846154
5.589076923
5.548384615
5.562692308
5.562384615
5.578923077
5.552615385
5.533384615
5.514692308
5.555384615
5.554153846
5.557
5.539307692
5.546538462
5.585923077
5.555692308
5.591692308
5.603230769
5.594
5.588384615
5.589692308
5.598923077
5.604461538
5.576153846
5.591538462
5.578692308
5.557615385
5.56
5.606307692
5.549615385
5.537384615
5.568615385
5.561846154
5.615846154
5.586769231
5.598
5.582769231
5.556692308
5.549461538
5.581076923
5.608461538
5.596769231
5.577923077
5.585307692
5.550923077
5.543230769
5.555692308
5.555230769
5.553230769
5.551692308
5.528384615
5.514846154
5.493076923
5.522615385
5.505076923
5.481923077
5.512615385
5.515076923
5.522692308
5.557769231
5.565153846
5.551
5.567923077
5.561307692
5.528
5.540307692
5.531615385
5.545076923
5.539384615
5.546538462
5.582384615
5.593538462
5.575538462
5.587538462
5.589769231
5.628
5.640461538
5.643153846
5.592615385
5.609615385
5.599384615
5.588923077
5.534307692
5.529538462
5.550076923
5.581
5.541538462
5.548692308
5.554230769
5.569384615
5.520692308
5.522230769
5.490461538
5.481923077
5.482615385
5.514846154
5.542615385
5.546692308
5.522769231
5.524153846
5.511230769
5.521384615
5.526769231
5.526076923
5.551230769
5.538307692
5.529
5.525692308
5.518384615
5.541692308
5.569230769
5.558384615
5.548846154
5.559307692
5.579461538
5.570230769
5.531692308
5.542846154
5.565923077
5.538461538
5.488538462
5.503307692
5.487076923
5.517692308
5.538230769
5.558538462
5.503307692
5.476153846
5.480461538
5.490615385
5.522846154
5.540923077
5.538923077
5.512769231
5.501846154
5.518538462
5.479692308
5.478769231
5.470769231
5.493538462
5.530538462
5.569461538
5.578692308
5.567769231
5.542538462
5.509384615
5.582307692
5.587692308
5.540230769
5.554230769
5.526923077
5.514307692
5.497076923
5.492461538
5.515076923
5.511538462
5.520692308
5.546076923
5.567461538
5.585076923
5.599384615
5.569692308
5.562923077
5.568384615
5.559615385
5.553692308
5.537153846
5.554615385
5.530846154
5.544769231
5.554307692
5.528076923
5.520461538
5.521384615
5.507538462
5.518769231
5.533461538
5.520384615
5.519769231
5.499846154
5.497538462
5.492
5.529615385
5.538230769
5.558076923
5.562538462
5.531076923
5.512153846
5.538538462
5.541461538
5.558461538
5.582923077
5.570153846
5.572538462
5.557
5.534076923
5.520615385
5.544461538
5.554538462
5.528692308
5.535923077
5.512846154
5.504538462
5.537615385
5.559538462
5.531230769
5.572538462
5.589230769
5.551923077
5.535461538
5.512
5.526384615
5.530230769
5.540384615
5.568153846
5.553153846
5.552384615
5.552538462
5.527846154
5.569923077
5.586692308
5.554923077
5.527769231
5.512923077
5.514076923
5.547384615
5.526307692
5.538076923
5.559076923
5.534230769
5.522384615
5.534384615
5.513538462
5.512615385
5.540692308
5.554076923
5.550307692
5.608384615
5.594461538
5.589153846
5.557076923
5.585461538
5.586307692
5.570692308
5.556384615
5.536153846
5.599923077
5.591307692
5.564692308
5.598153846
5.617769231
5.583461538
5.612692308
5.635692308
5.587153846
5.567307692
5.556461538
5.553615385
5.578846154
5.547846154
5.536846154
5.531615385
5.577076923
5.603384615
5.602230769
5.592230769
5.603923077
5.593846154
5.623923077
5.604769231
5.638846154
5.619461538
5.594692308
5.555153846
5.565307692
5.535846154
5.546384615
5.559
5.56
5.523153846
5.566384615
5.576692308
5.591923077
5.591846154
5.615923077
5.616307692
5.583
5.581
5.585538462
5.582076923
5.586307692
5.572307692
5.579384615
5.639461538
5.636230769
5.643384615
5.658461538
5.655769231
5.641923077
5.634076923
5.634461538
5.611923077
5.593769231
5.621615385
5.618923077
5.603846154
5.557615385
5.535538462
5.560846154
5.548461538
5.577384615
5.590461538
5.576538462
5.580538462
5.570846154
5.559692308
5.573846154
5.585461538
5.546076923
5.561384615
5.538076923
5.551230769
5.564384615
5.575384615
5.575923077
5.571384615
5.535538462
5.538461538
5.533153846
5.543230769
5.542461538
5.518076923
5.530846154
5.554769231
5.551153846
5.556307692
5.568
5.558076923
5.551307692
5.555
5.546153846
5.534692308
5.548461538
5.520846154
5.523923077
5.522076923
5.520923077
5.540461538
5.556
5.549538462
5.537846154
5.547307692
5.550538462
5.53
5.539153846
5.487230769
5.470076923
5.507846154
5.527692308
5.529615385
5.503615385
5.502307692
5.525230769
5.525769231
5.514692308
5.515230769
5.620307692
5.601769231
5.572692308
5.562230769
5.568923077
5.542538462
5.549307692
5.527
5.509153846
5.513538462
5.518
5.513461538
5.541846154
5.548076923
5.560384615
5.535384615
5.535307692
5.542615385
5.587153846
5.598153846
5.551153846
5.53
5.529076923
5.530615385
5.530846154
5.527384615
5.546923077
5.585461538
5.597230769
5.564846154
5.527076923
5.535615385
5.567076923
5.570615385
5.576692308
5.563461538
5.587230769
5.599461538
5.596076923
5.551230769
5.558153846
5.552230769
5.515230769
5.507923077
5.502692308
5.516615385
5.525076923
5.519846154
5.535384615
5.524153846
5.527
5.518461538
5.519615385
5.525538462
5.524615385
5.567769231
5.553384615
5.545230769
5.575
5.579538462
5.507076923
5.538692308
5.526538462
5.513923077
5.516846154
5.506615385
5.507153846
5.507461538
5.495153846
5.519615385
5.526
5.548
5.537230769
5.547769231
5.533
5.508769231
5.530692308
5.560384615
5.522307692
5.51
5.594384615
5.579
5.584846154
5.566846154
5.585615385
5.594615385
5.597461538
5.578615385
5.571230769
5.571461538
5.574
5.538692308
5.550230769
5.534461538
5.558153846
5.548692308
5.588
5.598384615
5.574769231
5.580230769
5.532
5.506769231
5.508846154
5.514230769
5.536692308
5.535
5.565538462
5.562230769
5.537615385
5.544307692
5.53
5.544461538
5.546692308
5.569692308
5.564692308
5.580384615
5.573461538
5.572230769
5.558076923
5.544384615
5.546846154
5.590538462
5.559615385
5.566384615
5.545461538
5.497769231
5.503692308
5.520461538
5.521615385
5.531923077
5.529923077
5.544
5.550615385
5.526615385
5.521
5.534230769
5.500615385
5.489692308
5.492384615
5.490384615
5.567538462
5.524384615
5.520846154
5.509230769
5.548230769
5.522
5.551230769
5.552
5.557
5.555307692
5.563846154
5.532
5.528384615
5.558307692
5.538923077
5.547846154
5.563230769
5.544153846
5.543384615
5.566153846
5.538384615
5.556538462
5.530384615
5.548384615
5.563307692
5.555
5.520769231
5.522461538
5.536307692
5.505769231
5.506615385
5.533615385
5.564230769
5.566230769
5.582615385
5.557384615
5.587923077
5.587153846
5.595307692
5.545461538
5.589384615
5.591769231
5.587923077
5.578769231
5.555538462
5.541769231
5.553769231
5.536230769
5.553153846
5.522923077
5.520923077
5.524769231
5.540384615
5.553692308
5.565307692
5.562076923
5.544846154
5.539615385
5.558846154
5.562461538
5.504461538
5.479307692
5.508692308
5.528153846
5.496
5.533615385
5.532923077
5.535538462
5.518384615
5.519769231
5.521153846
5.508230769
5.501
5.498615385
5.495153846
5.510692308
5.503
5.473846154
5.493461538
5.491846154
5.528846154
5.559307692
5.544538462
5.549153846
5.541923077
5.531153846
5.525
5.531615385
5.532
5.556307692
5.539615385
5.546076923
5.581538462
5.560461538
5.568923077
5.550461538
5.552615385
5.527384615
5.537230769
5.545615385
5.570384615
5.573461538
5.554692308
5.565230769
5.535
5.541384615
5.511
5.515692308
5.535769231
5.536769231
5.568461538
5.581461538
5.564461538
5.565692308
5.539846154
5.529538462
5.511307692
5.485615385
5.513076923
5.550538462
5.590538462
5.581153846
5.583692308
5.535923077
5.528923077
5.520153846
5.541923077
5.548923077
5.538153846
5.540076923
5.525461538
5.532846154
5.529076923
5.518692308
5.507461538
5.549
5.562
5.554461538
5.584153846
5.558923077
5.529769231
5.507538462
5.52
5.569923077
5.562615385
5.569307692
5.542153846
5.530692308
5.517538462
5.519230769
5.559846154
5.566923077
5.572
5.577692308
5.573230769
5.545615385
5.548846154
5.571769231
5.568538462
5.560615385
5.531461538
5.523461538
5.526384615
5.520307692
5.531461538
5.557615385
5.572769231
5.519846154
5.549692308
5.566230769
5.559846154
5.517461538
5.504384615
5.483461538
5.517846154
5.512076923
5.519923077
5.489076923
5.508076923
5.506923077
5.558846154
5.569
5.601615385
5.576769231
5.590769231
5.599615385
5.587307692
5.597615385
5.562153846
5.547076923
5.571307692
5.566538462
5.564846154
5.539846154
5.523692308
5.549692308
5.575769231
5.561153846
5.548615385
5.537384615
5.542461538
5.535615385
5.534384615
5.508615385
5.510769231
5.511384615
5.491615385
5.502461538
5.515923077
5.511307692
5.512230769
5.538384615
5.527615385
5.539076923
5.527307692
5.515307692
5.520230769
5.545230769
5.546769231
5.543384615
5.506384615
5.536538462
5.529
5.535692308
5.569230769
5.550461538
5.566076923
5.533615385
5.554769231
5.556230769
5.552692308
5.504230769
5.546
5.565846154
5.541384615
5.541538462
5.539538462
5.509384615
5.487307692
5.533461538
5.544384615
5.553
5.533153846
5.519615385
5.524538462
5.541692308
5.555846154
5.551
5.589153846
5.597461538
5.581076923
5.586230769
5.545307692
5.526384615
5.523615385
5.529923077
5.545615385
5.519923077
5.516538462
5.500076923
5.614461538
5.610076923
5.622153846
5.625923077
5.608307692
5.566076923
5.563923077
5.574
5.547846154
5.556692308
5.550384615
5.571923077
5.600153846
5.578769231
5.577153846
5.550769231
5.544076923
5.519692308
5.559538462
5.598307692
5.554076923
5.545461538
5.530615385
5.509307692
5.514384615
5.548615385
5.533307692
5.544615385
5.508384615
5.483538462
5.506230769
5.486923077
5.476923077
5.485692308
5.499769231
5.506
5.507461538
5.500461538
5.494384615
5.506923077
5.523769231
5.554307692
5.589692308
5.581692308
5.551538462
5.565846154
5.536769231
5.541384615
5.570923077
5.574076923
5.571615385
5.588615385
5.608538462
5.557923077
5.570076923
5.540692308
5.552230769
5.543076923
5.573923077
5.545769231
5.514384615
5.526769231
5.528384615
5.545923077
5.535615385
5.569384615
5.557
5.566
5.571615385
5.524230769
5.513461538
5.501615385
5.516384615
5.517384615
5.511153846
5.530230769
5.524461538
5.524538462
5.509846154
5.494769231
5.515538462
5.528230769
5.514461538
5.546
5.536
5.535153846
5.553
5.540076923
5.574076923
5.602692308
5.616461538
5.605230769
5.604615385
5.566846154
5.548923077
5.550384615
5.565692308
5.532307692
5.528153846
5.523153846
5.491461538
5.488
5.491461538
5.464769231
5.490153846
5.504
5.545769231
5.536
5.571692308
5.579923077
5.580076923
5.584692308
5.594
5.558153846
5.535153846
5.517461538
5.519615385
5.507307692
5.522846154
5.525461538
5.546307692
5.553153846
5.552923077
5.560076923
5.567153846
5.556538462
5.504153846
5.486
5.491153846
5.498
5.499769231
5.499461538
5.509923077
5.498538462
5.526384615
5.527692308
5.535846154
5.554
5.550230769
5.521769231
5.525615385
5.501923077
5.514153846
5.519307692
5.522307692
5.533
5.543461538
5.549692308
5.545769231
5.528769231
5.564153846
5.538230769
5.535538462
5.528153846
5.521538462
5.500384615
5.504769231
5.507461538
5.486615385
5.530692308
5.541230769
5.561307692
5.536153846
5.537769231
5.510230769
5.512615385
5.513692308
5.535153846
5.529230769
5.532384615
5.529461538
5.515692308
5.542384615
5.526538462
5.53
5.567307692
5.567384615
5.554538462
5.601
5.569692308
5.534230769
5.531769231
5.537923077
5.528538462
5.551
5.511769231
5.534615385
5.528230769
5.503307692
5.502846154
5.484692308
5.493538462
5.525923077
5.542692308
5.564692308
5.540230769
5.546307692
5.514
5.526538462
5.516923077
5.515384615
5.495615385
5.492076923
5.515538462
5.523846154
5.529923077
5.541538462
5.536076923
5.513538462
5.514461538
5.532230769
5.548615385
5.588846154
5.594461538
5.563692308
5.558153846
5.555846154
5.555076923
5.559461538
5.522230769
5.524
5.539846154
5.558846154
5.562923077
5.569615385
5.546846154
5.524076923
5.518230769
5.539692308
5.538923077
5.534230769
5.507769231
5.482230769
5.500615385
5.478461538
5.485769231
5.505153846
5.485230769
5.483538462
5.498615385
5.524153846
5.523615385
5.543230769
5.559923077
5.544
5.577230769
5.575461538
5.568538462
5.560307692
5.575923077
5.579846154
5.601538462
5.592076923
5.574384615
5.549615385
5.545692308
5.541538462
5.519923077
5.517307692
5.517846154
5.584692308
5.578153846
5.546153846
5.548307692
5.531692308
5.507615385
5.528384615
5.512692308
5.548076923
5.552615385
5.557307692
5.536692308
5.519153846
5.542692308
5.533692308
5.587538462
5.577846154
5.566307692
5.588076923
5.599538462
5.560692308
5.533307692
5.521769231
5.530538462
5.507384615
5.517923077
5.498461538
5.509923077
5.540461538
5.557461538
5.551846154
5.579769231
5.575153846
5.572538462
5.627153846
5.626846154
5.605615385
5.608076923
5.643615385
5.587153846
5.546384615
5.535923077
5.558307692
5.566846154
5.552076923
5.554230769
5.568846154
5.567538462
5.555846154
5.544538462
5.549153846
5.556307692
5.559615385
5.551
5.551230769
5.547076923
5.588461538
5.592153846
5.576538462
5.572
5.580538462
5.565615385
5.569923077
5.550153846
5.542307692
5.534769231
5.569384615
5.536153846
5.540538462
5.536769231
5.564230769
5.567384615
5.578692308
5.568846154
5.603230769
5.625846154
5.606307692
5.614461538
5.576384615