/*--------------------------------*- C++ -*----------------------------------*\
| =========                 |                                                 |
| \\      /  F ield         | OpenFOAM: The Open Source CFD Toolbox           |
|  \\    /   O peration     | Version:  v1706                                 |
|   \\  /    A nd           | Web:      www.OpenFOAM.com                      |
|    \\/     M anipulation  |                                                 |
\*---------------------------------------------------------------------------*/
FoamFile
{
    version     2.0;
    format      ascii;
    class       volScalarField;
    location    "0.02";
    object      dsmcRhoNMean_mixture;
}
// * * * * * * * * * * * * * * * * * * * * * * * * * * * * * * * * * * * * * //

dimensions      [0 -3 0 0 0 0 0];


internalField   nonuniform List<scalar> 
5120
(
25.139
25.11038462
25.12023077
25.15384615
25.17823077
25.20207692
25.13792308
25.09138462
25.03315385
24.98684615
24.96138462
24.96769231
24.998
25.00946154
25.03861538
25.03107692
24.979
25.06215385
25.07961538
25.10338462
24.985
24.98415385
25.05230769
25.06584615
25.00046154
24.94361538
24.99930769
24.977
25.03461538
24.97769231
25.08338462
25.06576923
25.00076923
25.02107692
24.99684615
25.05553846
25.00215385
25.05230769
24.99130769
25.02446154
24.96684615
24.97323077
24.94792308
24.97546154
25.07253846
25.06084615
25.01138462
25.04138462
25.05192308
25.04723077
25.02076923
25.06192308
25.08892308
25.08923077
25.14661538
25.082
25.08630769
25.01338462
25.02707692
24.99830769
24.97261538
24.99807692
25.034
25.05876923
25.05530769
25.05338462
25.04946154
25.01707692
25.01776923
24.97115385
25.04361538
25.02130769
24.99815385
24.91315385
24.89592308
24.89261538
24.90338462
25.00230769
25.00323077
24.96646154
24.96530769
24.94669231
25.00023077
24.95869231
24.95392308
24.92061538
24.91361538
24.91369231
24.901
24.89369231
24.91561538
25.02438462
24.98161538
25.00907692
25.01576923
24.96484615
24.952
24.95553846
24.95423077
24.97215385
24.93038462
24.96638462
24.96761538
24.87753846
24.97815385
24.96530769
24.88046154
24.87292308
24.87169231
24.94115385
24.95592308
24.99238462
24.97538462
25.045
24.96261538
24.97892308
24.97046154
24.96638462
24.91315385
24.94130769
24.85253846
24.839
24.87769231
24.98230769
24.94384615
24.95223077
24.95230769
24.95376923
24.93638462
24.90838462
24.85515385
24.963
24.96853846
24.97638462
24.95553846
24.96238462
24.94161538
24.93684615
24.92276923
24.82661538
24.90569231
24.90169231
24.84269231
24.82930769
24.84184615
24.84746154
24.85792308
24.85884615
24.84861538
24.87438462
24.85761538
24.789
24.82646154
24.93992308
24.96376923
24.98092308
24.98392308
24.99361538
24.94146154
24.97084615
24.98238462
24.93346154
24.96130769
24.92430769
24.92415385
24.98023077
24.96023077
24.90915385
24.96353846
24.93830769
24.97776923
25.00123077
25.001
24.99007692
24.99684615
24.98192308
25.06923077
25.03961538
25.00515385
25.03753846
24.96123077
25.00692308
24.99338462
24.911
24.94130769
24.91476923
24.97507692
25.00723077
24.99838462
24.87407692
24.82269231
24.86653846
24.92084615
24.95907692
24.98753846
24.91515385
24.88130769
24.87323077
24.94746154
24.97261538
25.06792308
25.109
25.08069231
25.08807692
25.01284615
24.97553846
24.91238462
24.92938462
24.91230769
24.93623077
25.01269231
25.08223077
25.04123077
25.02892308
24.96776923
24.97723077
25.04684615
25.02046154
25.00861538
25.00046154
24.90907692
24.85307692
24.935
24.94038462
24.98561538
25.02792308
25.07061538
25.00423077
24.99015385
24.95776923
24.97753846
24.97146154
24.95161538
24.99692308
25.021
24.97730769
24.97115385
24.95253846
24.90707692
24.90038462
25.03784615
25.03053846
25.038
24.98976923
24.952
24.93953846
24.93569231
24.88607692
24.91407692
24.92607692
24.93230769
24.98769231
24.97061538
24.99492308
25.03446154
24.99269231
25.02507692
25.00338462
25.07676923
25.08176923
25.08592308
25.029
25.02623077
25.05361538
25.03169231
24.98115385
24.97615385
25.02315385
25.00946154
25.04561538
25.11338462
25.10392308
25.17492308
25.14315385
25.13215385
25.09338462
25.03423077
25.03446154
25.02353846
24.94253846
24.95138462
24.90938462
24.862
24.88207692
24.907
24.88284615
24.87638462
24.89192308
25.01523077
25.02415385
25.11207692
25.03315385
25.05646154
25.01369231
24.97184615
24.82838462
24.89461538
24.99023077
25.04646154
25.051
25.02846154
25.065
25.01538462
25.00230769
24.95215385
24.98869231
25.04484615
25.09115385
25.095
25.06130769
24.93146154
24.96476923
24.95430769
24.95384615
24.94676923
25.02130769
25.043
25.053
25.024
25.00984615
24.98269231
25.02684615
24.98792308
25.00461538
25.07576923
25.10315385
25.03776923
25.00076923
25.02553846
25.11169231
25.14269231
25.03946154
24.95507692
24.94707692
25.01576923
25.00469231
24.97023077
24.98307692
24.944
24.91792308
25.09215385
25.08938462
25.10669231
25.07107692
25.02784615
25.08469231
24.99646154
25.049
24.98384615
24.98930769
24.976
25.02346154
25.09276923
25.07838462
25.01946154
25.03661538
25.03061538
24.99930769
25.02061538
25.03184615
25.02876923
25.06946154
25.01961538
25.02738462
25.00238462
24.96561538
25.01
25.01338462
25.02184615
25.01007692
24.99346154
24.98769231
25.02692308
24.98576923
25.01384615
25.04176923
25.09646154
25.08869231
25.04507692
25.06276923
24.90476923
24.92230769
24.94015385
24.92976923
24.89815385
25.01776923
25.017
25.024
24.96823077
24.98446154
24.93053846
24.86946154
24.91815385
24.94561538
24.91623077
24.93153846
24.97623077
24.88069231
24.88761538
24.88907692
25.06384615
25.05576923
25.02676923
25.00615385
25.00992308
25.10138462
25.11492308
25.16623077
25.09453846
25.06015385
25.00446154
25.023
24.99823077
24.96953846
24.88053846
24.90638462
24.86161538
24.86392308
24.93861538
25.02015385
25.00323077
25.00484615
24.98407692
25.00346154
25.00746154
25.02223077
25.06238462
25.10607692
25.09323077
25.04369231
25.08776923
24.98530769
24.99269231
25.05069231
25.01346154
24.98484615
25.03261538
24.98238462
25.022
25.01792308
25.03630769
25.01123077
25.09446154
25.06330769
25.06730769
25.08523077
25.08292308
25.069
25.09869231
25.07861538
25.08507692
25.03076923
25.00069231
24.98376923
24.99815385
25.00815385
24.97107692
24.97053846
25.01430769
25.01661538
25.13138462
25.11692308
25.14138462
25.13523077
25.104
25.08776923
25.07669231
25.00007692
24.95861538
24.99484615
25.03038462
24.98692308
25.03169231
25.01261538
25.01823077
25.05146154
25.00561538
25.00923077
24.99369231
25.09361538
25.01807692
25.04130769
25.01923077
25.02461538
24.95053846
24.94676923
24.97238462
24.99253846
24.91653846
24.96523077
24.93530769
24.97238462
25.01315385
25.00784615
25.08669231
25.10461538
25.10784615
25.11253846
25.11061538
25.05415385
24.825
24.84092308
24.85092308
24.86369231
24.93623077
24.953
24.96223077
24.969
24.97861538
24.94515385
24.99561538
24.98130769
24.95576923
24.88015385
24.80515385
24.82030769
24.87192308
24.88423077
24.91646154
24.88723077
24.98284615
24.97038462
25.01353846
25.06507692
25.04153846
25.03438462
24.97446154
25.03353846
25.00946154
24.98215385
24.87161538
24.78807692
24.84015385
24.88592308
24.94230769
24.93769231
24.93676923
24.96523077
24.97407692
25.00161538
25.03807692
24.99753846
25.05630769
25.04523077
25.00453846
25.04069231
25.08207692
25.09415385
25.03346154
25.03253846
25.01238462
25.06384615
24.98438462
24.93884615
24.94184615
24.96646154
24.99376923
25.00223077
25.03307692
25.01069231
25.04292308
25.05792308
25.11176923
25.09223077
25.07630769
25.04738462
24.98676923
25.04230769
25.07692308
25.12861538
25.05392308
25.06853846
25.038
25.03392308
25.02961538
24.97307692
24.95623077
24.98738462
24.97492308
24.99192308
24.92830769
24.98976923
24.97415385
24.99
25.03053846
24.99830769
25.00007692
25.00284615
24.96953846
25.01707692
25.03453846
25.04
24.98984615
24.98869231
25.01123077
24.98607692
25.026
24.99546154
24.94284615
25.009
25.012
25.04138462
25.10130769
25.081
25.11161538
25.12584615
25.09538462
25.07484615
25.00853846
24.96123077
24.94907692
25.02123077
25.09776923
24.99115385
24.94676923
25.02846154
24.99692308
25.05676923
25.02738462
24.96384615
25.12561538
25.07107692
25.03723077
25.02038462
25.02553846
25.01838462
24.99476923
25.09830769
25.06638462
25.00361538
25.02069231
25.03023077
25.006
25.065
25.07469231
25.01069231
25.03653846
25.02992308
25.11084615
25.15630769
24.975
24.96846154
25.00392308
24.94446154
24.99861538
25.06415385
25.09853846
25.05192308
25.01053846
25.03446154
25.04784615
25.029
25.09576923
25.09953846
25.05861538
24.95730769
24.92838462
24.96653846
24.96861538
24.97261538
24.93376923
24.93238462
24.90123077
24.91753846
24.90584615
24.86015385
24.87915385
24.85023077
24.871
24.92261538
24.98123077
25.034
24.99130769
25.00192308
25.00584615
25.00461538
24.97923077
25.044
24.99361538
25.01053846
25.00076923
25.01746154
25.04192308
25.10353846
25.07846154
25.02876923
25.03138462
24.92192308
24.88153846
24.86007692
24.83307692
24.84238462
24.84069231
24.918
24.83369231
24.91546154
24.96746154
24.97815385
25.01607692
25.00453846
24.89530769
24.93176923
24.92269231
24.91707692
24.977
24.998
24.96815385
24.96838462
24.95469231
24.96169231
25.01576923
24.95623077
24.87915385
24.98507692
25.01230769
24.97638462
24.95692308
24.971
24.93907692
24.92507692
24.96038462
24.997
24.96984615
24.96292308
24.95992308
24.98730769
24.94023077
24.94453846
25.02923077
25.12561538
25.12738462
25.076
25.03076923
25.02376923
24.94992308
24.92323077
24.94946154
24.93784615
24.94438462
25.00161538
24.94553846
25.01061538
25.07253846
25.03015385
25.05107692
25.02584615
25.01238462
24.95984615
24.95307692
24.90830769
24.902
24.96161538
24.96538462
24.96907692
24.97861538
24.999
24.98607692
25.03092308
24.96753846
24.90638462
24.90161538
24.88269231
24.82823077
24.90084615
24.99146154
24.95915385
24.96492308
25.04238462
25.10907692
25.14461538
25.11446154
25.04376923
24.99130769
24.94430769
24.907
24.92753846
24.96715385
24.95846154
24.93284615
24.92146154
24.92938462
24.99053846
25.00184615
24.98723077
24.94969231
24.95692308
25.07169231
25.05546154
25.01176923
25.03561538
25.06061538
25.04007692
25.01092308
24.92246154
24.94830769
24.935
24.92638462
24.86853846
24.889
24.87907692
25.07253846
25.03684615
25.00646154
25.01561538
25.02192308
25.01361538
25.005
24.99169231
25.06230769
25.06615385
25.08046154
25.09492308
25.09307692
25.11946154
25.04461538
25.05815385
25.05253846
25.06838462
25.07284615
25.07584615
24.90315385
24.87976923
24.94830769
24.94661538
24.94738462
24.91738462
24.89569231
24.87038462
24.88915385
24.95538462
24.98446154
24.96315385
24.95438462
25.00053846
25.051
25.04023077
25.02776923
24.98853846
24.97969231
24.91861538
24.98753846
25.05769231
24.988
24.93238462
24.96176923
25.03792308
25.09838462
25.10146154
25.10476923
25.05823077
25.06576923
25.02246154
25.026
25.00392308
24.99353846
25.02030769
25.02653846
24.99953846
24.985
25.01630769
25.01223077
25.041
25.04515385
25.10538462
25.11184615
24.98730769
24.96369231
24.99507692
24.98669231
25.03884615
25.06076923
25.00238462
25.00653846
25.08046154
25.07669231
25.03361538
25.04007692
25.03653846
25.03076923
25.03369231
25.02184615
24.99753846
25.00630769
24.97730769
25.05330769
25.11084615
25.09946154
25.16369231
25.142
25.05346154
25.09538462
25.13792308
25.09284615
25.07276923
25.03938462
25.01269231
25.01330769
24.98669231
24.93923077
24.95246154
25.112
25.02476923
25.01469231
24.91953846
24.94853846
24.95007692
24.97992308
25.04823077
25.06192308
25.08576923
25.04953846
25.07315385
25.11384615
25.13723077
25.15384615
25.20646154
25.17453846
25.19907692
25.19392308
25.09730769
25.05084615
24.99361538
25.06015385
25.03553846
25.05438462
25.11869231
25.20969231
25.11461538
25.01423077
25.03438462
25.00576923
24.98638462
24.93507692
25.02923077
25.094
25.08684615
25.12330769
25.04346154
25.06215385
25.06507692
25.01492308
25.06146154
25.05907692
25.13384615
25.05315385
25.015
24.99792308
25.00453846
25.03246154
24.99423077
25.00230769
25.02730769
25.00861538
24.99384615
24.95869231
24.97330769
24.99307692
24.99538462
25.01
24.98
24.95823077
24.93
24.93892308
24.91330769
24.98123077
24.96961538
25.01261538
25.08784615
25.10469231
25.12738462
25.16846154
25.21869231
25.21861538
25.17423077
25.16561538
25.14423077
25.10453846
25.03484615
24.97323077
24.93738462
24.90023077
24.91253846
24.96561538
24.96523077
24.98815385
24.94961538
24.97230769
24.99653846
25.02184615
24.97961538
24.94453846
24.91646154
24.88330769
25.00923077
25.005
25.02938462
25.04553846
25.07353846
25.02407692
24.94969231
25.06869231
24.99353846
25.013
24.93184615
24.94292308
24.91653846
24.90276923
24.98423077
24.93130769
24.92538462
24.91176923
24.86669231
24.90130769
24.86076923
24.89692308
24.94346154
24.92492308
24.92492308
24.96584615
25.09276923
25.03176923
25.04153846
25.06684615
24.99715385
24.96384615
24.91723077
24.85284615
24.81630769
24.89476923
24.86515385
24.91769231
24.88807692
24.87830769
24.90492308
24.86546154
24.82238462
24.87115385
24.91930769
24.891
24.92053846
24.90930769
24.94384615
24.91769231
24.91692308
24.92223077
24.90207692
24.96176923
24.93676923
24.90646154
24.92407692
24.90946154
24.96
25.02015385
25.03615385
25.08507692
25.06646154
24.99684615
24.93653846
24.99953846
24.97584615
24.98546154
24.88138462
24.92784615
24.94684615
24.89223077
24.85269231
24.82615385
24.88846154
24.85130769
24.91415385
24.89915385
24.91961538
24.97953846
25.04046154
25.04153846
24.97992308
24.99784615
25.00730769
24.97830769
25.00853846
24.934
24.93361538
24.87638462
24.83569231
24.90138462
24.96138462
25.05046154
25.04
24.97846154
24.94584615
24.96992308
24.98569231
24.94315385
24.91630769
24.93030769
24.92876923
24.88615385
24.89684615
24.94392308
24.939
25.01015385
25.01607692
24.99769231
25.01646154
24.99784615
25.00453846
24.93792308
24.97030769
24.93976923
24.90007692
24.93223077
24.94007692
24.93438462
24.96246154
24.95607692
24.998
24.941
24.96623077
24.996
25.00815385
25.06584615
25.04723077
25.08715385
25.10515385
25.11938462
25.06715385
25.04053846
24.99707692
24.99646154
25.03769231
24.99807692
25.05738462
25.039
24.99892308
25.03215385
25.00523077
24.96815385
25.08907692
25.10769231
25.14907692
25.04038462
25.09138462
25.04384615
25.01
24.98161538
24.88861538
24.86684615
24.92161538
24.892
24.94992308
24.919
24.89861538
24.92661538
24.94923077
24.96207692
25.00146154
25.08261538
25.12692308
25.13792308
25.12638462
24.86761538
24.839
24.86246154
24.88876923
24.94561538
25.02369231
25.06961538
25.03684615
25.07623077
25.06669231
25.02607692
25.07307692
25.11938462
25.07561538
25.05330769
24.97476923
24.92315385
24.95569231
24.88184615
24.85553846
24.95661538
24.92376923
24.94530769
25.00676923
24.98484615
24.95269231
25.00046154
25.04976923
24.99053846
24.99123077
24.99853846
25.04876923
25.02084615
25.01223077
24.99892308
25.00084615
24.93376923
25.001
24.94638462
24.96938462
25.03392308
24.98
25.04753846
25.00638462
24.96946154
24.92369231
24.96853846
25.03930769
25.01346154
25.09669231
25.05076923
24.89292308
24.93246154
24.92192308
25.00269231
24.93246154
24.92492308
24.95792308
25.01938462
25.03361538
25.04569231
25.09830769
25.07138462
25.13038462
25.04776923
25.027
24.93484615
24.90869231
24.95592308
24.91746154
24.91515385
25.02707692
25.00130769
24.95007692
24.94469231
24.98630769
25.01369231
25.00784615
24.97615385
25.03307692
24.97007692
25.07207692
25.04376923
25.03930769
25.03169231
24.99684615
24.88730769
24.93638462
24.96707692
24.99453846
25.00392308
25.00946154
25.01084615
25.05053846
24.99976923
24.92830769
24.90215385
24.96523077
24.98730769
25.03461538
24.93038462
24.82061538
24.78969231
24.75507692
24.85992308
24.91669231
24.91761538
25.02661538
25.02353846
25.034
25.04676923
24.99730769
25.02
25.06607692
25.05269231
25.11161538
25.09530769
25.02176923
25.00746154
24.98515385
25.08669231
25.16869231
25.07815385
25.02723077
25.00661538
24.98038462
25.01838462
25.01830769
24.98630769
24.94676923
24.90853846
24.867
24.88176923
24.96230769
24.95184615
25.06223077
25.02607692
25.05630769
25.04246154
25.03930769
25.06061538
24.98938462
24.997
25.00469231
24.92530769
24.87730769
24.86146154
24.88769231
24.93592308
25.02515385
25.00884615
25.03638462
25.01830769
25.00469231
24.99330769
24.94561538
24.96553846
25.04661538
25.08876923
25.09207692
24.88192308
24.87338462
24.82715385
24.87069231
24.88753846
24.96461538
24.97369231
24.93346154
24.86030769
24.84553846
24.92946154
24.94546154
24.95884615
25.07861538
25.08607692
25.03623077
24.95646154
24.88746154
24.84730769
24.84107692
24.84453846
24.88415385
24.87969231
24.87592308
24.946
24.91038462
24.88461538
24.89169231
24.90784615
24.91430769
24.93492308
24.903
24.919
24.85207692
24.87476923
24.85561538
24.83284615
24.82815385
24.87384615
24.90030769
24.99907692
24.95576923
24.939
24.93123077
25.01953846
25.00069231
24.99615385
24.96969231
24.96961538
24.94323077
24.92792308
24.91307692
24.88776923
24.87276923
24.84569231
24.90553846
24.97115385
24.93776923
25.00815385
24.92484615
24.99030769
24.99338462
24.92669231
24.93238462
24.85361538
24.87938462
24.93092308
24.87438462
24.85207692
24.85476923
24.88261538
24.91753846
24.96884615
24.98669231
25.04153846
25.00723077
25.02323077
24.99215385
24.98053846
24.94507692
24.95807692
24.98792308
24.99176923
25.06523077
25.03323077
25.00669231
24.92776923
24.94369231
24.99369231
24.95738462
24.88392308
24.91246154
24.90892308
24.85553846
24.90407692
24.94469231
24.97953846
25.024
24.958
24.95507692
25.03946154
25.00969231
24.96069231
25.04146154
25.032
25.01807692
24.98323077
24.98769231
25.013
25.00892308
25.05538462
25.04330769
25.00807692
24.98653846
24.96130769
25.02330769
25.05161538
25.00184615
25.04192308
25.06546154
24.97307692
25.01384615
25.05046154
24.91369231
24.94023077
24.95769231
24.93346154
25.00907692
25.00530769
24.95476923
24.90538462
24.92146154
25.014
25.02223077
25.08515385
25.09084615
25.04592308
25.01530769
24.98223077
24.92330769
24.99146154
24.95353846
24.95453846
24.89746154
24.88584615
24.88238462
24.86838462
24.87815385
24.91992308
24.83884615
24.99292308
24.97907692
24.91807692
24.98461538
24.96469231
24.99592308
25.02792308
24.99246154
24.94723077
24.97846154
25.04730769
25.06353846
25.03892308
25.07338462
25.07523077
25.05976923
25.08546154
25.14569231
25.11753846
25.11269231
25.00761538
24.95984615
24.868
24.90169231
24.937
24.99815385
24.99823077
24.98507692
25.01776923
25.08376923
24.85076923
24.85561538
24.86061538
24.89884615
24.93115385
24.92330769
24.88615385
24.84192308
24.82992308
24.92607692
24.94176923
24.90415385
24.89238462
24.92807692
24.95
24.91946154
24.86830769
24.75423077
24.84830769
24.85738462
24.86076923
24.90784615
24.88330769
24.90430769
24.96038462
25.04715385
25.01046154
25.06346154
25.03169231
24.98961538
24.93246154
25.00407692
25.00923077
24.96038462
24.85876923
24.85307692
24.89061538
24.97661538
24.92723077
24.878
25.04169231
24.92453846
24.95307692
24.91461538
24.90353846
24.91207692
24.88876923
24.85423077
24.77046154
24.80561538
24.81715385
24.79615385
24.81884615
24.878
24.92161538
24.99007692
25.00069231
25.04407692
25.01530769
24.97061538
24.98746154
25.04861538
25.01130769
24.98615385
24.96038462
24.89561538
24.85815385
24.85538462
24.90023077
24.89223077
24.84030769
24.85161538
24.88
24.94207692
24.98292308
25.01607692
24.99507692
24.95423077
24.991
24.97846154
24.99415385
25.04730769
25.03284615
25.077
25.05546154
25.05292308
25.00969231
25.02153846
25.01761538
25.03676923
25.06976923
25.06669231
24.98953846
24.98446154
24.95830769
24.88246154
24.92761538
24.95946154
24.98053846
25.00253846
25.04976923
24.97853846
25.06069231
25.13161538
25.17746154
25.18461538
25.14338462
25.12138462
25.135
25.07138462
25.05584615
25.12176923
25.16030769
25.05715385
25.02753846
24.99261538
25.04661538
25.12569231
25.10269231
25.06884615
24.96007692
24.97038462
24.99207692
24.943
24.94561538
24.96292308
24.96923077
24.962
25.022
25.00438462
25.05815385
25.06361538
25.01923077
24.99853846
25.03492308
25.03576923
24.93884615
24.98023077
24.94038462
25.01961538
24.93946154
24.93423077
24.93715385
24.905
24.87492308
24.89353846
24.83461538
24.86584615
24.93476923
24.98923077
25.00338462
25.04061538
24.98923077
25.00361538
24.95723077
24.97546154
24.95907692
24.92261538
24.94692308
24.92323077
24.94607692
24.95369231
24.94761538
25.03923077
25.00053846
24.895
24.98007692
24.97161538
24.96469231
24.92115385
24.87423077
24.91007692
24.97930769
24.94338462
24.95023077
24.90484615
24.98138462
24.99630769
24.982
24.95184615
25.009
24.97630769
25.01046154
24.95669231
25.01576923
25.03261538
24.97792308
24.97438462
25.02692308
24.999
24.94284615
24.88238462
24.88553846
24.84230769
24.95376923
24.97623077
25.00238462
24.98338462
25.01984615
25.01669231
24.89792308
24.91092308
24.94953846
24.89830769
24.97984615
24.97838462
25.01123077
25.04892308
25.04469231
25.08892308
25.13307692
25.086
25.05976923
25.04161538
25.06961538
25.04146154
25.00915385
24.93661538
24.91584615
24.94484615
24.95230769
24.93407692
24.95738462
24.99092308
25.00461538
24.98846154
25.03292308
25.03738462
25.07015385
25.05846154
25.07707692
24.98076923
24.96492308
24.96484615
24.93646154
24.88176923
24.89069231
24.836
24.85553846
24.89061538
24.98130769
24.96423077
24.99007692
24.96707692
24.95584615
24.93915385
24.99453846
25.02369231
24.94461538
24.96330769
24.91092308
24.95176923
24.91776923
24.98169231
24.97730769
24.93615385
25.01307692
24.97669231
24.94323077
24.95007692
24.91576923
24.95623077
24.97
24.98407692
24.96007692
25.01946154
24.96684615
24.89023077
24.91738462
24.85738462
24.88284615
24.90946154
24.88546154
24.886
24.82469231
24.89146154
24.92515385
24.92823077
24.97953846
24.96253846
24.97638462
24.99392308
24.96630769
24.98584615
25.02130769
24.89223077
24.90476923
24.89738462
24.88853846
24.89107692
24.95969231
24.92915385
24.971
24.97861538
24.92846154
24.86376923
24.78607692
24.80984615
24.82023077
24.90084615
24.92246154
24.93446154
24.91538462
24.887
24.87423077
24.88015385
24.86169231
24.82284615
24.85530769
24.85453846
24.86646154
24.87884615
24.94707692
24.94976923
24.97407692
24.95830769
25.02623077
24.99092308
24.97923077
24.93646154
24.93976923
24.92976923
24.92753846
24.96138462
24.955
24.935
24.913
24.89407692
24.91376923
24.90453846
24.88684615
24.92461538
24.93623077
24.89061538
24.91315385
24.93638462
24.97569231
24.99030769
24.99592308
24.98253846
24.92984615
24.93630769
24.89115385
24.90207692
24.90230769
24.91930769
24.91869231
24.91215385
24.89946154
24.88530769
24.90238462
24.91538462
24.93907692
24.97230769
24.91730769
24.89630769
24.89153846
24.86269231
24.82923077
24.93623077
24.887
24.861
24.96215385
24.97169231
24.97484615
24.95769231
24.94323077
24.95776923
24.97038462
24.96976923
24.93530769
24.87630769
24.937
24.86607692
24.92569231
24.898
24.956
24.93030769
24.88676923
24.90153846
24.86361538
24.82761538
24.84361538
24.83807692
24.92030769
24.99784615
25.04115385
24.98292308
24.96530769
25.01492308
25.00015385
25.04084615
25.07823077
25.06846154
25.03353846
24.97976923
24.95492308
24.93830769
24.94684615
24.87546154
25.05323077
25.12484615
25.06946154
25.06907692
25.05776923
25.01969231
25.06107692
25.09438462
25.11592308
25.06546154
24.986
24.97430769
24.93238462
24.93476923
24.91838462
24.92861538
24.87069231
24.88723077
24.92353846
24.94261538
25.02669231
25.03023077
24.96669231
24.93969231
24.98453846
24.95876923
25.048
25.01715385
24.95130769
24.96961538
24.913
24.86661538
24.87538462
25.00676923
24.93138462
24.98846154
24.98530769
25.048
24.99315385
25.00553846
24.89215385
24.907
24.85284615
24.90046154
24.90046154
24.92576923
24.90815385
24.96561538
24.98346154
24.95607692
24.93307692
24.91946154
24.93546154
24.90561538
25.01092308
24.98569231
24.95930769
24.91015385
24.9
24.87646154
24.94553846
24.88884615
24.88430769
24.86707692
24.94092308
24.89984615
24.99776923
24.97415385
24.96746154
24.87338462
24.88523077
24.92253846
24.96469231
24.95307692
24.93553846
24.90638462
24.90130769
24.91792308
24.94192308
24.92792308
24.95092308
24.91353846
24.93530769
24.91984615
24.87107692
24.90730769
24.90969231
24.94192308
24.92861538
24.92076923
24.93315385
24.91253846
24.88830769
24.88576923
24.86138462
24.87030769
24.88323077
24.85369231
24.91784615
24.96192308
24.86715385
24.88507692
24.92161538
25.006
24.95215385
24.94384615
24.95384615
24.92738462
24.90746154
24.91153846
24.93461538
24.932
24.93623077
24.93207692
24.92592308
24.95084615
24.93984615
24.91538462
24.89069231
24.882
25.00592308
24.96246154
24.94238462
24.93476923
24.92115385
24.92853846
24.92053846
24.99315385
25.00538462
24.94561538
24.96561538
25.015
24.95984615
24.942
24.89476923
24.88061538
24.96284615
24.93276923
24.93538462
25.00830769
25.03307692
25.03284615
24.97676923
24.95930769
24.98176923
25.01730769
25.035
25.03315385
24.97915385
24.89376923
24.88876923
24.86615385
24.86669231
24.87253846
24.90330769
24.91623077
24.95884615
24.99346154
25.06361538
25.00607692
24.99146154
24.99792308
24.95246154
25.03084615
25.01161538
25.00515385
24.96869231
24.88046154
24.80123077
24.79815385
24.86576923
24.93323077
24.94807692
24.96915385
24.97723077
24.94138462
24.97
25.05676923
24.99892308
25.01246154
24.91007692
24.91284615
24.95484615
24.98407692
25.019
25.03884615
25.00376923
24.94384615
24.94815385
24.97407692
24.95423077
24.88
24.89707692
24.90707692
24.94053846
24.84576923
24.85069231
24.85446154
24.91530769
24.88753846
24.94076923
24.95838462
24.98084615
24.99830769
24.96823077
24.98623077
25.03253846
25.02815385
24.99169231
24.98284615
25.01792308
25.00384615
25.00930769
24.91353846
24.91846154
25.04053846
25.05430769
25.04384615
24.99084615
24.91869231
24.893
24.82330769
24.83646154
24.82392308
24.85746154
24.84776923
24.84
24.92553846
24.95276923
24.96930769
24.89815385
24.94038462
24.90230769
24.94538462
24.93653846
24.88061538
24.93769231
25.02107692
24.96892308
24.95823077
25.00976923
25.02684615
24.98953846
24.92584615
25.014
25.01538462
25.04523077
25.04507692
25.03646154
25.005
25.07292308
24.99976923
25.05630769
25.12553846
25.10292308
25.16238462
25.11692308
25.00476923
25.00176923
24.97476923
25.04730769
25.04776923
25.10123077
25.03646154
25.00046154
24.97723077
24.92730769
24.91723077
24.94930769
25.021
24.98669231
25.02184615
24.93707692
24.93730769
24.97453846
24.95592308
25.06353846
25.06307692
25.02723077
25.00923077
24.94730769
25.03392308
24.95092308
24.93169231
24.91038462
24.90184615
24.97976923
25.08392308
25.07230769
25.04530769
25.02546154
25.06338462
25.09
25.06961538
25.02953846
24.96430769
24.92546154
24.87592308
24.97123077
24.942
25.01653846
24.987
24.95507692
24.97438462
24.98961538
25.02438462
25.00346154
24.95876923
24.88807692
24.83730769
24.86669231
24.87915385
24.85976923
24.90207692
24.92615385
24.91869231
24.89123077
24.93892308
24.90223077
24.94569231
24.96884615
25.03930769
25.09669231
25.08738462
24.99592308
24.971
24.90723077
24.90369231
24.95830769
25.00369231
25.02092308
25.04269231
24.96169231
24.90338462
24.98238462
24.95946154
25.02592308
24.96069231
24.94207692
24.96769231
24.90969231
24.91353846
24.96938462
24.97723077
24.95161538
24.95007692
24.90776923
24.95684615
24.92876923
24.87369231
24.92169231
24.93546154
24.90823077
24.87376923
24.88869231
24.89007692
24.92353846
24.89284615
24.82869231
24.83776923
24.86669231
24.88053846
24.82215385
24.84746154
24.89061538
24.867
24.85415385
24.85161538
24.88776923
24.92569231
24.94069231
24.93246154
25.01046154
24.94823077
24.92915385
24.88546154
24.93538462
24.89207692
24.90715385
24.89984615
24.82076923
24.84446154
24.87684615
24.77453846
24.82130769
24.84569231
24.91892308
24.91007692
24.97469231
25.01569231
25.01846154
25.03469231
24.994
24.93746154
24.94461538
24.97938462
24.91892308
24.91976923
24.86215385
24.83746154
25.02946154
25.08815385
25.08607692
25.064
25.045
25.014
24.95
24.95546154
24.95861538
24.99023077
25.00953846
24.99676923
25.01415385
25.00715385
25.04138462
25.05807692
25.05769231
25.04830769
25.05530769
25.02230769
25.02407692
24.97307692
25.01515385
25.02776923
24.978
24.98038462
25.01169231
25.01023077
24.98838462
24.97984615
25.01984615
24.98530769
24.98838462
25.01276923
25.082
25.02476923
24.98423077
25.01092308
24.93492308
24.98515385
24.91492308
24.99692308
24.95046154
24.92530769
24.90515385
24.94492308
24.95830769
25.01076923
25.09784615
25.03969231
25.07538462
25.05653846
25.05553846
24.98153846
24.95261538
24.99769231
24.98392308
24.96838462
25.03523077
24.94669231
24.85884615
24.90207692
24.95269231
24.92269231
24.89146154
24.88146154
24.902
24.898
24.84315385
24.92169231
24.93330769
24.94007692
24.97169231
24.90330769
24.94730769
24.95553846
24.91523077
24.83923077
24.83646154
24.82676923
24.87015385
24.85153846
24.84838462
24.87438462
24.87938462
24.765
24.77192308
24.80607692
24.84276923
24.866
24.87230769
24.89307692
24.97107692
24.98284615
24.92715385
24.925
24.93138462
24.93815385
24.93538462
24.87461538
24.93915385
24.96938462
24.99876923
24.97746154
24.92346154
24.91546154
24.97784615
24.95507692
25.01746154
25.05576923
25.10430769
24.97023077
24.92269231
24.84630769
24.85715385
24.86584615
24.883
24.91761538
24.91453846
24.90792308
24.96984615
25.00630769
24.97492308
24.97046154
24.96669231
25.01976923
25.00023077
24.97523077
25.062
25.00123077
24.988
24.96438462
24.93453846
24.96407692
24.91638462
24.92284615
24.94723077
24.91123077
24.95207692
24.95423077
25.02784615
25.09430769
25.03007692
25.00907692
24.97538462
24.91030769
24.97446154
24.97146154
24.95215385
24.97407692
24.98861538
24.93946154
24.93923077
24.99538462
24.95069231
25.008
24.95746154
24.91507692
24.94184615
25.02646154
24.99307692
24.91915385
24.906
24.91584615
24.93469231
24.98976923
24.93153846
24.90769231
24.98038462
24.99823077
24.97823077
25.09376923
25.12584615
25.10123077
25.13161538
25.08361538
24.99930769
25.049
25.07576923
25.05038462
24.98784615
25.05
25.10576923
25.07930769
25.08292308
25.05161538
25.07853846
25.08546154
25.06361538
25.01084615
25.04907692
25.00807692
25.02623077
24.96953846
24.99138462
25.01684615
25.00930769
24.91653846
24.95861538
24.95007692
24.91153846
24.85484615
24.89907692
24.92023077
24.98361538
25.05661538