/*--------------------------------*- C++ -*----------------------------------*\
| =========                 |                                                 |
| \\      /  F ield         | OpenFOAM: The Open Source CFD Toolbox           |
|  \\    /   O peration     | Version:  v1706                                 |
|   \\  /    A nd           | Web:      www.OpenFOAM.com                      |
|    \\/     M anipulation  |                                                 |
\*---------------------------------------------------------------------------*/
FoamFile
{
    version     2.0;
    format      ascii;
    class       volScalarField;
    location    "0.02";
    object      mctTimeStepRatio_mixture;
}
// * * * * * * * * * * * * * * * * * * * * * * * * * * * * * * * * * * * * * //

dimensions      [0 0 0 0 0 0 0];


internalField   nonuniform List<scalar> 
5120
(
28.32643182
28.35235514
28.33194913
28.31187011
28.29789977
28.2615292
28.31875045
28.36034457
28.43923662
28.4860766
28.49454292
28.48833003
28.48179041
28.47347999
28.43131936
28.44833672
28.50997509
28.42597165
28.41169417
28.37294624
28.51502319
28.52687165
28.44424381
28.42512045
28.48721971
28.56082715
28.4954544
28.51356365
28.44531187
28.52869542
28.39823377
28.40934097
28.49552544
28.46986077
28.50128208
28.45031496
28.51110933
28.42718286
28.50327142
28.47303932
28.52379964
28.49068795
28.54000944
28.48552639
28.39256745
28.41344541
28.46681718
28.41707066
28.42243829
28.4301809
28.46541231
28.40678622
28.37756012
28.3962927
28.32842836
28.39238864
28.38215342
28.46909943
28.45608412
28.49024994
28.50835653
28.51371029
28.45501458
28.40797627
28.44506671
28.4596118
28.45614148
28.48012976
28.46959515
28.50915053
28.43718876
28.47738765
28.52857469
28.61242722
28.62686582
28.62191223
28.59920597
28.48201122
28.49207165
28.53921275
28.52708392
28.53060291
28.47791085
28.53450538
28.52565704
28.56882013
28.57232642
28.5894754
28.59822638
28.60942943
28.57602813
28.44576491
28.51161501
28.47176457
28.45928278
28.53788062
28.55236103
28.54965202
28.56100956
28.51702068
28.59787531
28.5399761
28.51772825
28.63832555
28.50037899
28.5062268
28.59953271
28.61711754
28.64186918
28.56082129
28.55142968
28.49776638
28.52133784
28.4445935
28.53494841
28.51523756
28.53009198
28.54219161
28.58496735
28.57609059
28.66577934
28.71125151
28.67133761
28.54270994
28.57019193
28.55749243
28.56403246
28.54621482
28.56345598
28.59732832
28.6678483
28.53286705
28.52707596
28.50976374
28.53868448
28.52483709
28.55352223
28.56779634
28.5845273
28.69431445
28.59979967
28.582116
28.64444477
28.66806371
28.68257285
28.67066331
28.65916457
28.65896476
28.67446489
28.6366087
28.65479891
28.73468742
28.68171024
28.54099442
28.50513441
28.48520557
28.48772985
28.48118468
28.53295879
28.52236034
28.47583633
28.54850712
28.51829142
28.58747986
28.58340214
28.49781193
28.53095972
28.60391246
28.5471
28.58704678
28.52104803
28.49686889
28.50536944
28.51153951
28.50512464
28.51672215
28.39924081
28.4420186
28.47216711
28.41050593
28.55758681
28.52119431
28.52488896
28.59351681
28.55728401
28.61198886
28.49364247
28.45911049
28.48515329
28.62798246
28.72264426
28.66325975
28.58419713
28.53170669
28.50550499
28.58966209
28.66793317
28.66290952
28.56921992
28.53271665
28.42445707
28.34124193
28.3900425
28.35799022
28.45195282
28.50937731
28.57862453
28.58629387
28.62832106
28.59447375
28.48221337
28.41137895
28.46833407
28.46920136
28.54905572
28.5474214
28.45066902
28.48894864
28.51827204
28.53432587
28.58260225
28.64274229
28.55854662
28.5440209
28.49444291
28.43959854
28.39726412
28.49881541
28.52878451
28.5493687
28.53171084
28.51004323
28.54675341
28.51320664
28.46152847
28.50601362
28.51178811
28.5301812
28.58571162
28.6014659
28.47313395
28.46676776
28.4411036
28.49899023
28.54045285
28.5516486
28.55202533
28.62036306
28.58975061
28.56774928
28.559779
28.50034733
28.51641406
28.47723627
28.45254728
28.50843917
28.46891158
28.5063896
28.41801875
28.41501888
28.36077513
28.41368523
28.43583828
28.40262547
28.44340011
28.51165367
28.54202286
28.4857749
28.49355288
28.45264826
28.36928856
28.37686484
28.28814305
28.30915796
28.33714391
28.37748066
28.46088973
28.44894098
28.45606175
28.56435674
28.55953412
28.59009639
28.64874182
28.6354839
28.58869742
28.60966583
28.62953273
28.59981074
28.44663001
28.43839294
28.34316011
28.43569074
28.40972021
28.45699097
28.50545219
28.68296683
28.59784196
28.47117964
28.41025844
28.42200036
28.45632687
28.41629594
28.46863825
28.49053139
28.54477467
28.52305897
28.4434535
28.38736206
28.36944566
28.41163035
28.593767
28.54741527
28.54307813
28.53366721
28.56648936
28.48902122
28.45797611
28.45140705
28.48963026
28.50026923
28.47202264
28.42420384
28.49818622
28.49204644
28.41380714
28.36673539
28.46677246
28.50691874
28.46752377
28.35601181
28.31715312
28.43766949
28.53833877
28.56414623
28.46205203
28.46571046
28.53123467
28.49256203
28.53523109
28.5673592
28.39819885
28.41426504
28.37595016
28.38401555
28.42319243
28.37292562
28.47811913
28.42812372
28.50079865
28.4902493
28.52448486
28.46082727
28.36646862
28.38813394
28.47916105
28.45985472
28.44383999
28.48763833
28.48729786
28.47773375
28.4751849
28.39889401
28.4486983
28.44319029
28.46695996
28.50659015
28.47567443
28.4899111
28.46730869
28.50803821
28.51614916
28.51048779
28.45461076
28.49815506
28.46243639
28.41464249
28.36367554
28.3886407
28.42545814
28.41055021
28.59743624
28.56828519
28.54516143
28.58324133
28.5958053
28.45484489
28.43120782
28.43212581
28.49638099
28.47375151
28.5596882
28.66376617
28.60087705
28.57066976
28.58290829
28.55419378
28.50760722
28.63738899
28.63238084
28.63051862
28.40774591
28.42207002
28.47360426
28.49819382
28.48716337
28.37812546
28.33455736
28.25303682
28.36001817
28.40956714
28.47864688
28.44446018
28.46233897
28.52190813
28.63770859
28.60015153
28.65480034
28.65732436
28.57180614
28.46316793
28.47542054
28.47273431
28.502064
28.4832106
28.50199875
28.49250148
28.43207815
28.40118382
28.41830463
28.46014995
28.38821097
28.52199951
28.5174469
28.44483742
28.48426556
28.53598411
28.49305315
28.54667399
28.49889623
28.47941753
28.48613665
28.52562456
28.41510354
28.43383861
28.43414641
28.42000353
28.40515887
28.40875027
28.37881352
28.41217107
28.39042621
28.44834787
28.49954306
28.50427796
28.50470504
28.47796998
28.50695362
28.51509829
28.47713683
28.48094621
28.36684509
28.37069824
28.3642657
28.36104134
28.39035981
28.4081967
28.43175644
28.5218314
28.56243367
28.51136153
28.45489669
28.50752402
28.44299676
28.45855035
28.45254114
28.42215878
28.47537687
28.49590227
28.51984571
28.39259825
28.48602863
28.46537679
28.4905018
28.48939439
28.56210673
28.58121443
28.53723191
28.5159165
28.61882045
28.55836799
28.59068822
28.56511243
28.5019896
28.49177101
28.39792004
28.36754326
28.36046895
28.36070798
28.35542162
28.41401581
28.69371785
28.66579668
28.65100041
28.64605499
28.56494285
28.54240947
28.56411484
28.53596108
28.50581385
28.55220098
28.48743322
28.49838875
28.54195207
28.63578895
28.71085482
28.67769419
28.62451693
28.58685399
28.56487966
28.61792995
28.50493763
28.53311148
28.4870415
28.4225355
28.45245185
28.45835146
28.52740392
28.42908347
28.44473506
28.48766263
28.63212187
28.75161042
28.66720141
28.61144073
28.54209203
28.54557943
28.56626197
28.54552929
28.51874392
28.48989479
28.46462187
28.52636126
28.43283807
28.43821598
28.48384096
28.4563959
28.40266496
28.3905768
28.47823353
28.49593846
28.49444875
28.4049983
28.50804943
28.56704501
28.57423891
28.53210175
28.49710556
28.48008974
28.44564203
28.4883873
28.42752986
28.41362143
28.36348125
28.38217355
28.40295335
28.43872728
28.51727341
28.4458014
28.36359924
28.3006491
28.39542846
28.41701459
28.45612268
28.4649031
28.46115877
28.52572759
28.53146481
28.49044413
28.51571159
28.49579357
28.59217468
28.52067962
28.53048177
28.49981544
28.47036337
28.49900868
28.49647551
28.50187202
28.54434965
28.46045319
28.43983458
28.41992293
28.48878803
28.48411565
28.46670641
28.50480194
28.4534573
28.46739338
28.52914105
28.46111328
28.48385571
28.44596969
28.38670503
28.3989732
28.36635714
28.34215257
28.36999082
28.37833094
28.47082345
28.53081912
28.53865052
28.46424298
28.38133978
28.51429417
28.55977674
28.4518984
28.47568119
28.41130238
28.45367124
28.51868789
28.3603867
28.43782892
28.47308354
28.48089422
28.47797395
28.4919195
28.507692
28.38639372
28.43189607
28.50858935
28.47060442
28.4499611
28.49279045
28.42742171
28.41109517
28.48726898
28.47076751
28.47840332
28.39761571
28.3307234
28.54194741
28.54312635
28.49338717
28.56293404
28.51540585
28.42422874
28.37600625
28.44156551
28.48139627
28.4623428
28.44188347
28.45941731
28.35748695
28.35327109
28.39314265
28.51553084
28.53433863
28.50360628
28.52064211
28.51786132
28.56161681
28.56618737
28.58809827
28.5708194
28.59577037
28.62817548
28.59314481
28.64197894
28.6170819
28.56563607
28.47790574
28.42546749
28.47784361
28.47331973
28.46326916
28.50364963
28.53398396
28.47184424
28.49906076
28.46838103
28.48698939
28.47272681
28.45134801
28.37853074
28.40059986
28.46065948
28.447493
28.58328932
28.64276654
28.66640349
28.70273412
28.68211114
28.66888863
28.59588132
28.7011719
28.58397866
28.50772751
28.48468399
28.46065628
28.49203169
28.60070758
28.52682401
28.53266624
28.53813339
28.48935122
28.48187858
28.53392013
28.53575724
28.53065136
28.53134454
28.46076437
28.53435346
28.65680236
28.5170431
28.47635558
28.50972654
28.53403874
28.53935648
28.56202956
28.57386588
28.54103418
28.50007586
28.53297133
28.51946415
28.53160931
28.49693647
28.56889237
28.55609339
28.44643037
28.3430731
28.32815828
28.39588584
28.45916196
28.46745798
28.56017735
28.60464841
28.56819379
28.56817606
28.55452065
28.49444458
28.56862491
28.47765394
28.38962695
28.45832612
28.41893319
28.45353424
28.46526913
28.52396265
28.50493352
28.55822419
28.58922517
28.52906691
28.51622669
28.51437659
28.50245513
28.48215113
28.49327952
28.44236685
28.53813146
28.62435379
28.58844547
28.62125129
28.68513273
28.5904293
28.48926609
28.546289
28.54219446
28.44048071
28.35271684
28.32232092
28.34983845
28.44807681
28.4914297
28.54969333
28.60213586
28.57669746
28.51264505
28.52144258
28.55253291
28.56700863
28.56476644
28.47947356
28.48839134
28.52611269
28.57294172
28.55044481
28.39612853
28.42314678
28.47997789
28.43756852
28.41961662
28.44727732
28.51162956
28.61330703
28.57589265
28.57596434
28.58031506
28.66498259
28.62830383
28.63851037
28.41009106
28.4391116
28.4826916
28.46807221
28.46316268
28.4846336
28.511441
28.54269484
28.42058148
28.44386063
28.43427135
28.42041474
28.41930254
28.38567375
28.48516608
28.45820735
28.45394527
28.41831313
28.40984231
28.41192975
28.63638247
28.6539758
28.56230757
28.55839415
28.55721221
28.59072356
28.62038563
28.65145507
28.62937589
28.53359016
28.51459746
28.53410572
28.56168396
28.52023345
28.44505696
28.46041328
28.49673398
28.52406551
28.52664122
28.58725275
28.48985104
28.40691605
28.51152301
28.58439605
28.55366554
28.44170191
28.36824745
28.36291219
28.35670676
28.42245555
28.42278264
28.46856524
28.47860289
28.49566107
28.50416515
28.46998396
28.45561415
28.50412735
28.52498845
28.4861312
28.4950843
28.46068427
28.44999328
28.36492578
28.36457231
28.49608558
28.53308973
28.49496581
28.49910854
28.42636034
28.394806
28.48584522
28.48951827
28.39183256
28.402804
28.46224326
28.46191605
28.4552857
28.45250207
28.46101485
28.4692728
28.49683323
28.50521977
28.54622397
28.41576921
28.353146
28.37813671
28.30170544
28.348657
28.45071917
28.4111138
28.34890446
28.40522884
28.42537221
28.45827418
28.49275001
28.49938753
28.51686628
28.57159291
28.54523135
28.3811004
28.44696533
28.45639541
28.58324629
28.54982025
28.55053347
28.52570519
28.4544085
28.42320614
28.40229237
28.45717465
28.41934284
28.35395545
28.34207253
28.32833464
28.25883365
28.29622669
28.28714244
28.30073544
28.41388925
28.43099494
28.48681964
28.39928599
28.4330231
28.40946207
28.34330307
28.24046271
28.35657921
28.48209428
28.45376652
28.47645822
28.48727169
28.56316528
28.44427108
28.35722588
28.37534457
28.33555782
28.42155362
28.38379355
28.39542794
28.47798017
28.42011235
28.42075365
28.32157553
28.42476527
28.46836124
28.50570665
28.47825809
28.43193073
28.47336093
28.49259735
28.46913272
28.47181141
28.48212007
28.53645864
28.50155135
28.47915384
28.49621451
28.49066115
28.52353408
28.5306465
28.55334591
28.57922174
28.6063016
28.50418058
28.53843829
28.48655511
28.40695557
28.37563174
28.35763334
28.29451309
28.23840716
28.23530776
28.29311339
28.294341
28.29999756
28.34747878
28.43040031
28.50776315
28.54302405
28.6056527
28.60878475
28.53996322
28.53905784
28.50757179
28.54727565
28.51702763
28.47945092
28.46137264
28.53477646
28.56063391
28.59263383
28.62811902
28.45301517
28.46433081
28.4402575
28.41179753
28.37700472
28.44274188
28.54014089
28.40316267
28.49852784
28.47027541
28.57357133
28.56468029
28.59203344
28.60991884
28.52848881
28.59536122
28.59851729
28.61550874
28.64962381
28.61773602
28.65603503
28.60101225
28.5433552
28.5739179
28.56582394
28.496548
28.35014287
28.4159564
28.42083988
28.40659479
28.48965051
28.53581819
28.58355518
28.67252696
28.69435357
28.58809211
28.63636411
28.57716767
28.60743848
28.60938864
28.5787928
28.65360086
28.70961647
28.65492373
28.57304826
28.60875361
28.55854947
28.59321833
28.56033718
28.5872105
28.58067678
28.56704918
28.58622673
28.52263315
28.5833724
28.62343675
28.59562559
28.62390984
28.54212618
28.45398757
28.44593591
28.38489519
28.40121458
28.48255708
28.55839971
28.46463689
28.50988899
28.51066405
28.62820298
28.56318556
28.53011347
28.60601908
28.66721484
28.69906154
28.62723651
28.68274708
28.61504678
28.61066448
28.60309096
28.51494039
28.43423972
28.44890701
28.50588712
28.48289519
28.47494587
28.51239074
28.47370982
28.55028624
28.55577449
28.63411657
28.6787843
28.59580991
28.52549788
28.40929381
28.42837523
28.5164855
28.56118691
28.54588432
28.52638161
28.56790908
28.58473137
28.56001328
28.58079584
28.62696031
28.60910494
28.54277705
28.5383754
28.51562776
28.51936877
28.5236467
28.4997253
28.502632
28.49294832
28.56718877
28.51858989
28.55959861
28.60587403
28.55514878
28.55050119
28.58177504
28.54656233
28.56382832
28.51615446
28.59801012
28.56756486
28.515389
28.50499022
28.42032662
28.43866339
28.39027323
28.35485366
28.3387989
28.39985055
28.44915204
28.50721174
28.51583694
28.45644048
28.49882353
28.42073818
28.44202853
28.5091287
28.46472455
28.48784233
28.54486326
28.40550045
28.37498857
28.31001964
28.45192752
28.38709241
28.45117755
28.49541115
28.52548548
28.65268376
28.66670009
28.59148792
28.62956136
28.54966258
28.57749594
28.61273648
28.57309185
28.55558774
28.53709435
28.47021304
28.37048098
28.3307119
28.32877499
28.35968138
28.61780646
28.65413158
28.65101278
28.62437078
28.55211338
28.44943494
28.40481163
28.43882467
28.40057476
28.42052556
28.48503019
28.42977338
28.36030199
28.39399783
28.43407173
28.5250196
28.57388899
28.5165098
28.61814069
28.64670823
28.52271172
28.56552352
28.5406682
28.47195264
28.49541178
28.54173948
28.46820641
28.42386113
28.50068896
28.50464032
28.49031323
28.40861079
28.44789638
28.4835611
28.49773838
28.50491402
28.56819414
28.49365562
28.5348924
28.50635919
28.41940666
28.48237414
28.41383506
28.4609058
28.52876085
28.59734915
28.53546648
28.43266133
28.4413736
28.33698034
28.41163956
28.6107631
28.57361442
28.58148387
28.49681863
28.58384543
28.59022706
28.53060733
28.45183904
28.42979043
28.42364078
28.36383621
28.40153619
28.31267786
28.42149973
28.43593606
28.54030396
28.57304998
28.51159449
28.58081683
28.58022165
28.44109611
28.4751358
28.54883393
28.55502176
28.47518255
28.45250592
28.46345371
28.50276248
28.42470166
28.50299656
28.38162037
28.42496976
28.45032841
28.44122175
28.46403118
28.59027688
28.54727969
28.53099105
28.48281936
28.46639068
28.46662588
28.46811599
28.41239393
28.47236687
28.54319432
28.58331234
28.5143564
28.48002423
28.42220423
28.55438247
28.69073819
28.72847875
28.7617205
28.6324692
28.56257241
28.58496429
28.46451883
28.47675541
28.45041497
28.42268187
28.48172781
28.46456639
28.42430156
28.42741578
28.37192875
28.39061513
28.45902364
28.46914952
28.50387969
28.37932334
28.28280417
28.37847643
28.45311571
28.48002814
28.4973604
28.42689166
28.41254919
28.43678586
28.5049086
28.55699202
28.61480247
28.60951247
28.52264353
28.53161234
28.40462667
28.46563432
28.42849828
28.44140266
28.42910815
28.3985921
28.47394847
28.46909397
28.46425423
28.56902317
28.63607419
28.64630885
28.60765485
28.54488875
28.43379977
28.45801039
28.43533703
28.44963751
28.46299099
28.4729945
28.52691517
28.51543107
28.41333217
28.38371212
28.36921745
28.62278575
28.62805649
28.68656187
28.61305398
28.60072159
28.51822771
28.51476413
28.57420495
28.62599976
28.64437649
28.55868458
28.55214036
28.53111724
28.39889376
28.38008955
28.43621047
28.54152307
28.62595259
28.66792054
28.67307368
28.65031127
28.59200855
28.59394298
28.61348464
28.53255992
28.5742413
28.60086325
28.60971376
28.61198816
28.60039891
28.54574322
28.56022586
28.54470878
28.63938621
28.63084975
28.65059516
28.66427355
28.66071246
28.62553688
28.59073148
28.48088572
28.54195803
28.56801673
28.57345579
28.45747598
28.48453012
28.49225283
28.52071248
28.51695011
28.55004368
28.56114181
28.60691025
28.64915043
28.64760744
28.67673463
28.58322177
28.50207152
28.55384093
28.47596442
28.55345848
28.4932988
28.48441126
28.57701866
28.57397994
28.66317714
28.63912554
28.58359483
28.63966929
28.6563301
28.64679104
28.63274399
28.5745241
28.51364781
28.51956688
28.45859562
28.49773735
28.48319277
28.49383022
28.51206254
28.56049221
28.54184798
28.50656851
28.48909068
28.43230681
28.48508488
28.49619269
28.57376534
28.55887281
28.4932983
28.55253713
28.63717176
28.58710534
28.6031537
28.66778424
28.61143231
28.56517035
28.5038856
28.44908557
28.53942939
28.5339236
28.46595723
28.47492819
28.54785516
28.43748593
28.44047146
28.45494966
28.50957504
28.50825279
28.48341769
28.4790817
28.43649739
28.46155412
28.48981808
28.50963537
28.54354164
28.47442047
28.43450237
28.5119743
28.47377884
28.43503195
28.51725361
28.46292586
28.41737189
28.59717329
28.55777894
28.53691511
28.55351968
28.48519489
28.49419474
28.56755861
28.60219653
28.57804648
28.47576763
28.45171854
28.38880143
28.4069518
28.45009148
28.47624402
28.51431847
28.58750675
28.4671255
28.51810811
28.52718557
28.60570865
28.6236833
28.60841076
28.64768238
28.64097383
28.55945776
28.66143012
28.49680711
28.51735689
28.58270133
28.48896226
28.52056162
28.47186986
28.44879192
28.48120295
28.52453185
28.49071908
28.43447882
28.41481418
28.44529999
28.40167532
28.40921575
28.4497788
28.42185481
28.33587135
28.34720907
28.3506267
28.48245481
28.53588905
28.65327777
28.61984808
28.53926281
28.44980711
28.46643077
28.5042161
28.46874036
28.39556892
28.661921
28.65232518
28.63635556
28.5764515
28.53775025
28.56692444
28.58481798
28.66478691
28.67544016
28.56487544
28.53754556
28.57469414
28.58552384
28.52636827
28.48980375
28.54005081
28.62738186
28.75000119
28.6606533
28.64816335
28.62997713
28.5644918
28.57885081
28.58379183
28.53389478
28.40982169
28.45654938
28.39774686
28.45345412
28.50625588
28.56316419
28.48489368
28.46129484
28.5173969
28.64573926
28.66155345
28.58912995
28.50480475
28.57394067
28.61360403
28.40039194
28.5502814
28.50794856
28.5583574
28.56731743
28.53883165
28.59028458
28.63961929
28.73305941
28.68733207
28.68555759
28.71404332
28.68401405
28.61387527
28.55068447
28.48164368
28.47812206
28.41121445
28.44537223
28.50512603
28.5013863
28.43249287
28.47812388
28.49503129
28.53147186
28.61152561
28.65413925
28.66023042
28.59415254
28.6034444
28.65871398
28.64247378
28.62049509
28.54118773
28.4926374
28.46093835
28.4664264
28.51939134
28.48913856
28.50749882
28.49173676
28.42378695
28.43211493
28.3862972
28.4264619
28.43073318
28.48007519
28.44664512
28.45246093
28.43121039
28.40127288
28.39966687
28.46854036
28.48616168
28.51901061
28.62030739
28.59365298
28.54335721
28.51100766
28.47136017
28.4329046
28.50234765
28.41762236
28.32963736
28.26938115
28.27217902
28.3215298
28.34926169
28.3285789
28.40634058
28.42160674
28.32767794
28.2849475
28.42924744
28.46514295
28.50670641
28.41638329
28.34281962
28.36864286
28.41437892
28.54838241
28.53225655
28.48243236
28.55310356
28.55245459
28.52742864
28.53011664
28.53690067
28.46158934
28.47930754
28.42433531
28.40317054
28.45944178
28.50419253
28.46621754
28.44251853
28.55813403
28.49564735
28.55238677
28.47319063
28.56580148
28.56935774
28.58502975
28.59794943
28.62390262
28.60029118
28.67840335
28.66133775
28.57790309
28.48558974
28.4704942
28.43325551
28.50053818
28.4707791
28.52782746
28.52010791
28.53516629
28.58587891
28.55611234
28.57415024
28.5461844
28.53318538
28.51735548
28.41454934
28.47222136
28.61572482
28.53010634
28.52127617
28.53660645
28.58246297
28.64440377
28.6025845
28.51278292
28.54996675
28.53882778
28.59548561
28.5039493
28.49043291
28.50569273
28.53421526
28.49790451
28.52347551
28.48518963
28.56006765
28.47885753
28.41848027
28.47756832
28.51449185
28.45265778
28.48101718
28.56990908
28.64860273
28.64064261
28.69366425
28.56241236
28.52731027
28.50944008
28.52443141
28.49139529
28.49545866
28.64063746
28.60763433
28.53940665
28.58685646
28.49380488
28.51201065
28.47099666
28.41653407
28.43453873
28.3695963
28.32629684
28.36820344
28.41305603
28.43301914
28.39961132
28.42716153
28.46344313
28.55234477
28.57029212
28.56548607
28.52387873
28.5780661
28.53190024
28.4868924
28.47512662
28.50635572
28.45360641
28.44067432
28.39256308
28.39076298
28.36891301
28.50162571
28.53161544
28.51413068
28.53402589
28.61238329
28.6199074
28.69407705
28.6747348
28.60872558
28.48727222
28.51199724
28.48315435
28.50059007
28.50380559
28.54228045
28.46221498
28.44909279
28.54794279
28.52650911
28.58745414
28.53064121
28.57854906
28.5112544
28.51930043
28.57454594
28.4723881
28.5069123
28.54139916
28.51635526
28.57828782
28.51893674
28.49486842
28.4888532
28.53117781
28.45544746
28.52544753
28.60539519
28.5745053
28.65126066
28.61641221
28.57931269
28.58404717
28.60188395
28.6766617
28.59138192
28.55895363
28.5511936
28.50748
28.52101421
28.49916322
28.48281878
28.50261108
28.47956582
28.43797086
28.60908338
28.57523622
28.59342673
28.61143496
28.61502965
28.51195336
28.5549218
28.51086567
28.49450366
28.54937048
28.63579553
28.71667676
28.6763675
28.68700324
28.5918383
28.57760499
28.58206417
28.58738816
28.62706123
28.63283751
28.61743654
28.64394679
28.71020218
28.67359696
28.66461432
28.64655677
28.62191388
28.53951391
28.53596202
28.53511956
28.54928162
28.46268217
28.49810639
28.49385169
28.53787343
28.56865632
28.58419354
28.57160014
28.52704097
28.5274997
28.5447066
28.5829674
28.59414983
28.57375508
28.5802308
28.59172908
28.55627949
28.5117323
28.57157775
28.54480039
28.54208657
28.49929155
28.46997288
28.48354725
28.51874399
28.57256767
28.57715958
28.62121918
28.59036773
28.58703845
28.55566306
28.57450134
28.57599503
28.57392427
28.5909324
28.57491718
28.56112943
28.54655863
28.50133613
28.55854396
28.57308885
28.59216825
28.63564488
28.66829699
28.55718674
28.60824254
28.62957898
28.51313994
28.49383468
28.48433878
28.51400106
28.52981395
28.50137558
28.49518349
28.50330269
28.53491684
28.60365625
28.53754826
28.62630909
28.56894499
28.59879275
28.53303882
28.56985927
28.63128109
28.60322995
28.62530157
28.67745246
28.65777053
28.65930276
28.57272304
28.46807106
28.42301899
28.51013179
28.53530098
28.46060303
28.46423567
28.43590367
28.39731904
28.3945279
28.44515301
28.50132171
28.54388443
28.57041558
28.5390625
28.61603621
28.41123574
28.33222573
28.40144986
28.40402259
28.40985059
28.44770405
28.39907898
28.37432029
28.34465696
28.40816784
28.49341541
28.52272979
28.57849598
28.56104509
28.5935512
28.56091609
28.63057355
28.60087785
28.56912911
28.547098
28.48797885
28.45760286
28.53025896
28.55396467
28.51224617
28.5298114
28.41759776
28.45012989
28.53651368
28.5281026
28.58828275
28.65698654
28.64982547
28.47519257
28.55933961
28.48620363
28.48995103
28.42642638
28.49774929
28.5069551
28.60224076
28.58371367
28.66637803
28.59503835
28.58596784
28.5593286
28.57305615
28.49660635
28.47926015
28.50687169
28.53776269
28.54739249
28.54473325
28.56587246
28.4417127
28.48479205
28.53317608
28.59153779
28.60366786
28.62670447
28.5577328
28.64126424
28.65952254
28.68630373
28.56186144
28.61793967
28.48312006
28.51200172
28.51419746
28.62484299
28.60146359
28.53533894
28.48011591
28.51547882
28.55042965
28.60251784
28.60139912
28.58155371
28.54701225
28.57674274
28.53039497
28.55870128
28.5385761
28.57066115
28.64749304
28.59477765
28.59610922
28.56471599
28.58168539
28.58490497
28.56822066
28.59371366
28.61647824
28.59528271
28.62113217
28.6102946
28.60228145
28.63763642
28.56299277
28.50814902
28.63324797
28.63747165
28.57757051
28.47461097
28.54652102
28.550902
28.52153455
28.54005242
28.55409662
28.57311298
28.55126876
28.54556372
28.55298054
28.55043792
28.54726812
28.53055177
28.55395942
28.55664434
28.61616853
28.61831168
28.46230848
28.52764477
28.56075388
28.59276633
28.60671827
28.58616181
28.56113857
28.47349478
28.45187536
28.52164046
28.50444091
28.44772716
28.50451273
28.53440154
28.59298812
28.60152615
28.49680281
28.55083273
28.55747742
28.47216304
28.44835845
28.43716897
28.52576847
28.53838855
28.51374708
28.46211069
28.44725577
28.41981585
28.48759992
28.5975964
28.60770764
28.64012721
28.6159376
28.59670986
28.56839945
28.57383939
28.53436849
28.510216
28.42527048
28.48165236
28.47844168
28.47192166
28.52088026
28.44137884
28.44669632
28.44208947
28.49910927
28.61560247
28.70975646
28.7153209
28.61182516
28.51862322
28.51046375
28.50017875
28.49851949
28.5470228
28.52470204
28.39614136
28.46410816
28.45078035
28.57895132
28.59054546
28.53295034
28.51492307
28.47629076
28.45454374
28.47194086
28.5595737
28.54820794
28.49114827
28.51651606
28.60940908
28.59831417
28.57553281
28.51201603
28.64178068
28.64043455
28.65461898
28.5825867
28.60966344
28.55407004
28.52790516
28.53212609
28.50798369
28.53732258
28.49885682
28.44168595
28.46635997
28.51991278
28.53580857
28.48672353
28.49225217
28.48300084
28.60633824
28.59562033
28.42585395
28.4077785
28.42994449
28.47101119
28.57506683
28.59216397
28.68557937
28.67595413
28.67602288
28.64767199
28.68463189
28.70696558
28.57832457
28.53798017
28.53443026
28.61795939
28.5417323
28.59477556
28.54573535
28.55127831
28.62536476
28.55101277
28.45241827
28.5216649
28.51270411
28.47842016
28.46138997
28.51556242
28.5860673
28.48771541
28.46640879
28.4337461
28.44754556
28.45974042
28.47867919
28.40280754
28.50365395
28.44099582
28.33203549
28.3362576
28.2734387
28.32934068
28.47283768
28.46918224
28.52212252
28.43786143
28.43302047
28.36543529
28.4570704
28.50512132
28.5194014
28.57197543
28.57309805
28.54256194
28.46103945
28.47387225
28.43662743
28.54226621
28.57126438
28.52394397
28.52623788
28.38024089
28.40260005
28.46860619
28.48151213
28.54637849
28.42668563
28.52996765
28.56266303
28.5926222
28.59541831
28.49693291
28.37019274
28.38654809
28.42166682
28.47488616
28.42367914
28.37957233
28.39999004
28.42190636
28.5074782
28.56669097
28.63976765
28.50876657
28.53918272
28.46126865
28.51368168
28.55208507
28.52362154
28.49501087
28.45415328
28.4769396
28.51499144
28.59309398
28.65944278
28.63513224
28.624303
28.64901877
28.5949688
28.56247365
28.56840902
28.58857743
28.54967124
28.60311229
28.54726574
28.52138856
28.45092351
28.37039907
28.37653663
28.5006585
28.53316522
28.60124191
28.5911898
28.54001348
28.49470204
28.47133136
28.41969909
28.51758623
28.5974963
28.51707021
28.56029112
28.49108117
28.55889298
28.5698788
28.5150351
28.58106889
28.59136378
28.52864741
28.54782732
28.55175343
28.53072814
28.58305599
28.51677294
28.56599354
28.64467452
28.56416015
28.54806965
28.57912512
28.62928392
28.63328036
28.6082335
28.55639765
28.60618188
28.69411708
28.671885
28.64650275
28.6461252
28.70031195
28.64588065
28.60333383
28.62843913
28.64408674
28.64689778
28.59774215
28.52648348
28.52645368
28.5618034
28.47230124
28.55414243
28.5729079
28.64312457
28.56703337
28.6059614
28.56362508
28.58768976
28.67598481
28.65337665
28.61393322
28.74509066
28.69101473
28.65233993
28.58422232
28.59556008
28.50302817
28.45533
28.46468221
28.46256861
28.52799142
28.56366952
28.54924375
28.50497575
28.60465184
28.59483485
28.66472856
28.67383148
28.46563207
28.40478563
28.39281735
28.41016633
28.43938421
28.47507138
28.53689896
28.55314935
28.54194204
28.49854775
28.47859828
28.49692109
28.45284892
28.46021111
28.43717388
28.40888683
28.39724354
28.42550357
28.41699873
28.46744602
28.42466124
28.48803971
28.44787723
28.45506451
28.50752387
28.52078341
28.47925268
28.48310244
28.50070404
28.51019495
28.46901686
28.49374322
28.51080041
28.47603253
28.39263866
28.43218008
28.496356
28.46794814
28.55111281
28.47582595
28.59926034
28.47497323
28.52606472
28.5555886
28.57457284
28.52403288
28.53110143
28.46435706
28.35001338
28.41320328
28.38778324
28.40374607
28.41628243
28.51835902
28.53581878
28.48959399
28.50825182
28.51652402
28.43584701
28.56067573
28.64676383
28.58391667
28.51807728
28.57004173
28.62770873
28.61499433
28.58809258
28.59977208
28.68201586
28.56364882
28.56089296
28.55306261
28.50160118
28.58079103
28.53860724
28.53157162
28.55984077
28.64882776
28.65470948
28.65962455
28.63512767
28.64801969
28.62985658
28.57331125
28.5864106
28.74777115
28.7467218
28.691317
28.64682507
28.62846393
28.62132169
28.58793685
28.48562535
28.47939196
28.54634076
28.54573133
28.54554227
28.54187875
28.55446508
28.63617544
28.54299741
28.48547653
28.46697388
28.50386123
28.5818116
28.60782471
28.52962851
28.5400037
28.47344947
28.41795982
28.36612335
28.51338436
28.56891215
28.65488433
28.62712138
28.62366174
28.60012298
28.56227327
28.57896415
28.5888792
28.50735002
28.45719626
28.48845708
28.50819752
28.53023463
28.47783264
28.51507284
28.5400927
28.4198779
28.48637859
28.50035754
28.5528254
28.60084009
28.54720493
28.59281179
28.59886305
28.54447292
28.59047495
28.53461831
28.52235406
28.47660722
28.38862976
28.46904325
28.4940794
28.53562317
28.61717686
28.51156001
28.50104793
28.52702478