/*--------------------------------*- C++ -*----------------------------------*\
| =========                 |                                                 |
| \\      /  F ield         | OpenFOAM: The Open Source CFD Toolbox           |
|  \\    /   O peration     | Version:  v1706                                 |
|   \\  /    A nd           | Web:      www.OpenFOAM.com                      |
|    \\/     M anipulation  |                                                 |
\*---------------------------------------------------------------------------*/
FoamFile
{
    version     2.0;
    format      ascii;
    class       volScalarField;
    location    "0.02";
    object      mfpCellRatio_mixture;
}
// * * * * * * * * * * * * * * * * * * * * * * * * * * * * * * * * * * * * * //

dimensions      [0 0 0 0 0 0 0];


internalField   nonuniform List<scalar> 
5120
(
2.663199569
2.666781073
2.666969237
2.661831075
2.658394984
2.656541346
2.664333229
2.669896466
2.675233991
2.680175439
2.684786338
2.684303569
2.678768465
2.677263681
2.674832615
2.674935054
2.680359413
2.670474461
2.66827322
2.666889351
2.678969429
2.6781469
2.671360591
2.670047891
2.67812015
2.68401971
2.678722294
2.681215315
2.674930187
2.679383302
2.668820457
2.671310639
2.677570465
2.675665115
2.678015355
2.669815662
2.675618298
2.672419386
2.678542205
2.674238271
2.682187722
2.684078448
2.684766832
2.683982011
2.672191191
2.672270749
2.678264856
2.676440096
2.673707654
2.673621607
2.67576117
2.672514563
2.669857755
2.66805799
2.662126725
2.669945955
2.669887416
2.677487363
2.675950193
2.678858369
2.681973119
2.676818434
2.674562286
2.673807558
2.671234194
2.670550033
2.671425024
2.675578192
2.676588585
2.682425302
2.674633401
2.675524966
2.675695682
2.686123812
2.687702459
2.689048931
2.688768043
2.678119676
2.677408242
2.681024537
2.681820077
2.684922079
2.678398513
2.68250124
2.684402957
2.687659321
2.689349703
2.687749011
2.689828276
2.690105092
2.688583041
2.677236626
2.680482404
2.677664356
2.677552322
2.681389725
2.682530908
2.682204443
2.68124047
2.681465148
2.683050873
2.680943586
2.682495784
2.690135889
2.680562431
2.683212644
2.69307529
2.693993715
2.692571885
2.685078803
2.68312212
2.679590495
2.681252229
2.673108432
2.682118742
2.680519353
2.681255051
2.68086327
2.688104365
2.682882958
2.69310704
2.692403383
2.687676152
2.677473761
2.68333118
2.682649647
2.682264208
2.683387527
2.685238568
2.688614732
2.693129034
2.682336077
2.681414696
2.681566631
2.683349644
2.683068644
2.684983738
2.684751569
2.685615896
2.696413281
2.688317663
2.690875216
2.697588339
2.698284397
2.694450824
2.694863642
2.694311958
2.693827865
2.694673641
2.692096936
2.693869849
2.7009511
2.697558119
2.685981304
2.6840363
2.682492135
2.681497949
2.680584629
2.686717917
2.681488583
2.683584798
2.687289604
2.684031191
2.685872879
2.686422449
2.681943296
2.683125178
2.687414574
2.680995691
2.682906924
2.680360386
2.677918568
2.677482783
2.67934397
2.678705944
2.679930955
2.672424373
2.674681428
2.678899725
2.677726663
2.680537564
2.674348726
2.67692905
2.688160237
2.684658604
2.685488181
2.682490651
2.678769438
2.678521395
2.692224782
2.695354359
2.690955165
2.686900676
2.68377234
2.679930648
2.688183237
2.688094698
2.690301079
2.682406863
2.680157471
2.669693321
2.668266739
2.669597118
2.670653815
2.678162825
2.680950261
2.688268215
2.684533329
2.684499581
2.682686071
2.676694261
2.668512855
2.671440989
2.673469654
2.67932933
2.677974191
2.671846087
2.673953323
2.674031545
2.673997888
2.689027896
2.695437455
2.686010625
2.686371504
2.681146764
2.677329111
2.671978124
2.676174754
2.676487727
2.68120416
2.67893743
2.681661807
2.682730447
2.676447924
2.675922475
2.681068637
2.681864421
2.683925556
2.688708976
2.689241234
2.671763727
2.673985994
2.674522917
2.679428411
2.683682308
2.685194238
2.685886121
2.690364701
2.687014518
2.686944056
2.686255322
2.679568728
2.6815843
2.679595005
2.673451858
2.677262479
2.674111191
2.675197214
2.66855078
2.667890553
2.671494824
2.678464393
2.677356791
2.674786591
2.675835063
2.680376837
2.678693069
2.673549311
2.675796798
2.671830297
2.665321309
2.666570105
2.660091943
2.664783869
2.664873715
2.669081647
2.673622768
2.674545816
2.676002496
2.683257949
2.682056704
2.688016334
2.692773782
2.690122856
2.688734103
2.691523888
2.691492309
2.691210793
2.678734028
2.677688154
2.667872352
2.676180153
2.673489508
2.678460991
2.682498709
2.697057418
2.690802533
2.682006363
2.675411705
2.67376216
2.675263702
2.671468911
2.677123554
2.677731505
2.683622159
2.677544782
2.672873897
2.668050821
2.668633003
2.672016509
2.682745654
2.680379568
2.683244404
2.684294625
2.682696712
2.673612303
2.671335844
2.670114486
2.672892495
2.674861338
2.682989451
2.677891165
2.679329898
2.676423267
2.668883493
2.667358985
2.671774713
2.676004889
2.674893266
2.666932844
2.663283163
2.674300432
2.683267031
2.68230542
2.676654234
2.679038652
2.680540278
2.681023547
2.685455539
2.68783344
2.668276255
2.667743087
2.66774695
2.674252786
2.679071716
2.671316184
2.68051477
2.674450312
2.681263758
2.680603654
2.680818729
2.676216264
2.670318902
2.671584437
2.676097662
2.674489432
2.676866691
2.679822562
2.675477749
2.673561594
2.673374429
2.671278116
2.677375183
2.676395677
2.679309481
2.683483547
2.677005687
2.675145523
2.675541641
2.675032024
2.67793492
2.67932302
2.675610696
2.680017444
2.677682513
2.675760568
2.669123058
2.668301923
2.674301204
2.671902525
2.688514986
2.687603027
2.685986892
2.684590581
2.690218401
2.677823373
2.680010692
2.678225942
2.683643355
2.682699491
2.685842509
2.689177795
2.684888215
2.682260451
2.687006781
2.686216154
2.681201435
2.690006563
2.688279346
2.688658681
2.672494759
2.672842229
2.674142687
2.676082443
2.676136928
2.667064533
2.668337461
2.665219738
2.670291685
2.672295275
2.677715422
2.677031899
2.680918898
2.681435166
2.69009485
2.687662491
2.692117056
2.691549528
2.68382897
2.676451008
2.679181414
2.678900799
2.679995504
2.677841397
2.675702568
2.673255094
2.670033464
2.66349226
2.665037996
2.671445837
2.668990054
2.679094898
2.677708141
2.672509628
2.676595276
2.677703528
2.671642215
2.677378658
2.673280199
2.67629372
2.671653968
2.673365593
2.666524769
2.671684731
2.67010794
2.667335729
2.668814706
2.671523819
2.667531403
2.668717693
2.669580905
2.676252014
2.678038843
2.680400015
2.677436132
2.677570761
2.682382617
2.681910785
2.676536067
2.676098019
2.662126292
2.664923469
2.660336463
2.661630138
2.665720258
2.667751849
2.667791747
2.675848441
2.680993337
2.677895559
2.675299898
2.679359441
2.675387318
2.678347356
2.677893897
2.673199231
2.678291273
2.675918473
2.67711285
2.667441093
2.675223628
2.67202858
2.675070489
2.673887734
2.682814043
2.681789624
2.680264001
2.6774882
2.684120971
2.67966237
2.683424689
2.677879555
2.675027315
2.67675431
2.66870095
2.66794347
2.668187331
2.667018635
2.667863671
2.67400913
2.696765015
2.696016969
2.695334902
2.692248948
2.68410196
2.682545705
2.679382386
2.680356813
2.681030526
2.683485681
2.678626861
2.680910442
2.682786177
2.689989273
2.699559536
2.699237309
2.693207627
2.694250995
2.689427606
2.691171388
2.680432523
2.680861906
2.676341032
2.671071942
2.673172092
2.674155181
2.680485936
2.676667678
2.680600178
2.681905192
2.692025801
2.699406229
2.696111154
2.691995351
2.686342489
2.686595494
2.684397912
2.680227001
2.680596414
2.677630383
2.671878611
2.674615432
2.670928591
2.673086676
2.677391042
2.672280715
2.668475837
2.667295577
2.671941925
2.670218975
2.67454794
2.672079401
2.679755972
2.684130115
2.683068395
2.681231057
2.678627359
2.678426887
2.67477737
2.675313637
2.674341311
2.672814568
2.66604513
2.668666526
2.669930277
2.673042402
2.678846407
2.673390528
2.673085824
2.668281168
2.67505988
2.670542335
2.672979887
2.672967968
2.673969496
2.680052346
2.682963652
2.679865738
2.680488362
2.678769877
2.684404874
2.677776131
2.680207565
2.679241127
2.673294034
2.677682491
2.677483151
2.676800969
2.679778579
2.677291311
2.675920202
2.676587196
2.680557689
2.681006776
2.677399334
2.679254025
2.675816485
2.681104226
2.687002358
2.67948097
2.675507068
2.673113021
2.665981687
2.668853753
2.665492949
2.664796061
2.669031805
2.672484799
2.678155794
2.682488122
2.684219102
2.675520726
2.666862715
2.67703932
2.682225383
2.67492527
2.679645864
2.673087811
2.675342711
2.682626395
2.663680156
2.668190789
2.671867246
2.674671731
2.673653286
2.674105533
2.67752639
2.666877919
2.669674519
2.675873412
2.675586016
2.675419544
2.676747407
2.670523717
2.669909214
2.676129786
2.672221529
2.672817679
2.663246536
2.660003595
2.679223733
2.680710617
2.677488339
2.683100024
2.676114751
2.670651631
2.668326267
2.672294489
2.677049322
2.673025594
2.672048132
2.674538664
2.669533187
2.669551878
2.674060593
2.684425463
2.688393264
2.683591869
2.682195599
2.681483803
2.68604142
2.685933793
2.690189005
2.688393404
2.688601805
2.695415722
2.694347122
2.696013071
2.694135278
2.687781306
2.68333045
2.676838681
2.681179065
2.679199285
2.679029663
2.675853085
2.678822208
2.67113966
2.679068214
2.678331568
2.678084289
2.675700243
2.672746405
2.666814758
2.669796705
2.674724057
2.675178399
2.686412295
2.689317498
2.691540809
2.694449598
2.694355644
2.696534407
2.686551984
2.695295339
2.687946788
2.683808932
2.683437157
2.677425441
2.676791168
2.690434371
2.688649979
2.690201877
2.690823058
2.682374418
2.679162779
2.680375707
2.679954441
2.683638168
2.682655118
2.677652283
2.683371532
2.6884294
2.67862029
2.676490048
2.681154927
2.683354461
2.680030582
2.685016975
2.687006299
2.681605043
2.677759137
2.680463288
2.682969581
2.682850697
2.679816147
2.683233453
2.683334853
2.675701965
2.665061015
2.666093552
2.670601022
2.674335531
2.675257825
2.682643814
2.684968104
2.682326213
2.684282772
2.683761307
2.676958581
2.682078966
2.676834071
2.672188769
2.675223524
2.674424642
2.676413192
2.678523705
2.684168301
2.687225583
2.691532448
2.689908459
2.682554629
2.683107637
2.682267983
2.681423717
2.678908188
2.680921645
2.675942707
2.680900379
2.685486322
2.690092532
2.691272016
2.696650284
2.689578826
2.679477371
2.681675844
2.681225867
2.673790218
2.668051809
2.663313872
2.666877929
2.67212548
2.679457093
2.684559078
2.688003495
2.685420387
2.682900752
2.68338883
2.686304766
2.687949608
2.686603515
2.680898558
2.678126782
2.67779874
2.681725054
2.68215572
2.67160793
2.673164314
2.677025469
2.676095884
2.672410868
2.674088638
2.674906741
2.684105253
2.68137942
2.684604059
2.686148514
2.691156784
2.689971454
2.690918447
2.671037862
2.675876894
2.678414749
2.678092877
2.676945268
2.676504805
2.676024889
2.676077431
2.672813124
2.669406234
2.667185141
2.66528761
2.666107922
2.663839445
2.670743018
2.670016468
2.67114299
2.671156725
2.670556511
2.669996592
2.686623033
2.690095656
2.683494
2.684129466
2.684119124
2.687017864
2.688759788
2.691393386
2.689110266
2.683809953
2.679453861
2.681998643
2.680958922
2.675331339
2.671929667
2.673318588
2.672914604
2.678103605
2.680153432
2.687573527
2.680623393
2.672797037
2.678237274
2.683656958
2.680523513
2.67468134
2.668926565
2.669075705
2.669046375
2.673015334
2.671030218
2.675966954
2.674017635
2.677239663
2.678372302
2.675656591
2.675713794
2.677273119
2.678311237
2.675134781
2.675319759
2.672189533
2.672096387
2.667028936
2.665828174
2.679523147
2.681240708
2.678143358
2.67950919
2.675361872
2.67377291
2.677388046
2.676593539
2.669665553
2.669835428
2.673922527
2.672992864
2.674436399
2.675757175
2.674059092
2.675572173
2.677614174
2.675568107
2.677768016
2.673676567
2.667047184
2.667505232
2.661179756
2.66167777
2.67050439
2.665458205
2.661778365
2.66581953
2.668856508
2.672671258
2.675357111
2.674386015
2.677942414
2.683015839
2.68278769
2.665337202
2.677597137
2.678978473
2.687439936
2.683822305
2.683337261
2.679301656
2.671442643
2.671530246
2.668083815
2.670310736
2.669059209
2.666611798
2.662558127
2.660446612
2.655684428
2.65865524
2.655004544
2.655336078
2.665291542
2.672596187
2.679825457
2.673366963
2.675942806
2.674257502
2.66676652
2.656836992
2.665997024
2.675790783
2.673437428
2.678101149
2.681143552
2.685184744
2.676080285
2.670166257
2.670535738
2.6661083
2.675012417
2.674320644
2.672831981
2.676164358
2.670949629
2.672134396
2.665273845
2.672679023
2.676910268
2.677160349
2.677866631
2.675938102
2.680239979
2.677151525
2.673654883
2.677334884
2.679760347
2.682606815
2.682341212
2.680382595
2.678141702
2.675809076
2.679121905
2.683208268
2.687000493
2.683211826
2.686782867
2.681540706
2.681067646
2.676548121
2.667769962
2.666737711
2.66387035
2.660594843
2.655119314
2.655091127
2.658813081
2.660906413
2.664781009
2.669173592
2.675920403
2.681531317
2.686474987
2.688257534
2.685737912
2.681180875
2.681601144
2.67928478
2.683684054
2.681040254
2.679597193
2.676227895
2.678458054
2.683148685
2.686401481
2.690206573
2.679715355
2.679564821
2.676472397
2.675467477
2.67199939
2.676438541
2.683282087
2.671655361
2.678514025
2.676805538
2.684312128
2.68312148
2.686185499
2.688049507
2.67878458
2.683601141
2.684369108
2.685442645
2.692004828
2.687693823
2.692927622
2.690125498
2.685362504
2.686692536
2.687303203
2.684668963
2.670935237
2.678209599
2.675529682
2.671528618
2.678633245
2.681439633
2.686760555
2.692476454
2.698467785
2.691265416
2.692786963
2.686996483
2.690584224
2.692965405
2.690450416
2.692113663
2.696433495
2.690351542
2.68773981
2.690622876
2.688962057
2.687561325
2.683152677
2.686333551
2.687080735
2.687419572
2.690490484
2.68338567
2.68372736
2.686294158
2.685378558
2.686177602
2.682559519
2.677546816
2.674797893
2.669833998
2.671934123
2.679178206
2.684577072
2.679947435
2.680947232
2.679811094
2.691249414
2.687118273
2.686003157
2.690410792
2.693274223
2.696162224
2.689319705
2.69217131
2.685642993
2.689178556
2.685111819
2.680068117
2.674514248
2.67297393
2.680857437
2.679064563
2.677968158
2.681287383
2.678576175
2.686175461
2.686007146
2.691446328
2.696161664
2.689900385
2.683440559
2.675166617
2.675800423
2.680642624
2.683045522
2.678991921
2.677524831
2.6828553
2.686795676
2.685425223
2.683944602
2.689490718
2.689141118
2.684957857
2.686283286
2.674566083
2.673173649
2.675890379
2.673889362
2.677714049
2.677721494
2.684685972
2.68186299
2.684896618
2.689382776
2.686907061
2.685482013
2.683644579
2.681082107
2.680919168
2.676456065
2.681194615
2.678513173
2.67702855
2.675622853
2.670838052
2.673244651
2.669314173
2.668763117
2.667053195
2.672496875
2.673872467
2.678002307
2.677308795
2.673976529
2.678680555
2.673228378
2.675033003
2.677167003
2.673826104
2.677503431
2.679864514
2.667120421
2.666240712
2.663199237
2.673116688
2.66770205
2.671603753
2.675354539
2.678877941
2.687336593
2.690210093
2.684977583
2.68794314
2.683293321
2.687999636
2.689432959
2.687315684
2.683605565
2.68192477
2.679230423
2.671129473
2.665858686
2.663867351
2.663804592
2.694846739
2.697794246
2.693647441
2.690406288
2.684807944
2.677389543
2.671989332
2.676000946
2.67084944
2.67082703
2.673140606
2.668349843
2.664976462
2.67081239
2.671926419
2.680261059
2.68697155
2.685130192
2.691798905
2.694608685
2.68459482
2.687980335
2.686067699
2.679204922
2.681971085
2.684851085
2.681366109
2.675029297
2.680241716
2.679394806
2.678540856
2.675342371
2.677785917
2.6768025
2.678408335
2.677274445
2.685231469
2.677466836
2.685075026
2.682673119
2.677305467
2.68287855
2.675438554
2.679480966
2.681739562
2.685325703
2.681089897
2.675576677
2.680176025
2.672026782
2.67521085
2.690490628
2.684997831
2.686264422
2.67699008
2.683881807
2.685174962
2.683573139
2.677498547
2.676673728
2.67432226
2.669188685
2.670920178
2.666263578
2.673900144
2.676895805
2.687256891
2.690449684
2.685785754
2.687997244
2.688726395
2.678227595
2.680116944
2.683594793
2.684172539
2.682456072
2.678822345
2.679141446
2.682054834
2.677141305
2.682697241
2.672308561
2.674801672
2.673812579
2.67621394
2.68114301
2.692384398
2.685596872
2.681230319
2.679603074
2.678710398
2.677367781
2.676821984
2.674054907
2.6793697
2.687955466
2.690018002
2.682728965
2.680826696
2.675981201
2.686101143
2.697558797
2.700183313
2.704293622
2.693785009
2.688412233
2.686527347
2.674681959
2.674408363
2.674945618
2.675037003
2.679538723
2.676535964
2.670507239
2.672763619
2.665436254
2.667064275
2.676020519
2.67823602
2.679416453
2.670046888
2.661313091
2.671636233
2.675087312
2.677144928
2.681216532
2.679565001
2.680692777
2.685536495
2.687934709
2.691690194
2.695769255
2.692893663
2.683358845
2.684709759
2.673037561
2.674824915
2.672316031
2.674302877
2.675992918
2.673575522
2.681310341
2.680201218
2.679298937
2.686888868
2.691199275
2.693742031
2.691155368
2.687144012
2.678611157
2.679798079
2.675602468
2.677736821
2.679136416
2.680888359
2.686370176
2.683721179
2.675952142
2.66961218
2.669989049
2.6909248
2.692165235
2.697150282
2.694444874
2.691742524
2.683045485
2.681370252
2.684650621
2.695258278
2.6968897
2.68705371
2.684223109
2.683558437
2.670333974
2.670129362
2.675174027
2.682565806
2.689651196
2.694294517
2.694865716
2.696851814
2.693875961
2.694382034
2.69344085
2.685770549
2.689196877
2.691933819
2.689621532
2.686553131
2.68618407
2.686922472
2.692451361
2.689330517
2.695176793
2.691415576
2.693860512
2.697827001
2.698745147
2.692586701
2.690350032
2.679974315
2.683559955
2.684978654
2.685878507
2.677639127
2.678938313
2.679228826
2.682441409
2.682419631
2.684742461
2.686476175
2.685315096
2.687436013
2.691358908
2.695140522
2.690739991
2.683753029
2.685905849
2.677969648
2.688340227
2.680513782
2.680791346
2.686087608
2.684909283
2.69403102
2.690567054
2.684796711
2.691309421
2.694603198
2.694741743
2.689978563
2.687738801
2.682752072
2.678914328
2.67286019
2.676781876
2.675238168
2.680879212
2.6811881
2.683855484
2.683087691
2.680128325
2.679927793
2.669873244
2.67213544
2.676239195
2.68597086
2.683558549
2.678527257
2.681361155
2.689115994
2.688006953
2.687391313
2.692715508
2.688045065
2.683917897
2.681296952
2.676989072
2.682934844
2.684355031
2.671959049
2.677196793
2.680762448
2.674177325
2.675912638
2.677627291
2.67982532
2.679110094
2.676613294
2.677366004
2.671906753
2.672403314
2.677225496
2.679952739
2.682316589
2.675444489
2.673115153
2.67623531
2.67138437
2.669661958
2.681626878
2.677858664
2.674960869
2.687017794
2.68466397
2.683338631
2.686940294
2.677808685
2.677296729
2.68167774
2.688933537
2.687205665
2.6764709
2.677444377
2.670183844
2.667110203
2.672456005
2.676762293
2.679807385
2.685708901
2.682217253
2.6857247
2.684643462
2.689791659
2.690265008
2.692177205
2.691251964
2.690255669
2.688344085
2.696227695
2.678446354
2.679591958
2.686924326
2.681729576
2.683263091
2.680741074
2.676263423
2.680810214
2.686028744
2.682593939
2.672792087
2.671344423
2.673733295
2.670464078
2.66999339
2.669787598
2.666537868
2.66176089
2.666755017
2.668128527
2.678797383
2.684255563
2.69255419
2.688586766
2.688129982
2.682935764
2.680454295
2.679749166
2.676313889
2.669391673
2.694624746
2.694571418
2.695039996
2.692475619
2.688169601
2.68722586
2.693093041
2.695250832
2.696904011
2.686686077
2.686271655
2.691089921
2.692237228
2.689938238
2.68832035
2.690503296
2.693708959
2.707407537
2.695445527
2.694385961
2.695150437
2.690858142
2.694744037
2.690137221
2.683044171
2.675538306
2.678977563
2.673164711
2.675226377
2.679286353
2.685752966
2.67765586
2.679102073
2.684021197
2.693440217
2.693490767
2.691671054
2.681313685
2.686012768
2.693414854
2.676626775
2.687683207
2.685460846
2.689343534
2.691484401
2.692556127
2.692867556
2.695408871
2.704970898
2.701751278
2.698713615
2.700681024
2.698329621
2.692259575
2.689221764
2.681424138
2.679619652
2.67623198
2.6788498
2.682434228
2.680403221
2.673654246
2.676675459
2.680782022
2.682535374
2.689012178
2.692955296
2.692921077
2.689612091
2.690436499
2.696833513
2.69629796
2.692504948
2.686607036
2.682476321
2.677727671
2.68162716
2.685685265
2.680369958
2.681290231
2.679066834
2.674163196
2.676094962
2.671066365
2.672166916
2.671871284
2.67650475
2.677030955
2.677103829
2.675128893
2.67105021
2.671631286
2.681882176
2.681020188
2.683615101
2.690676485
2.68398122
2.681843995
2.680597594
2.679562654
2.672399514
2.681028483
2.67158497
2.664540144
2.660597633
2.659240064
2.663265831
2.665454167
2.664181184
2.670252452
2.671951383
2.666866782
2.66274829
2.671112115
2.674303003
2.677612858
2.674129791
2.664530909
2.667445855
2.670012449
2.681844027
2.681381612
2.680618815
2.684459546
2.683548761
2.682347928
2.680808819
2.681923234
2.676369282
2.678277366
2.671751954
2.672519786
2.676467836
2.677549629
2.673491531
2.674930067
2.684764567
2.681289595
2.684720581
2.675464842
2.68390612
2.684915032
2.683215413
2.688563411
2.692512777
2.690837646
2.696149598
2.690896387
2.6840636
2.68098008
2.679249212
2.675655263
2.68030914
2.679842563
2.684069805
2.68133214
2.68350517
2.686482545
2.683698673
2.686823156
2.685541803
2.684935862
2.687237967
2.677489166
2.680866376
2.689961619
2.679893184
2.682922046
2.682176144
2.687052479
2.69138207
2.687375865
2.681058548
2.684877139
2.684226153
2.688776547
2.681388049
2.679862934
2.681529869
2.685256575
2.676459027
2.680986536
2.67765036
2.682063357
2.677344725
2.678917062
2.684854357
2.681554943
2.676079752
2.678981383
2.683146716
2.689272217
2.689331657
2.693248429
2.681818013
2.680357104
2.676621689
2.679339909
2.674929389
2.67524233
2.687044824
2.687205654
2.685164612
2.69186044
2.682807182
2.681215349
2.678016332
2.675937166
2.675141358
2.671733262
2.666528506
2.672698615
2.673971734
2.675903723
2.672964737
2.676092143
2.679401608
2.68740087
2.690211519
2.684111039
2.685503772
2.684109314
2.683729303
2.680399724
2.679026961
2.679874078
2.674898218
2.675191745
2.672404098
2.674881433
2.673138557
2.681877872
2.681873742
2.683752997
2.687663185
2.69258017
2.690183063
2.695493902
2.693014574
2.691343607
2.682213498
2.68368496
2.68065997
2.684196858
2.686314575
2.68597943
2.681575364
2.676918318
2.684853356
2.682865353
2.688824485
2.685009383
2.687865974
2.680273478
2.680330569
2.683967229
2.67696074
2.681158867
2.685279947
2.686059439
2.687796555
2.684811786
2.684310466
2.681713603
2.682817105
2.677117701
2.6820995
2.691012688
2.688108355
2.693214255
2.690568377
2.688842516
2.693961937
2.692245688
2.698299543
2.69154602
2.687606996
2.687660111
2.680387904
2.682824588
2.683650927
2.68104528
2.684687257
2.682401251
2.678691723
2.690459191
2.690952231
2.69050261
2.690466006
2.689662994
2.684315016
2.686906292
2.682386607
2.682348601
2.688376943
2.694076645
2.703635293
2.702251849
2.69978766
2.691132778
2.686933624
2.683565727
2.687189542
2.689744829
2.691993672
2.692054397
2.69398407
2.697065602
2.693539509
2.693963922
2.692363174
2.692072209
2.68536746
2.685171689
2.680108076
2.681987065
2.675688655
2.680253166
2.683104384
2.687538928
2.684129012
2.684769507
2.685762211
2.682396712
2.683641974
2.686630431
2.688040567
2.691029924
2.688894805
2.690108487
2.692945653
2.687850841
2.689435021
2.693946835
2.691491805
2.687456525
2.682632436
2.682024608
2.680086412
2.679829672
2.685033961
2.683764501
2.68930649
2.689537771
2.689842809
2.688851116
2.687271301
2.688555881
2.69128303
2.693224325
2.691093852
2.689918832
2.685936242
2.683078389
2.689478379
2.69228046
2.691950628
2.69476016
2.698400746
2.685109209
2.692573122
2.696008364
2.684830576
2.684227373
2.684741034
2.685884775
2.687613381
2.686747715
2.684461932
2.683855409
2.688454143
2.694347806
2.687434853
2.694426201
2.687147112
2.690255023
2.684393485
2.686761287
2.69017568
2.689629151
2.6950111
2.697644626
2.695992485
2.697153192
2.687595665
2.68039893
2.675740386
2.680235516
2.681308316
2.677569784
2.680167054
2.674266535
2.66982892
2.672566779
2.675335461
2.682033662
2.683383232
2.684527454
2.685302941
2.693497837
2.673908463
2.666581032
2.671547304
2.671510272
2.673039357
2.676924842
2.672600646
2.668032763
2.666170659
2.671315194
2.680544006
2.680626586
2.684696326
2.685359847
2.68583774
2.686834308
2.692443998
2.691376793
2.686457918
2.684312566
2.672942629
2.674216205
2.68118123
2.684642276
2.679453415
2.68295064
2.674522707
2.678180498
2.684553398
2.681342036
2.688226616
2.691462899
2.69014905
2.678229398
2.686460547
2.680982194
2.681584144
2.673594235
2.678839903
2.675728174
2.691029342
2.689818222
2.693571375
2.690059003
2.691147949
2.687955299
2.689922204
2.684517961
2.682495747
2.685349131
2.687508435
2.69004323
2.687352733
2.691920246
2.680818531
2.681872435
2.683665231
2.688950059
2.690184643
2.692323543
2.684419967
2.689108144
2.688360062
2.689499916
2.684455126
2.687985304
2.67936245
2.68150598
2.683040345
2.692770498
2.692300091
2.690326922
2.686537937
2.686038513
2.686833527
2.688328585
2.689232633
2.687355486
2.685653394
2.686026221
2.684287973
2.689349275
2.686987452
2.687736173
2.690735296
2.688342468
2.687692218
2.683632911
2.68466307
2.686089875
2.684959182
2.6868672
2.689913899
2.692360778
2.695236099
2.694557342
2.692348073
2.695029418
2.688269248
2.6837298
2.693459633
2.689709303
2.687005392
2.678290492
2.683195629
2.684403462
2.684821843
2.68896425
2.692003223
2.689800038
2.686511622
2.6877113
2.686731478
2.687497893
2.689267378
2.685085303
2.685359458
2.689971551
2.690053415
2.691890228
2.679797722
2.683240325
2.684225869
2.683131005
2.684279436
2.684668508
2.68815977
2.680580106
2.680272074
2.68679438
2.684596042
2.679370613
2.685766337
2.686909035
2.691333355
2.693446946
2.684904905
2.686016403
2.68531872
2.678041935
2.675585206
2.676496895
2.680502523
2.682291128
2.679580204
2.676504795
2.67443919
2.677464899
2.682692925
2.691132872
2.69103969
2.69311784
2.695147607
2.69545529
2.691168126
2.688589866
2.683208083
2.677825807
2.671041399
2.677798448
2.680734527
2.679557279
2.685094298
2.67634817
2.679868325
2.681796428
2.683965162
2.692212741
2.700641046
2.700834681
2.696261649
2.69027442
2.687896252
2.684381939
2.682713933
2.685539954
2.681458376
2.674958986
2.681107933
2.679278017
2.689151679
2.687353543
2.683586121
2.67882789
2.675040728
2.673218071
2.679420916
2.683416189
2.684039407
2.683948109
2.685800707
2.692649357
2.689730131
2.689281988
2.688446019
2.697042043
2.696229515
2.693575357
2.687281236
2.690806162
2.685257559
2.684019589
2.679352221
2.677370808
2.681409794
2.681198131
2.676255487
2.67511808
2.677453591
2.677647486
2.67500316
2.677440604
2.677082627
2.68604534
2.685678799
2.675340989
2.674490057
2.674454374
2.681871948
2.687743171
2.691838279
2.6983451
2.696334447
2.698613127
2.693934779
2.692679438
2.691989883
2.685359902
2.683394205
2.680072634
2.687838634
2.68611484
2.68932233
2.684680155
2.685881903
2.691019836
2.685534334
2.677012004
2.681932265
2.685000693
2.676397652
2.674804699
2.677744017
2.685160917
2.675719325
2.67704572
2.673894499
2.672111135
2.673205996
2.678255398
2.670564524
2.676205946
2.670516893
2.666029931
2.670048401
2.663138939
2.667663449
2.67803324
2.67863252
2.680401068
2.672701837
2.673192726
2.667600553
2.672847648
2.676271902
2.68026107
2.686480528
2.688475701
2.684988419
2.677138052
2.683065677
2.678997001
2.686901186
2.683874026
2.680114911
2.684028342
2.67451562
2.672128732
2.673720731
2.676122777
2.685509546
2.677722644
2.686363036
2.687597083
2.6891679
2.690031027
2.682151076
2.671559556
2.672099551
2.674821402
2.674107077
2.67102688
2.669850056
2.671975756
2.678535732
2.68429448
2.687159342
2.690799376
2.682834168
2.687036422
2.677329802
2.678744837
2.681861706
2.679931169
2.679352417
2.67620132
2.678350893
2.684696379
2.692229741
2.696772715
2.692994386
2.690941359
2.692721372
2.688627963
2.686628019
2.687808107
2.69194221
2.685049183
2.688001547
2.683918391
2.681577495
2.673393031
2.669080631
2.67037084
2.678118723
2.680762794
2.687823257
2.689588769
2.682962465
2.677379508
2.675769827
2.676110551
2.684933098
2.689365854
2.679852747
2.6803411
2.672562602
2.680244368
2.683791146
2.682786479
2.688745322
2.687186166
2.68087801
2.677740196
2.682725128
2.685562734
2.689719595
2.68531856
2.68698413
2.690914591
2.687676338
2.685963625
2.689274405
2.692184732
2.688472759
2.690790612
2.688177138
2.69027842
2.695940998
2.695730842
2.692117432
2.689365391
2.696881424
2.696889961
2.691221902
2.694042613
2.69571816
2.695788581
2.693013781
2.691809585
2.688800466
2.687150515
2.678496623
2.683776885
2.685876106
2.688955093
2.685355377
2.690600338
2.691130404
2.69042653
2.699005298
2.695846562
2.692468806
2.702328148
2.697491214
2.69595211
2.687001705
2.687712363
2.682822318
2.678499382
2.677051506
2.673839906
2.676767425
2.68508333
2.684457917
2.680697523
2.684684544
2.685184411
2.691566865
2.696154915
2.674023942
2.667138665
2.668670562
2.671927048
2.673447216
2.676656061
2.683887569
2.680912937
2.681344244
2.678615177
2.676317391
2.677382952
2.677852836
2.678488199
2.673725208
2.672757207
2.67404401
2.673781422
2.672994731
2.67497212
2.6785698
2.683337465
2.678165353
2.674888824
2.680846444
2.679306058
2.676545238
2.676614647
2.679637402
2.680316073
2.67608438
2.680806284
2.67853925
2.676345138
2.669021609
2.67729922
2.680222949
2.677124656
2.68554254
2.68234845
2.686415632
2.680419496
2.685331416
2.688098739
2.690250962
2.686306948
2.682788997
2.677961827
2.669665614
2.676382661
2.671014011
2.673350953
2.672876376
2.679167791
2.683867983
2.679020278
2.680280706
2.682652369
2.676446999
2.683561521
2.694124869
2.690437352
2.685610887
2.687183334
2.68907134
2.691722296
2.690121497
2.689810385
2.693781966
2.687539237
2.684965059
2.684370514
2.682809721
2.690646015
2.68535926
2.683801812
2.690040772
2.697855939
2.698140501
2.699637524
2.692401585
2.694928088
2.697214534
2.697143327
2.694999532
2.705315509
2.70409724
2.70159272
2.697259765
2.693897661
2.693488499
2.692315459
2.685492911
2.683620842
2.688994909
2.689421201
2.688015787
2.686872861
2.686396481
2.691455495
2.686016342
2.685024079
2.680711611
2.681997589
2.686652385
2.685614549
2.678891818
2.682751176
2.675771557
2.672614393
2.66689996
2.681734493
2.686485121
2.695526509
2.695318053
2.69387093
2.69263307
2.688242395
2.687353876
2.688141625
2.682651576
2.679377295
2.683614507
2.683058799
2.68158255
2.675520173
2.676287918
2.67926516
2.671471614
2.67870116
2.680338871
2.681009175
2.682907787
2.681120581
2.686833198
2.684814726
2.684439246
2.687648519
2.68387474
2.684540192
2.674026615
2.66772661
2.673578013
2.675836634
2.679005841
2.68519867
2.681344768
2.682681744
2.685084172