/*--------------------------------*- C++ -*----------------------------------*\
| =========                 |                                                 |
| \\      /  F ield         | OpenFOAM: The Open Source CFD Toolbox           |
|  \\    /   O peration     | Version:  v1706                                 |
|   \\  /    A nd           | Web:      www.OpenFOAM.com                      |
|    \\/     M anipulation  |                                                 |
\*---------------------------------------------------------------------------*/
FoamFile
{
    version     2.0;
    format      ascii;
    class       volScalarField;
    location    "0.02";
    object      overallT_N2;
}
// * * * * * * * * * * * * * * * * * * * * * * * * * * * * * * * * * * * * * //

dimensions      [0 0 0 1 0 0 0];


internalField   nonuniform List<scalar> 
5120
(
300.2055997
300.6548095
300.9484837
300.3655887
300.2625188
299.9597994
300.5429955
300.9234154
300.972161
301.1329575
301.5569858
301.7810972
301.315657
300.7822436
301.0496289
300.6952641
300.5428976
300.3880065
299.8950831
300.1505348
300.6449734
300.5116637
300.7004126
300.6557114
301.0160422
300.8767468
300.4938756
300.8125022
300.8144188
300.9794029
301.1343593
301.4291638
300.8860507
301.0736866
300.8194987
300.3752827
299.9942391
300.573611
300.4132353
300.6788559
301.3775871
302.0841993
301.0729472
302.1385328
301.571534
300.9975723
301.2787433
301.6616495
300.9613702
301.0104103
300.5681947
300.9509901
300.7899496
300.3514445
300.1776474
300.5424815
300.676162
300.5294634
300.914497
301.0098242
301.3164574
300.2730174
300.9066919
301.1643392
300.2542032
300.1378189
300.7449116
300.5901286
300.8179018
301.2492221
300.9376789
300.490134
300.1034487
300.3799004
300.1556036
300.3372888
300.927214
301.0790118
300.7397719
300.356103
300.4692299
300.8838113
300.5939781
300.218478
300.6621311
300.5465352
301.3222241
300.8907105
301.7434003
301.866622
301.6244036
301.2605885
300.8513755
300.7638961
301.1044936
300.5701925
300.7841933
300.5097059
300.0334202
300.9294155
300.2903969
300.3206955
300.8666223
300.1950735
301.0917613
301.0882841
300.7601815
300.707241
299.8696326
300.4261159
300.4290546
300.3549612
300.2849877
299.9352313
299.8059044
299.9965661
300.1980653
299.9771744
300.8174129
300.8008237
300.42319
300.4506957
300.2531332
300.3335953
300.6061494
300.0953254
300.0189316
300.7057263
300.6856115
300.4341755
300.076841
300.2953715
301.241629
301.5575705
301.0957578
301.2043096
300.7767523
300.0752295
300.0424519
300.0057323
301.0193898
301.2337624
301.2344881
301.310891
300.3536061
300.4812934
300.3395576
300.389316
300.3503001
300.8142434
301.3104614
300.9609209
301.1170229
301.4389567
301.9209569
301.7349978
301.6453422
301.6956868
302.0502361
301.125679
301.8715403
301.642795
301.745236
300.8638778
300.246782
300.6724375
301.0610116
300.8006485
300.3619738
299.9034882
300.2823619
300.6677063
300.9623306
300.7539097
300.7129916
300.7800886
301.5573386
301.1803328
301.0885776
301.7926366
299.9458293
299.4521741
299.7465986
300.688113
300.9987551
301.0596922
301.9887066
301.1431062
300.8444021
300.791277
300.020058
300.6863992
301.381556
301.5890825
301.6668619
301.5520147
300.4543253
300.6636451
300.682624
300.625393
300.9171286
301.7015924
301.0024131
301.2714262
301.3731383
300.8138504
300.8050685
300.3808205
299.5626394
299.7555369
300.658908
300.2960651
299.7104669
299.7389652
299.3629858
299.6337388
300.03085
300.1443415
299.7767348
299.8333815
301.4811468
301.4832176
301.4355709
301.7948521
301.5600202
301.135027
300.9197766
300.0423419
299.4143322
299.6844411
299.576659
300.6923329
300.4090627
300.0550305
300.4609645
300.2644339
300.4028463
300.7776515
300.5450959
300.6713523
300.3232902
300.5719392
300.7274074
300.7788136
301.0445481
300.8490593
301.0240528
300.7364585
300.5107567
300.4523147
300.9289761
301.3529538
301.5893955
301.8160479
301.2224155
300.8580543
300.9854278
300.3654075
300.4443424
300.7410364
301.5709457
301.7119439
301.1558797
301.4418272
300.7061806
299.9933849
299.3052512
299.2477979
299.898543
300.6771575
300.8417978
300.716108
301.0384354
301.3467338
300.6956688
300.8559421
299.7617077
300.0906527
300.5761841
300.0357715
300.3215665
300.92944
301.1561423
300.7381985
301.1988011
301.173195
300.5440993
300.5445698
300.4561412
300.4428334
300.729049
300.7052402
301.0310946
300.7223183
301.0596581
300.8929553
301.2558141
301.7370091
301.6562794
301.2550403
301.1477959
300.9369207
301.4245624
301.1294149
300.8106639
300.0754452
301.1684656
300.9407466
301.2419896
300.90675
299.5063807
299.7122508
300.1277509
300.3222769
299.7694781
299.9194448
300.3238229
300.1744993
299.6346541
300.0646735
301.1584602
300.6309522
299.5873533
299.5385298
299.9949546
300.6905258
300.5619373
299.7607798
300.3651615
301.2896065
301.2572934
301.2710867
301.433221
300.681198
301.0010965
301.148134
300.20257
300.9356255
301.1807191
301.0672302
300.4690796
299.7054063
300.0693122
300.9584249
301.7614864
302.1220689
302.0000787
301.3937674
301.1211212
301.046635
300.6806868
300.9401534
302.1503313
302.0666097
301.4684847
300.8227393
301.5325981
301.3261888
300.7089858
299.8361228
299.4721084
300.5348085
301.1899127
300.5016788
300.7734136
300.9055671
300.3297194
300.0888142
300.198073
299.854475
300.3126408
300.5672061
300.6129874
300.6813019
300.8459868
301.3050757
300.9619524
300.4310553
300.4807649
300.2462304
300.2967409
300.4603712
300.8386273
299.9639007
299.8505778
300.1006588
300.7705086
300.5829201
300.5857577
300.7512521
299.9379105
299.3851368
299.5745418
299.5650323
300.0042782
300.006698
300.3584272
300.1843403
299.8036102
300.1094937
300.0296465
300.5169113
299.6757999
299.6246809
300.0943604
300.2049782
300.7713559
301.9230688
301.3315647
300.9414891
300.9671889
300.9827361
301.4303463
301.0690398
300.7598075
300.9669119
300.0409468
299.6225039
299.6766565
299.8561108
300.7597033
300.5282844
300.8581334
301.1722999
300.4460466
300.1285343
300.4696479
299.7630057
299.7225376
299.3164891
299.8633457
299.82579
299.9342818
300.6054441
300.3834367
299.9114596
299.0874361
300.0274783
299.8052791
300.2165508
299.8242084
300.0425405
300.3699603
300.8642907
300.6149454
300.875369
300.9696139
300.4878984
300.2213126
300.2667517
301.3731624
301.7080881
300.5067129
300.6592462
299.8931716
300.4724686
301.0395834
300.8398366
300.5791016
300.3331121
300.1752506
300.6065954
300.2099609
300.1746181
300.4399916
300.4719186
300.2050749
300.002988
300.44123
300.6936414
300.4298268
300.4099324
300.7448934
300.9819949
300.8566379
300.736849
300.9332085
300.3187136
299.7626014
300.3282038
300.7921958
300.2847491
300.7563697
301.0478779
301.2804449
300.680106
300.7423933
300.8362003
300.4679193
300.6750834
301.0048497
300.3301802
300.5595004
301.4223411
301.728404
301.3098134
301.0207517
301.2752034
301.5925688
301.4472238
300.4819076
301.18355
301.2595268
300.6671694
300.6431413
300.6178049
299.9608
301.1496622
302.1939157
302.1323803
302.355187
302.0502025
301.4940819
301.2521886
301.0634176
301.3211035
301.0214027
301.5209445
300.9136538
300.7916884
300.9681392
300.4597785
300.4338954
300.9080292
300.9759638
300.9361568
301.0147523
301.5979652
301.7516582
301.2649838
301.3506875
300.72577
301.428375
301.298558
301.7652173
301.6008565
301.0970495
300.5210892
300.6957862
300.4288414
300.017999
299.7501256
300.8266951
301.1270923
301.0759084
300.5617251
300.8003827
301.0177009
301.0298645
300.3151569
300.6669511
301.2919442
300.6798823
300.5637264
300.2202042
299.8746192
299.7429915
300.8248972
301.0788804
300.5191894
300.7221868
300.8671229
300.7572916
300.7644477
300.8035923
300.8350567
300.8915251
301.3887344
302.4717214
302.633738
301.9041016
300.7894537
300.6687376
301.0443227
301.640292
301.4054776
301.6584913
301.6986158
301.0573333
300.5006109
300.3776595
300.2155034
300.2754279
301.0843248
300.4404534
300.926886
300.8202803
300.9561367
300.6765112
301.0616641
301.1600665
301.5541897
301.3119659
301.1073075
301.0927588
300.5621716
300.6752638
301.0765588
301.4237972
301.4384871
300.5734468
301.0048472
300.6110245
300.7590207
300.5066932
301.3553013
301.10362
301.6060753
301.2555387
301.1441334
301.546418
301.1132056
301.0287504
300.6698901
300.7337235
301.2837064
301.5236327
301.1344663
300.7674844
301.0082794
300.2933151
299.6304066
299.0739838
299.6274343
299.3805374
299.3905204
299.2411256
300.1261973
299.8701598
299.1181875
299.8282952
299.7681322
299.6030929
299.5286482
299.8829257
299.7737817
299.9357052
299.5957535
299.7719417
300.5107999
300.529902
300.3532028
300.4121247
300.3708403
300.0126301
300.3833076
300.4202657
299.6881766
299.4392509
299.6517245
300.1780303
300.4089387
300.9025212
300.8303321
301.2086571
301.1859699
301.7362695
301.6554471
301.1269779
301.3687433
301.058214
300.9841906
301.940558
301.7374148
300.9445462
300.994225
301.0906234
301.3434466
301.5014098
301.0161485
301.1164378
301.0845039
300.8459362
300.8464526
301.4537796
300.8617867
300.5507595
300.2675626
301.4965151
301.9207351
301.0390349
300.7512965
300.6629613
300.795277
300.6515013
300.59853
301.1718526
300.7428518
300.8972913
300.9206138
300.9545502
300.8392738
301.7213998
301.1883312
301.2955692
301.7090027
301.97627
301.7454986
300.8085559
300.3426355
300.7281273
301.6543862
301.9627572
302.3602995
301.8935607
301.539908
300.8152916
300.4640412
300.9987251
300.379309
301.0110782
300.6765949
299.8474926
300.4104011
300.6672338
300.768373
300.6751092
300.5213593
300.8350339
300.5569461
300.8555019
300.6141478
300.9401928
301.1763926
300.6558552
301.6913274
301.078585
301.3548196
301.2934699
301.129305
301.4816211
301.0141512
300.3324687
300.1385105
300.1381657
299.9214991
300.3105562
300.9150729
301.5961528
300.8361601
300.4226922
300.3573011
300.9608429
300.2103451
300.7979887
301.1168047
301.2854257
301.2930404
301.765883
301.355771
300.8664331
300.426981
300.9751517
301.1525468
301.0082934
300.379412
300.5908776
300.875453
300.2761603
300.1291031
301.3495672
300.762294
300.5922122
300.8403311
300.3872505
299.7287153
300.1140061
300.9308136
301.2499059
300.7290682
300.8419465
300.3563394
301.0112964
300.6197754
300.4700846
300.5319007
301.1302388
300.9136896
301.0414845
301.4721275
301.0751606
301.3481009
300.0295347
299.791253
299.7820793
300.3837273
300.9810912
300.8893663
300.9335615
301.1919814
300.5694989
300.3359114
299.7802918
300.0890099
300.7494717
301.6011936
301.6427472
300.5715476
301.552415
300.9243537
300.5650235
301.115416
301.3864018
301.251678
301.496173
300.6999453
300.647714
299.9048073
300.9085006
300.066126
300.3042746
300.3054639
300.2049672
300.0436614
299.442133
299.8208344
300.6245694
301.3032553
301.1100604
300.6420801
300.0305787
299.9157563
300.315325
300.7770009
301.2215623
301.1486461
300.8565735
300.5816255
300.2296958
300.5446617
299.8278506
300.4097057
300.6270566
300.2666924
300.7812139
300.6884385
300.1140161
300.5840248
301.2751406
300.8512385
300.742341
301.0607735
300.3912753
299.9556045
299.8482372
300.5581315
300.5492174
300.7947698
300.6874402
300.4652958
300.4141826
300.460221
299.7626279
299.7853715
299.759363
300.1618854
300.2954354
299.9916772
300.1712087
300.3488368
300.8111522
300.5847943
300.5079083
300.8290128
300.6521957
300.6807862
300.708804
300.8014891
300.7654721
301.460635
301.4106459
300.9435391
301.0092664
301.0952961
301.1878618
301.3239526
301.0289176
300.7778571
301.3080808
300.895345
301.070534
301.0353172
300.3021875
300.1478737
300.8742037
300.8329866
300.3438601
300.9371949
300.3338945
300.0542432
300.0812312
301.225911
301.4508385
301.3165622
300.9306055
300.6405314
300.906559
300.7317464
300.4843811
300.9560309
299.6959107
300.8666007
301.3436367
300.653593
301.4512582
301.2953328
300.8493152
300.667501
300.5267715
300.430319
300.1179023
300.1769815
300.0823649
300.2250196
300.1852222
301.1691444
301.0890237
300.5997087
299.8042474
299.8893609
301.0387063
301.4048292
301.5074478
301.2581039
301.5366839
301.2966859
301.7420512
301.8519865
301.6883594
301.622435
301.6522154
302.1332947
301.9523944
302.3093484
302.390172
301.9002191
301.4276234
301.5811998
302.0556943
301.5299731
300.6046908
300.6893617
300.8978861
301.3838465
300.9044033
301.09062
300.5117991
300.6495295
301.1037423
301.1446365
300.3888883
300.3817888
301.3496661
301.1348245
300.5176867
300.7528067
300.6327136
300.3502347
300.2879595
300.2749591
301.4361371
301.933713
301.1823378
301.372861
302.0615936
300.9334691
301.0710369
301.0134018
301.5336954
301.6498629
301.4592451
301.1187149
301.2930115
300.6655511
300.2967159
300.2860918
300.4285337
300.4802548
300.6765901
301.2645194
300.8073221
300.6009444
301.0386012
300.5208721
300.8032654
301.3984013
301.361341
301.4021153
301.4468376
300.8236766
300.5989908
300.8142135
301.4672232
302.110229
301.5671683
301.7449894
302.0800299
301.7472679
301.6077373
300.7235904
302.2383631
301.4730556
300.9074568
301.0448428
300.4863512
300.7124417
300.1049857
300.3669108
300.0818268
299.9968342
300.175109
300.7028542
300.68344
300.6846397
301.0734471
301.4399427
301.0297518
301.9541449
302.9683014
303.0105423
301.8477872
301.1650208
301.1281596
300.9228891
300.917937
300.6274605
300.3327097
300.7387823
301.3816951
301.1902712
301.2714173
301.2228182
301.4077845
301.2676699
300.88567
300.2931532
300.0493995
300.4826697
300.5798626
301.5068782
301.0901102
300.9927387
300.7770433
301.1953882
301.9184629
301.4318185
301.1758857
300.6486863
300.6863749
300.9349487
300.6837324
301.3815229
302.0542178
302.0595487
301.7131678
301.8985569
301.3774403
301.0660548
301.2178068
301.2797514
301.8529472
301.7250172
301.5677797
301.5848528
301.0158822
300.1753664
300.0681234
300.3574953
300.4879692
300.7177866
300.720109
299.7563067
299.8499545
300.2668676
299.6408452
300.4140382
301.0252211
301.0044669
301.5246208
301.9200007
300.6834294
300.6844715
300.579744
300.6642561
300.8241451
300.4615863
301.0455612
301.4382807
301.1692312
300.9796003
300.7054519
300.975434
300.7748759
300.9250688
300.8582273
299.9508062
300.1765108
300.9981791
300.8178867
300.8440747
300.3848781
299.720919
300.3160192
300.3998681
301.4335642
301.3997008
300.9013178
300.7577028
300.7223181
300.7255173
301.6573338
301.4307891
300.699838
300.5640172
300.5974485
300.9037353
300.3280714
299.9360423
300.0004073
300.2327995
300.6344533
300.8452155
300.9629358
300.8545601
301.0568451
301.2152612
301.0519891
301.2705533
301.3086634
301.3877568
300.9413629
300.8832366
300.8855484
300.4696039
300.4328463
300.6140001
299.9464507
299.8569834
300.4114215
301.1043982
300.3542116
300.0246004
299.578642
299.7939011
299.9987545
299.7314642
300.7375453
300.7113148
301.1183657
301.1838552
302.0307537
301.2091382
301.4277567
301.1100352
301.3448464
301.451385
301.5320146
300.723278
300.2911457
299.982632
302.06357
302.0044997
301.4858345
300.7413292
301.019393
300.9638705
300.882109
301.247678
301.0228281
300.9413354
299.950054
300.0129445
300.5186494
300.8404932
300.6085571
300.7558014
301.3651085
302.2187438
301.5664376
301.5397263
301.6062607
301.3445851
301.880491
302.3712245
301.847297
301.4795992
301.912576
301.0898585
300.7524299
300.3774064
300.5739754
301.3886974
301.2090666
300.6640726
300.6574692
300.5362506
301.1673397
300.7094162
301.6353333
301.3016826
301.5368895
301.8814254
301.6962012
301.5481525
301.3473312
301.1130417
301.0484963
301.3215163
302.3421158
302.7787024
301.8844388
301.1298309
300.7514217
300.7223626
300.5275027
300.2321249
300.4153815
301.5672651
301.7346474
301.7490645
301.3179354
301.2832139
301.2110351
301.6814213
300.9793423
300.9348903
300.9537222
300.8074148
300.9040649
300.3325292
300.9310311
301.5026342
301.7830117
301.1571794
301.0769944
302.2566347
301.8904509
301.6110823
301.3153391
301.408172
301.1244152
301.5299007
300.9024792
300.703176
300.7339695
300.9426286
300.9672048
300.699567
300.5857827
300.8482501
301.0923404
300.9226415
300.8585027
301.16553
301.5274259
301.5842734
301.2322094
300.8882898
301.0342374
301.4003753
300.6194423
300.4025225
300.442987
300.3637442
300.6164248
300.8864261
300.4367269
300.0907924
299.3027072
299.5682252
300.3438357
300.7090305
300.9357455
300.4642763
300.9530562
300.5339997
300.8173372
301.2541907
301.0229811
300.5500578
301.2098204
300.9652587
301.2143724
300.6026486
300.3586855
300.9860882
301.8167539
302.0498651
301.9284829
301.4544822
301.276779
301.0491341
300.9696716
300.6700555
300.7674888
300.9921246
300.2277525
300.0129036
300.3491507
301.2690844
301.3222072
301.2617676
301.0430187
301.5081784
301.241899
300.7064409
301.0250821
301.6614769
301.4948669
301.661233
301.4256439
301.1373096
300.7639991
300.4914874
301.2816161
301.2778702
301.3884976
301.6442113
300.9390413
300.9049824
301.4137637
301.2849467
301.0290858
301.6172532
301.115859
300.8212728
300.6940943
300.4547857
301.1027819
300.9818154
300.9730122
300.7385963
301.1313638
301.0926585
301.5599506
301.7219601
301.3778678
300.8342047
300.846572
300.8529875
300.5197223
300.9751844
301.230866
300.3156826
300.3749426
300.7517956
301.3735074
300.668597
300.2397545
299.9720486
300.8929443
301.3103733
300.9226003
300.9013711
300.5297668
300.739126
301.1276973
301.0568856
300.6459311
300.624083
301.1528145
301.4147351
300.9187097
300.6377731
300.9958811
301.2242631
300.9411694
300.9116335
300.918252
301.0952073
301.2160905
300.4233835
299.7980976
299.869605
300.4583312
300.9569464
301.4646493
300.6955453
300.3235325
300.9064784
301.1439783
301.347017
300.6938185
300.7236778
300.6355752
299.8430282
299.9473597
300.4592626
300.5887971
300.0970155
300.0911393
300.7172639
300.9407807
300.126089
300.2133325
300.4281143
300.1481198
300.795622
300.6904258
300.5507091
300.5664067
300.3286296
300.6485981
300.2976116
299.5784906
299.612057
300.0029586
299.6304672
299.9733846
299.5688964
299.8166008
299.9905692
299.7029891
299.7493369
299.9559026
300.0065993
300.5303151
300.8494648
300.4136483
301.257845
300.020541
300.9290766
300.2334398
300.8962393
301.2299307
301.4817205
301.0522048
300.759051
300.5072371
300.3018151
300.1604115
299.7655585
299.7638677
299.8815095
299.6966337
300.2117798
300.7462661
300.1821347
299.9669666
299.7615466
300.922005
301.2620733
301.8268979
301.4054025
301.0881497
300.7287143
300.7920875
300.6223928
300.4927724
300.3199108
300.8136812
301.4432648
301.2227207
301.4576519
301.135475
300.1892455
299.9736928
300.0497232
300.3813737
300.2521192
301.5611667
301.2979217
300.8202059
300.2091079
300.6982612
301.0505819
300.2142071
299.8052263
300.5118024
300.0882019
300.0516697
300.2010675
300.7626133
301.1215801
300.8359047
301.5322933
301.4631184
301.5522589
301.9400612
301.9045395
299.7895949
300.5453928
300.5544104
300.8661017
300.5616163
300.591026
300.9776599
301.0307805
301.0651631
301.2465196
300.8024205
300.5454387
300.3246118
300.2508823
301.3068379
302.0099236
301.8090657
301.1791192
300.6944059
300.1665049
300.8873945
300.8113002
300.9150685
301.4724227
301.5105954
300.939842
301.1577098
300.4451596
301.1725087
301.0056748
301.2169419
301.5421906
301.8926851
302.3699156
302.3042391
302.1399048
300.9241063
301.358862
301.4637118
301.3402692
301.453328
302.1150653
302.0541486
301.3066251
300.98121
301.6222524
301.8029846
301.6056607
300.6883819
300.1327589
300.4963586
300.5169821
300.381851
300.3731113
300.2404807
300.2693264
300.8587883
300.4412347
299.969825
301.2966281
302.1801259
301.753592
301.8056178
301.5617099
301.4239922
301.8975708
301.2041134
301.3337681
301.1816169
301.235296
300.6617416
300.254429
300.3742337
300.7194561
300.980598
300.7392173
301.0418459
301.2620139
301.4731561
301.4275437
300.9856105
300.626012
301.1345421
301.2239375
300.8682527
300.6864965
300.7844585
300.6451728
301.5911761
301.7893233
301.7749692
301.5432955
300.9350935
301.1810068
301.0036277
300.5193129
301.13234
301.5586057
301.1921516
300.9662288
300.2777894
300.6538792
301.2964408
300.8652578
300.9814025
300.7165388
300.2733693
301.1145646
301.0110748
300.9659612
300.6821401
300.7328771
300.8693404
300.6722517
300.7608892
300.5188419
299.9038289
300.008555
300.5556029
300.6692592
300.2992886
300.7696082
300.6232918
301.1535396
301.4678588
301.3990824
301.1865659
300.8148219
301.0446862
300.3182075
300.2775341
301.0698947
300.895653
300.1283421
300.2229595
300.3401917
300.4885109
299.9962226
300.4458502
300.1439303
301.0530609
301.2463647
301.9334324
301.4377332
301.3344819
301.2382495
300.5061285
300.4732703
300.6053647
301.0693807
300.5278517
301.0709862
301.2953953
300.5271593
300.2881114
300.57111
300.9695456
301.5299076
300.8641034
301.2924118
300.545937
300.6382644
300.0152859
300.3236948
300.9650427
300.7690541
300.201058
300.4502473
300.446392
301.2066828
300.9157021
300.9377535
300.7241879
301.481901
300.6134583
300.6393386
300.6902889
300.6422852
300.6620307
300.6897144
300.7958452
300.5604445
301.3026821
301.7428423
301.6863143
300.8180283
300.8402359
300.952063
300.874043
300.3870424
300.2494486
300.6014507
300.6740765
300.3712429
301.4822152
301.3078558
301.3591464
300.824085
301.1822463
301.5209048
299.627999
300.9260928
301.4198373
300.9121848
300.7602539
301.8650465
301.6624787
300.3722927
300.1751193
300.3565162
299.7715433
299.0698891
299.1140661
299.2041014
298.9824746
299.412784
299.3772119
299.8712643
299.6537623
299.5456475
299.8667754
300.575799
300.9592269
301.0422625
301.5560665
301.5123212
301.7274011
301.6255149
301.2120888
301.5896959
301.4908329
301.3638832
300.9416686
300.5521465
300.747914
301.0464448
300.9041564
300.9688195
300.6780213
300.2846683
300.4180427
298.9615655
299.7790368
299.7600985
300.1896176
300.3231395
300.165653
300.1248394
300.7048842
300.8714688
301.0240377
300.8894567
300.7998695
301.020249
301.2959996
300.6469352
300.4361342
300.0394067
299.9316395
300.0940781
300.9492211
300.7177733
300.8853804
301.4157275
301.2370676
301.0395281
301.7133793
301.4445457
300.883498
300.9487629
300.9832783
300.6572165
300.4672468
300.3223191
299.8398016
299.7925127
300.4833418
300.5187059
300.4966531
300.8832164
300.7406681
301.2443542
301.6288087
301.474408
301.1786043
301.5096469
300.8461291
301.0351902
300.9486029
300.412175
300.6510512
300.7688998
301.4682775
301.2095024
301.0608511
300.8915356
300.6755157
300.8088018
300.5013947
300.5469866
301.656528
301.5713426
301.6957208
301.3742351
301.0615805
300.0320744
300.7152975
300.2729353
300.8002225
301.4101555
301.9455499
301.318297
301.0146989
300.9489694
301.1015948
300.8910757
301.198754
301.8658936
301.2268388
301.2468274
300.7513006
300.4594025
301.0533932
300.7072504
301.038121
300.8248748
301.2814616
300.4369048
300.5563302
300.7424271
300.510286
300.9592573
300.9894532
300.9514624
300.6411385
299.7749756
299.7447313
299.7067988
301.0199289
301.228346
299.8389977
300.0230846
300.4399794
300.9952355
301.2950301
301.8496968
301.0895312
301.0969281
300.5330224
301.5067957
301.9199372
301.6182382
302.2007513
302.0327322
301.9328829
301.5477722
301.4045271
301.2600071
300.4647809
299.9383987
300.6726601
300.1773791
300.5609877
301.1000622
300.8506663
300.7696633
300.1552819
301.0144748
301.5421971
301.6555122
301.0456755
301.127449
301.1907584
301.380281
301.7268163
301.8987258
301.1829619
300.9857937
301.0349709
300.8722887
301.5247304
301.304128
301.5872788
301.8798188
302.2278811
301.9559308
301.8707266
301.9902117
301.7391818
301.3398973
301.5597198
301.799162
301.8615008
302.0737312
301.6245696
301.8653386
301.5762984
301.3346369
301.0154403
301.6282303
301.7462769
301.6338251
300.8669666
301.1625049
300.8876902
301.7853096
301.9213285
300.704452
300.494838
300.83922
301.2149282
300.8129663
301.1572894
301.2731187
301.1088489
301.0903186
300.3678132
300.1945913
300.7489809
301.3252293
300.933945
301.0509653
300.9308239
300.9881316
301.4765976
301.0783373
301.6468464
301.527206
301.6049172
301.6960541
301.8250115
301.01213
300.3572107
300.5240464
300.0904901
300.1920083
300.6449421
301.059703
301.0494364
300.9909199
299.3862595
300.1039017
300.3742668
300.9308984
300.6399948
300.0769017
300.629927
300.8260288
300.9368939
301.1605289
300.8212189
300.5383018
300.4606994
300.7946885
301.0084118
301.0204467
300.9634614
300.1372407
300.1347594
299.4892624
300.6345267
300.8238072
300.4574416
300.7246064
301.3416213
301.5481889
301.1435496
301.1868537
300.8598883
301.7301149
301.9396088
301.8551201
301.2895515
301.7587946
301.9728856
301.5420173
301.2887286
301.0075178
301.1375155
301.0184268
301.2123955
300.7802231
300.8753336
300.3291337
300.4278878
300.7537649
301.5675807
301.300515
301.2608531
300.9091976
301.0276604
301.4564543
301.5984017
301.3253369
301.2511934
300.5686992
300.9025393
300.7752805
300.8985411
300.9977919
300.4983589
301.0396708
300.6336091
300.1903849
300.4941156
300.4682896
300.2231758
299.6547578
299.4419797
299.8125227
299.9854049
299.9226525
300.1265463
300.9783151
300.9450981
301.5821811
301.2464261
301.0057917
300.7808564
300.6271067
300.7452249
299.7821921
300.2638614
300.4574948
300.5979131
300.4485087
301.1536999
301.7472078
302.0434517
300.9597861
300.8717557
301.6384297
301.1324684
301.1572805
301.1218651
300.4386672
300.338664
301.1998202
300.2466792
300.7494661
301.1095021
300.7336815
300.6714394
300.2739336
300.0757646
300.2083831
301.1009371
300.9244395
301.3218218
301.1414759
301.3445897
301.1968367
301.1574599
300.9343372
300.8332033
301.2626825
301.6291597
300.8832213
300.7821547
300.5334764
300.6682614
300.5477816
299.7969788
299.6998246
299.9780007
300.0822336
299.99082
301.0312085
300.9601922
300.8936021
300.8202228
300.9593864
301.4730587
301.8669984
301.3303503
300.4773475
300.070545
299.9451165
300.2769015
300.7475708
300.3311084
300.2392482
300.84029
300.848913
301.4319535
301.7658166
300.6406219
300.3311853
300.9656834
300.9273213
301.6593777
301.9112933
301.4904447
301.0339538
300.7646116
300.3985493
299.5237187
300.3388919
300.5398372
301.0479481
301.0219899
300.503681
300.4609214
300.0843516
300.2734386
300.178855
301.4519538
301.1309242
301.1440343
301.720614
301.3832067
300.9668769
300.741185
300.8997227
301.2861425
301.1386461
301.6827707
300.77394
300.8105737
300.6387077
300.9426025
301.1495092
300.2420649
300.1504453
300.3752867
300.8043333
301.2064951
300.8067613
300.4320587
300.1748528
300.3783183
300.9456113
301.1076814
301.192353
301.3976398
301.3230752
300.9942738
300.7572094
301.5661955
300.6323724
301.6005844
301.1534875
300.9915784
301.3816218
300.7055386
299.7862456
299.050294
299.7989884
299.6932649
298.7383646
299.0539629
300.5121704
301.1525199
301.108952
301.5813416
301.2618652
301.7944183
301.5429779
301.3219056
302.0619775
300.5842488
300.5365719
300.6825185
300.4567632
300.7220034
301.028918
301.5277742
300.9202384
300.6919731
300.7602753
300.6329435
299.8110615
299.8967704
300.7383276
301.2223707
301.477614
301.1553795
300.807252
300.9806842
300.6023862
300.6330518
300.7778757
300.4718643
299.8652882
300.1647966
300.9939425
301.7292229
301.760371
301.629139
301.2039503
301.7699711
301.764806
300.8236877
299.8582495
300.4896542
300.9160599
301.98991
301.2674598
300.9429123
300.805979
301.5472065
302.0291624
301.6639564
301.1097205
300.5931877
300.939643
301.3627692
301.7153278
301.8958608
301.4345532
300.7841344
301.2408617
301.3463679
301.3422119
301.7404498
301.5400519
301.5017296
301.6818917
302.2132631
301.9230162
300.7691122
300.7639988
300.9788482
300.9892918
301.249464
300.8990735
300.866147
301.0564102
301.2485773
301.3377587
301.1476651
301.1147641
300.5608905
301.3906476
301.2263036
300.5774166
300.6069472
300.1127192
299.9501937
300.659685
300.8249408
300.5721523
300.733615
300.9927942
300.4152216
300.7288582
300.5560028
301.0671421
300.9426007
300.3142614
300.5271732
301.0489391
300.9904063
300.6786317
300.8194494
300.4947304
300.6263725
300.4274203
300.1561699
300.9748404
300.8043908
300.5465967
300.6295747
299.8349967
300.6280647
301.1858388
301.3335154
301.3499479
300.2525604
300.0402443
300.1841985
299.9227807
300.2581027
300.0883923
299.2043696
300.1573947
300.402154
300.5232728
300.5903401
300.6377511
300.6839254
300.355614
300.5840009
301.375447
301.0716943
301.0855979
301.3696386
301.5398653
301.6121691
302.0401606
302.025459
301.1878786
301.4804646
301.1814568
301.7130253
300.9347808
301.3032589
301.2925533
301.7668805
301.213621
301.6604117
301.9076526
301.0762715
300.8558472
300.8833621
301.4586842
300.8878425
301.0050949
301.450253
301.5153076
301.1804227
300.6066883
300.0023302
300.9709558
301.0470742
301.0195258
300.529012
300.6718343
300.4357245
301.2316551
299.9065335
299.7533347
300.2300715
300.366181
299.8986921
299.8260671
300.5549668
300.0771689
300.1097485
300.553819
300.2285264
299.6323199
300.3952889
300.408687
300.2062607
300.5075395
300.8529352
300.5061564
300.4701997
300.1795334
301.2274608
301.3020854
301.2949201
300.5043302
300.286695
299.6932857
300.1644062
300.2122692
300.0498288
300.4293901
300.4125534
301.4276827
300.433817
300.6889376
300.7128059
301.0048317
300.1394542
300.0347377
300.0233974
300.7608273
299.8296648
300.8778364
300.7214835
300.764697
301.0761461
301.2264644
300.5193967
301.0949598
300.9936134
301.2530143
300.8440619
301.2837536
301.0531878
300.415954
301.4159322
301.200889
300.7491901
300.82299
300.7735976
299.883411
301.1423574
301.600962
301.7776224
301.0435531
300.5606501
301.0088614
300.7884273
300.3756611
299.9365924
300.5404933
300.2514163
300.7023702
300.9256696
301.3134291
301.1069323
300.9830348
301.6449153
301.7814829
301.9751215
301.8116444
300.6588255
300.7205341
300.786259
301.627464
301.2364182
300.5701184
301.0687583
301.5349826
301.2407322
301.0806892
301.2729712
301.5433553
301.720704
301.8444561
301.4264604
301.8562741
301.976698
301.8176688
301.0943679
300.2450176
301.9228628
302.3978581
302.0589198
301.5340163
301.1312185
300.7232682
300.8475424
300.8199858
300.8614529
300.6806741
300.2110554
300.4608007
300.2095056
300.5737474
300.6925878
300.6712228
300.8315837
300.7000708
301.2678786
301.6473703
301.3391792
301.7400731
302.0631804
301.6578558
301.2757713
301.1610728
300.6254018
300.6331438
301.2850372
301.6698712
301.4872855
300.6545077
299.8775254
300.1022358
300.2679382
300.184447
301.0441646
300.9590603
301.0417276
301.4933885
300.5958628
300.2963109
299.9759321
299.9932049
299.9511025
300.0367388
301.1239303
301.3251726
301.3061612
300.710447
300.7085412