/*--------------------------------*- C++ -*----------------------------------*\
| =========                 |                                                 |
| \\      /  F ield         | OpenFOAM: The Open Source CFD Toolbox           |
|  \\    /   O peration     | Version:  v1706                                 |
|   \\  /    A nd           | Web:      www.OpenFOAM.com                      |
|    \\/     M anipulation  |                                                 |
\*---------------------------------------------------------------------------*/
FoamFile
{
    version     2.0;
    format      ascii;
    class       volScalarField;
    location    "0.02";
    object      overallT_O2;
}
// * * * * * * * * * * * * * * * * * * * * * * * * * * * * * * * * * * * * * //

dimensions      [0 0 0 1 0 0 0];


internalField   nonuniform List<scalar> 
5120
(
300.8102444
300.2880364
301.595976
301.6597237
302.2662525
302.4008126
301.5995739
300.5402631
299.0916894
297.9822881
298.4700915
299.3432725
298.5872637
298.8071454
298.2588685
298.2220584
299.1470914
298.5044594
300.3698768
300.9677822
300.5142502
300.1834841
300.6087602
300.3095332
300.062156
301.2980669
302.7085309
301.7952701
301.5497675
300.5333666
299.6534324
299.770973
300.5294768
300.4457559
300.4688143
299.1494133
300.991422
301.052861
300.727464
300.0905015
300.2368133
300.5760044
301.1598603
301.6282768
300.6463194
300.5769118
300.7877369
301.8408885
301.2040592
300.8689268
301.4545369
300.6979787
300.1323475
299.428522
300.3013551
301.2259178
301.3521762
302.2117534
300.8655366
299.8150906
299.9787357
299.4933934
299.9805374
301.2531529
301.1507818
300.6951529
301.3951715
300.9860966
300.7102019
300.1937337
300.3301302
300.2433979
298.8603858
299.7710088
301.1313753
302.5371861
302.2293759
301.4198057
301.4728272
300.6552893
301.1517451
301.2108112
300.0479187
300.2550515
300.8208282
301.7040685
302.6003715
301.6208938
300.1510201
299.7146074
299.3872283
300.7491788
301.8036326
302.3455145
301.5835261
301.43879
301.6408738
301.1360546
300.8731096
300.5508092
300.7272455
302.1402321
301.4531196
301.5120006
300.0323837
300.969711
301.9942842
302.5141234
302.5885376
302.4703047
302.3676197
302.6885505
301.5265478
301.9834567
302.1324227
302.9783143
302.0609025
302.2671025
301.2732432
300.7706039
299.8786487
299.7725812
299.1080529
299.080723
299.6320228
300.4620836
299.0142927
299.0867266
299.6728077
299.9110644
300.7587031
301.3838542
299.638421
300.7055768
300.9388954
299.4674204
299.9280889
300.8555339
298.8313261
299.345871
300.3994592
302.0286626
301.2770399
300.3643492
300.0213528
300.064735
301.7885991
300.5577199
299.9485708
299.8659472
299.5981365
300.5178084
300.8682909
300.5538147
299.8751348
300.3252575
299.9504216
299.6944253
300.8659015
300.7921812
300.3679759
298.9218676
298.4935791
299.6721901
301.0909052
301.80065
300.743912
300.2137341
299.8507117
300.3263398
300.7991849
301.0228889
299.7869383
300.5915389
300.5263576
299.7261092
299.6187344
299.6316472
299.7908695
300.0377131
298.6244075
299.2284757
300.5636741
300.9331465
300.7743745
299.5279099
299.2117063
299.8712347
299.2479723
299.6152646
299.2699986
298.6968342
299.2819422
300.0534172
298.4229466
298.6489717
297.5036739
297.6656568
298.2210853
298.7764652
299.0202153
300.6797442
300.7417962
302.05675
302.1547309
302.3838712
302.4280675
301.4376635
301.5420576
301.1888614
300.203402
298.6732572
296.9922431
297.8043902
299.1661465
299.9196012
300.5778586
299.5841673
299.7506857
298.8214584
300.8188144
300.3073671
299.7599844
300.1591057
300.0330919
301.15785
300.2003058
299.6086513
299.9841202
301.8734979
302.6415456
302.3131467
301.008276
301.2425281
301.4881281
302.142119
302.5525944
302.0667913
301.4304388
301.5275516
298.9344978
298.4796063
300.2140986
300.3581579
300.384936
300.3314019
299.9685096
300.4230656
300.997816
300.934826
299.7457966
300.0267718
299.8804364
299.6051764
298.8872006
298.4475034
298.469951
299.2821615
300.1179172
299.4430101
300.5806852
301.838783
301.4919146
300.6535597
299.8227542
299.5912809
301.0064104
299.7011698
299.2764531
299.059057
298.6340114
298.9941213
299.6089948
299.3122245
300.536023
301.5745494
301.2668417
301.0931553
300.5852381
299.5291278
299.9518648
300.5255893
299.5595664
298.593305
299.1704708
299.0373227
299.4981695
300.2868868
300.8778972
301.7392567
301.0469582
301.0611308
301.4287987
302.0804415
301.6557087
300.3779506
300.2051744
300.6191812
300.1140171
300.5143168
298.6963499
298.7850617
298.6465466
298.1297654
297.6131942
298.063195
297.5116236
298.6828655
299.6019073
300.0970889
299.7913234
299.2425277
300.5656623
300.5572234
300.4010747
298.7820211
299.04719
299.0804282
298.8909051
298.3254309
303.1237927
303.0235757
302.1516933
301.4268318
300.1573085
299.6869358
298.8850793
300.1520762
300.9202021
302.0241692
301.0466072
300.7718466
300.0446381
301.2704144
303.344627
304.0551411
302.3971515
302.2025308
301.0346193
301.7712666
300.9637072
301.0182565
300.8081488
302.2778294
301.9826936
300.5370848
299.0945172
299.2908914
299.2418885
298.5490273
298.6972078
298.4835778
298.6258766
299.3556216
300.0089025
299.9381726
300.3821798
300.540367
300.4756666
300.0539468
303.0591458
303.3248837
302.7795312
303.0216645
302.2570703
302.3193255
302.7843117
300.5194775
300.9239617
301.5359683
300.3538883
300.8170437
301.1975982
299.8914804
300.1369741
300.7217838
301.4040824
302.2270107
302.9132678
302.904829
303.2697903
302.4070625
302.0173792
301.4639661
302.7179285
301.7069942
301.8058949
301.9342641
302.7511012
303.6641685
302.9105928
301.1925125
301.5028751
302.1276658
303.7325536
304.1768102
303.2640434
302.3018904
302.2946154
303.2287784
301.3941627
300.0752789
299.612735
300.673297
300.8339787
301.7228048
302.5881363
302.6230168
302.333006
301.9836752
301.5021113
303.0933501
303.2493531
302.1064138
300.8138704
300.3322058
300.4093724
300.3157591
300.0295833
300.6650606
301.8445642
301.3777306
301.0272203
301.66716
300.8923242
299.6875432
299.9057162
300.0201931
300.2622334
301.3876455
302.6441608
301.8340427
300.633204
299.0175278
299.7448768
299.3565814
300.2154672
298.7922753
300.6186491
301.5529588
299.2997723
299.0369977
300.4100555
301.1627309
300.0087753
299.6962962
300.4428151
301.9957261
301.2806739
300.8454937
299.9147255
300.2991093
300.8354014
301.0066726
301.3937779
301.2196615
299.9246399
299.1194314
299.4879382
299.7794238
299.8405603
301.0824028
300.4358608
300.0702586
299.9977777
299.9206113
300.7232721
300.5710472
299.9150716
300.7754497
302.3697484
302.010271
301.8596784
300.1427756
301.127643
300.8641342
301.4318121
300.7885265
301.2448301
300.2786307
300.7231558
299.9424727
300.1023915
299.3685788
299.5778771
298.6491343
299.8978795
299.5589921
299.0854155
299.6559637
298.5275679
299.3560355
299.3540633
300.277832
300.7346476
300.7472683
301.8431489
300.8026242
301.3682294
302.0433124
302.5794736
301.736919
300.635612
300.260098
300.8155114
301.3949013
301.7661809
301.6555154
301.3805926
299.7320452
300.5816303
301.7925528
302.5269067
301.4872922
302.4043339
302.7535825
302.3913724
302.353475
302.2738032
302.075583
300.1530329
300.2032913
300.732015
298.9435308
298.9949093
299.5642629
299.3786868
300.9672299
302.3679484
301.336848
301.293339
301.773124
301.9570713
301.6995467
302.0753297
302.4026244
300.0250664
299.0987876
299.7626142
300.2862669
301.9962543
301.1009849
302.2948921
302.6613951
302.8860217
301.9191815
302.4110329
302.0629146
299.7288974
299.3173819
299.5913886
300.6790514
301.8083347
301.258768
300.5271422
300.3403207
301.0883641
299.9382612
299.3103739
299.9303342
301.4213363
301.820955
301.8812214
302.1310543
301.5211036
301.0447394
299.9534634
298.957856
299.9044926
300.6919515
300.907551
299.6998257
299.4109258
298.5544889
298.8848854
300.2509155
300.8588607
300.626906
300.6682842
300.2361542
300.8037066
301.5733128
301.3762928
301.1641253
300.7738909
300.8891799
300.8137005
301.418114
301.4439717
301.8221195
301.5948408
302.5733359
301.3251695
301.8951353
301.0737213
300.0739241
300.1472304
300.3543147
300.5631776
301.8387633
300.3234562
299.4460647
299.8052514
301.0650134
300.2867477
299.4470927
301.6312871
300.7446692
300.6842683
300.3608111
301.5270287
300.6120245
299.9843815
300.1205631
299.3813655
299.6551454
301.0936497
302.29309
301.0780382
301.5496327
298.3824657
299.0844512
299.5939871
300.4352852
301.210903
301.3238
300.6106092
299.180624
298.6754429
299.1402115
299.0942657
300.0813858
300.3083041
299.3898208
299.3805327
299.8355545
299.5279963
299.853775
299.2965353
298.1666999
300.5375298
300.843779
301.6365532
301.1027884
301.1487955
300.9324273
301.0376881
301.9895917
301.6433988
300.3076843
300.9312268
300.7365073
303.1334958
302.6447046
301.3103733
300.8058492
301.5624309
301.3931601
301.7590877
300.566265
299.7199014
301.3205005
300.5016707
301.3177875
301.0583662
301.4872445
301.8267811
300.4781761
302.4203936
303.0681352
303.738719
302.1661752
302.0552493
300.4557655
300.0286597
299.1823424
299.3996389
300.052113
300.0393866
300.0399098
300.1741689
300.5439364
300.8277037
301.2174685
301.7302907
301.4290821
300.5846829
301.0186875
299.0557499
297.7804806
298.6290782
299.4047578
299.7732576
300.4628537
299.824913
301.0784345
300.7584061
301.3461874
301.4949139
301.1521376
301.2041128
301.257256
301.6353193
300.4016657
299.9274538
301.845982
302.1542574
301.49301
301.4281603
301.763815
302.8807333
303.017989
302.2705003
301.7018007
301.1935005
299.995121
300.9120708
300.9098706
300.9973894
301.7295087
299.8011716
300.7377642
301.2665564
302.438006
301.8041675
299.9546909
298.5409922
299.0637762
300.7685669
300.739618
300.0745594
299.8808795
300.182645
300.7323617
300.2469612
300.7020313
300.7309187
301.2843292
299.9926513
299.5864357
299.5368592
301.6817902
301.45507
301.2538227
301.5478142
300.6953942
301.433784
300.419807
300.9924664
300.2923274
300.1505561
300.6275677
300.8482015
301.5061257
301.6212684
302.1062674
301.150909
300.5420673
300.4175345
298.8327236
300.6948443
300.4554015
300.5358121
300.7765186
301.7416841
301.5930468
301.0555427
299.2330173
299.382091
300.5165144
301.7665743
299.8816849
299.9158384
301.1048463
301.332727
300.3549146
301.2823744
301.0827302
301.190327
300.1916477
301.9141559
301.1756113
301.4384994
301.406146
301.3390314
301.2755479
301.4210131
301.9410241
301.9861853
300.5919834
301.3511393
301.3361818
299.9214587
299.5493519
298.5052374
298.5596816
299.9183692
300.9312303
300.8313964
301.7853757
302.3032175
300.756745
300.0291764
300.3354236
300.2668048
300.2505073
299.0792798
299.4902947
301.2523473
300.7816246
299.9708179
298.592694
299.1138616
300.3403809
300.8634816
301.2497341
300.7882699
301.6513681
302.3934325
302.7243253
301.0760204
301.0833055
300.9051371
301.6132254
300.0064343
300.5979691
300.1388534
300.4543474
301.0518603
301.7037813
301.9658992
301.2838246
299.597516
300.5238706
301.2534627
300.6544412
301.1063627
301.0752522
300.8454386
301.9724739
300.8225645
300.5866508
300.6007427
300.2293394
299.2335107
300.5767547
301.1769933
301.3528387
301.9130664
301.8630898
300.4573932
300.8942956
300.6674993
301.3608615
300.6650854
301.0768726
301.1375794
301.123615
300.7836616
300.0327126
298.9190811
298.4018692
298.6392821
299.8882203
301.6629394
300.8239904
301.3711071
300.7350956
301.919847
301.5824398
301.7865678
300.2856052
300.1740769
299.7360453
300.2976006
299.0699188
299.392191
300.9112268
301.0449936
299.7814491
300.8108158
300.7992568
299.7450865
298.5865577
300.8644061
301.5732676
301.8044196
301.2859543
300.5501363
300.0981097
298.8853311
297.3056798
297.6125139
299.8682157
300.3688463
300.1710916
299.6166628
298.8065849
300.0426117
300.593693
301.2060974
301.5962062
300.8879969
300.8054859
299.1345725
299.0427498
299.1147968
299.9100183
300.2308435
299.776799
299.5022861
300.5499408
301.9702386
300.5363158
299.5125537
299.7054432
299.3987168
299.911749
301.514473
301.3632172
299.725733
300.0015302
300.7405496
300.9295744
300.950941
301.3500544
300.9644572
300.3841392
300.213134
299.6227462
299.6701083
300.1242715
299.6672948
299.2556611
299.775954
299.7596501
300.6317823
298.6688104
299.0711337
299.7814258
299.8696077
300.5023426
300.1366403
300.990995
302.3292995
302.4844073
301.2891891
301.879857
300.8568953
300.7743412
300.8153176
300.2588608
300.8643438
301.0313348
301.3227402
301.7125767
301.0594823
300.2935522
300.273747
299.5296732
300.3073979
299.3895219
297.9626092
298.1749014
300.2697523
300.8601278
301.7216861
300.7267232
301.1217018
299.6057213
299.8074304
301.2201721
299.4306777
300.0215548
301.478144
301.2641242
301.089086
300.6613199
299.8870615
300.8776597
300.3125197
300.5104145
300.3882399
300.84546
300.0166259
299.6878981
299.7050036
301.2418375
300.2480485
300.2103925
299.972957
300.0219669
299.4291799
300.7692045
300.7216861
300.799371
301.2895205
300.7813894
300.2357753
299.6545396
299.8603541
300.0165041
300.4037652
299.3194297
300.0041579
300.0637398
301.0039235
299.7971856
299.3349574
299.8451422
299.6219157
300.0438786
299.4331998
300.3783198
301.342105
300.7140396
300.6606529
299.7656981
299.8263857
299.7160759
301.7578657
301.3126642
300.4563174
300.2171488
300.3805891
300.6485996
299.8620031
302.4552487
302.8955036
302.0550646
301.9769673
302.8804048
302.9828382
303.6546623
302.2053122
303.1028197
302.932914
303.1055735
301.3073691
301.2402219
299.1750094
298.1973742
298.1438446
298.4563362
297.7460088
299.7212878
299.7962832
299.7746981
299.9479984
299.5267217
299.7136338
299.5928315
300.2574301
300.702921
300.5625569
298.8950394
299.9262791
299.5621139
301.3662614
299.96102
299.1564221
300.189225
301.9680998
302.4043682
302.1515106
302.5799434
303.1516898
302.0609868
300.8700534
300.5556223
301.1087346
300.4366341
301.628104
301.4924334
301.3224514
300.4759579
299.8305402
301.3596651
300.4193553
300.814733
303.4423538
302.9876245
301.1341677
300.6315713
300.5957991
300.4571109
301.5277965
301.6293859
301.1389047
299.7523169
299.1142473
300.1305775
300.5072585
301.0226148
301.8576452
303.0418444
303.6820388
302.2334219
303.6562914
303.5334383
298.6479027
299.2604369
299.8164653
300.0899426
299.6383722
299.3175326
300.1241508
300.5594947
300.2557112
302.2011445
301.7570708
301.3236181
300.9428093
301.7444686
301.1548228
298.7034577
298.7732182
299.1327723
299.8721014
299.7436728
301.946888
302.0535436
302.1523474
301.823856
301.5204832
300.7764468
299.8620176
298.2451969
298.3681102
298.0522883
300.1354432
301.9556983
301.894588
301.0864806
301.16249
301.8941044
301.3951576
301.3889624
301.8011498
301.0091319
299.7601358
300.4844442
300.9151514
299.7944994
301.0887699
300.780779
299.611149
299.9090645
299.4798101
301.262991
301.5002621
302.1344694
301.394655
300.9707765
300.5122455
301.4664636
301.1435752
302.2205567
301.0035812
301.0621815
300.4247607
300.249618
299.4283188
300.7803513
300.9983231
300.853447
301.6566192
300.9127096
300.7340566
299.6851252
300.3699856
301.3439037
300.3254698
301.5883253
300.7379783
299.8153257
299.9280891
300.1058318
299.9255889
299.6862059
299.2322455
299.825486
300.2153634
299.3851741
299.1432488
299.5144357
299.7907728
299.7510248
300.0372804
300.4288412
299.9031916
299.4894207
298.8320571
298.0604527
298.0735963
297.8407368
298.2079886
297.6926515
296.9581939
299.3438928
301.0497934
300.9514652
302.5485291
303.2402445
301.6650569
299.893621
300.5271866
301.7188475
300.5493926
299.9999032
300.4003189
300.7483403
300.5079822
300.0863825
299.085961
299.197904
298.9300935
299.1219117
298.8978794
299.8610672
301.6224971
301.3814181
299.6177034
300.4413828
300.833373
301.1625808
300.4888292
300.7701997
300.3605704
301.2156774
301.7864599
302.3310808
299.9791213
298.2851548
299.061664
299.9018064
299.7345619
300.8722559
301.1045827
302.2359849
301.1488864
300.7923077
300.2992107
299.6702006
300.7737149
300.5273661
299.3389654
299.8659324
299.1515776
300.074449
300.0373628
300.4894053
300.3488296
301.7408049
300.4186724
300.7205107
300.99039
301.2950286
300.4962393
299.5208503
301.0395623
300.0411023
299.8494912
300.0803382
299.5312959
299.9447965
300.1163184
300.4552224
301.5506041
301.9692954
302.6934596
301.2238996
299.9446915
300.3861498
299.8412145
299.9193008
299.5891513
300.5026831
300.8977812
301.1530333
300.8937578
300.7545072
301.7590037
300.6386672
301.3602182
301.2813615
301.6302057
302.379678
302.2293768
301.7464056
301.1853191
301.2297102
299.8698005
299.9633034
298.8959733
299.6051337
299.1313527
299.5711632
301.2035411
301.3120405
300.747288
300.1532149
300.0940178
300.6884111
299.7242872
300.6958686
299.7142102
299.6725073
300.9002333
300.9775185
301.2509005
301.4836086
302.2155373
301.894385
301.4973268
302.5588743
301.7969906
302.3176245
301.4157439
300.9188235
299.8841255
300.2489765
300.4881212
301.4278232
299.7790181
299.816798
301.1411506
301.4807555
301.6092476
301.3727453
300.7473774
300.490665
300.949948
301.1513363
299.8312407
299.8985057
300.308088
301.3230061
301.4897767
300.0309321
300.6455428
300.9240819
300.7400505
301.49918
300.486164
300.2874413
299.083421
297.5810358
298.9130868
299.5290226
300.4311484
302.2213029
302.2965263
301.0840084
301.4746895
302.2132683
302.2119744
302.1205602
300.937933
300.239202
301.5765057
300.0263433
299.4600194
300.7501784
301.0437823
299.7396363
299.3594292
300.270959
301.0530315
300.3626808
299.5899795
298.1227006
299.1697356
300.1949358
299.9691985
301.8410712
301.9081606
300.897286
301.322341
302.6813062
299.6006898
299.8523436
299.780557
299.4488075
299.7052079
299.4986556
299.8548523
299.9177031
299.0784073
299.8759259
298.7431514
299.1329701
298.2678409
298.3385621
298.7100913
299.419559
300.1196669
301.1074052
300.7889705
298.9367084
299.3355206
300.5256762
300.2791492
299.4173676
300.1765922
300.9159363
299.8930695
299.5688878
298.9014446
299.4719303
299.6086903
300.0367555
300.6732767
300.9352682
300.8344223
300.3059421
300.3492657
299.2304875
297.9323952
297.8695112
300.1911807
300.608617
301.0242286
301.5175919
301.8262628
302.3470135
301.396543
300.2165164
301.1084898
302.2558147
301.2027789
300.6961066
302.024423
301.035999
300.510294
299.4233421
299.971461
300.459477
300.4456303
301.967604
301.7258884
300.4326919
300.649657
299.2189844
299.2222828
299.6709014
302.0566777
302.3412275
301.4984776
301.8594018
301.6457839
301.4261277
300.2376093
300.4466369
301.379054
300.9261631
301.0765254
300.7878928
300.5639833
300.4947243
301.1182022
300.6081594
300.2078977
301.5254963
300.6686502
301.179549
299.8026431
301.4857495
302.2348682
301.2953017
300.5671582
300.2965328
299.9069019
302.0374991
302.8275895
302.3015274
301.9140772
302.809478
301.7381699
301.5105193
300.09231
300.6401544
300.7648386
300.0834209
300.869135
299.5862029
298.8845838
300.0190096
299.9056927
300.1649227
300.5680152
300.2982054
299.7425284
298.8642823
300.0324159
300.0262456
298.7614868
299.0402907
299.081591
300.0107959
301.3550028
300.6461364
301.4675703
301.8356382
301.4477485
301.364576
301.2399032
300.8541937
301.022056
300.5762549
301.0676752
300.8208965
301.0121108
301.0983521
301.7438208
301.1348744
301.4503549
301.6825461
300.7534704
299.7800648
300.5163047
300.1734381
300.6683784
300.5220944
300.7783091
301.5150726
301.3542041
300.5598214
301.2922476
301.9871836
301.979219
301.778716
303.1114012
302.8270128
302.0148112
301.0049375
301.5412975
300.8770889
300.7272782
301.5092958
300.345018
300.2859828
302.002631
301.7559513
301.796725
301.7678693
302.3267637
300.8929845
301.9369356
302.6684683
302.1562803
302.0103406
301.3117731
300.7996013
302.2216518
302.9447301
301.7503594
301.6105173
300.8916482
300.2393698
300.6378174
301.0557634
300.7385774
300.3768839
300.3349819
299.83744
299.1288727
299.5373072
300.6884157
300.2499356
300.9604251
301.2890599
301.3416926
302.2512671
302.9505638
302.7084829
301.6717513
300.9916218
300.7891819
300.4451966
301.556298
301.9922949
300.811199
301.3424289
300.0007508
300.6769642
300.9192677
302.2009488
303.0778903
302.3291754
301.7252032
300.9232433
303.3114909
303.0137145
303.264695
302.9353355
303.1183778
302.6377772
301.2066655
301.2702591
301.5764999
301.3359482
302.0058465
301.8224547
301.7337879
301.9883212
301.4643912
301.2178086
301.137767
301.0180663
300.9058589
301.6439416
302.1684135
300.0314152
300.7924889
299.9849918
301.4741561
302.4084582
301.6754395
301.0024022
300.1978072
300.5596933
300.0332653
300.3349257
299.6217027
300.5335437
300.6838656
301.1872178
301.712768
302.2856624
302.6422926
301.4697072
301.0457344
302.0908295
301.9701816
302.7558946
301.4941881
300.2229261
300.3425395
299.8093459
300.2645412
300.2262901
300.1266048
301.234395
300.8402184
301.1446086
299.8338187
299.0995259
299.2999835
300.1684596
300.4925284
300.3809265
299.1637827
299.3899343
301.1046675
300.2579659
299.9429283
299.3362335
299.2215707
300.3845235
301.001482
300.4913561
301.2856721
300.7348988
299.7064682
299.2000855
298.454267
298.9279914
298.2413091
299.2055453
299.548273
299.2417719
300.1301316
300.1404957
299.0516945
297.910034
298.0659983
299.7842442
300.2082589
300.8904342
300.0622768
298.5207702
298.9187454
298.7450377
299.4228532
300.1934681
300.491835
299.8845477
300.0443268
299.9154741
300.2461194
300.7361439
300.825013
300.5659074
301.1045341
300.8601194
300.628924
300.1638769
300.085181
299.972425
299.8803989
299.2812471
300.1504011
301.7456166
301.1597702
300.3417112
299.3291786
299.7225143
300.508002
299.501498
299.3290606
300.4066861
300.6741947
301.3698968
299.7112711
299.5674843
299.2960661
300.2555961
302.2663605
301.2181195
300.6343231
301.6629245
301.5317198
302.5224327
301.6962131
299.9445861
300.7657967
301.5750162
301.4745632
302.2891421
302.1753842
300.9678003
299.7997115
299.9697416
301.1873941
300.4907527
299.9808879
299.6380468
299.3871367
299.9908279
301.8483413
301.9653004
301.6962195
301.3328615
301.6175009
301.005652
302.0922922
302.0224294
301.5420329
300.5943391
299.5232882
299.8261806
299.8411717
299.8882478
300.2491735
300.811921
300.2508894
300.8747148
301.2170885
300.8237012
301.2638091
301.2304719
301.3012252
302.0284118
300.1789981
300.0987124
299.7285075
299.0575927
300.0222662
299.9127679
300.140282
300.8673241
301.8902913
301.1586419
300.6234396
300.9783875
301.7190686
302.6589609
302.3318393
301.4441586
300.3814154
300.5587227
300.5444462
300.0269968
300.6711793
301.0115038
301.8934198
301.6171124
299.7616286
298.7120976
298.1069344
298.4055912
298.7248863
299.8479639
300.6483486
300.7597675
300.5525917
300.8701407
300.4235718
300.418211
299.5389297
298.1871764
298.4697918
299.3413154
299.8811945
299.9325775
299.7211323
300.4550769
299.6877521
299.5510714
299.7159081
301.3776524
302.6044871
301.374128
300.0917292
301.0640096
301.4772199
301.6054221
300.6809668
300.5409771
300.8741433
300.2955263
299.6373258
298.9982084
299.1682344
299.8047779
300.8447359
302.0988094
302.8728437
301.4605554
300.9628912
300.8582678
301.8087115
301.7473928
302.055554
300.8835045
299.8861396
300.6047077
299.9561556
301.0917767
299.2575191
299.0936272
299.1193935
299.0366106
299.4327625
300.2426299
300.7950543
300.6102585
301.025663
300.2526987
301.2980855
301.5468712
300.8976674
300.8336891
300.0782286
300.6561927
301.6087982
302.1889815
302.5986661
300.2809763
301.3520174
301.1243268
300.7656838
300.1430599
300.4199517
301.6813543
301.5172751
301.4678933
301.872376
302.3717825
301.8150443
301.4479267
301.2237494
301.5848927
301.407612
300.8900389
301.8075793
301.9343028
300.7381874
300.4240573
301.294961
300.7931211
301.8677447
301.7996693
302.3139265
302.1541237
300.9099443
300.3447241
300.1952513
300.4300343
300.5776899
301.1465185
301.3174245
301.8091955
300.2432574
301.1950828
301.3088441
301.597529
302.0258466
301.696974
301.5850696
301.9582501
301.1927554
301.066953
300.0957508
300.3233683
299.8704795
299.5784951
300.3591176
299.8395149
300.9064621
301.3489785
301.3624753
301.2111223
301.4481094
301.7672177
301.0761377
300.5607149
301.044387
301.9794297
299.5775202
300.9422133
300.381635
299.1897332
298.7839545
299.6810283
300.0923344
300.7605913
299.8746454
298.930933
300.4182987
300.3254179
299.6558882
301.3498198
300.697434
301.4970304
302.009756
301.7220284
301.4686597
299.8121766
301.2903774
300.8679481
300.9968076
301.2653007
301.9572294
301.2297044
301.5511404
302.3051973
302.143381
301.9274669
301.9632779
301.3172627
301.881059
301.873722
300.8610695
300.6891934
299.9047063
299.6241691
299.7354863
300.3481785
299.1514724
298.9327632
298.7703744
299.5777274
301.076506
300.5933016
300.1363924
301.2335473
300.8759248
300.5983338
301.3468514
302.2919666
303.1706725
302.1082987
301.0509891
300.850683
300.1002041
299.8990605
299.5422922
299.4108555
300.5029591
300.6205585
300.9168442
300.6246816
298.9196044
300.0124455
300.9316155
301.9934141
301.2152073
301.9792581
301.7841015
302.151965
300.5984218
300.255261
300.2310967
299.708149
299.8152031
299.654962
298.9922529
300.2580623
300.7367624
300.4105109
300.6191176
300.9504896
301.3357536
301.2241079
301.0144611
300.1924221
300.4556888
300.4475497
300.5891274
300.1549103
300.6393344
300.9131045
301.766824
302.2022718
302.2728073
302.1198887
301.2557966
301.4086857
299.8126593
300.5160172
300.0081231
299.0247875
298.7838942
300.0602661
300.360495
301.1424637
301.5524706
302.4022708
302.3468268
302.2596573
302.3612899
302.102231
302.5190551
301.6990825
300.008892
299.1310909
299.2188377
299.4116332
300.929019
300.6444775
300.4240952
299.6347666
299.7787306
299.7095846
300.15176
301.1726595
300.9290623
300.2702352
299.4180433
300.554133
300.6574435
301.6977443
302.1425341
302.043768
301.7337458
300.8553015
300.4956546
300.5991184
301.8435565
301.7473803
300.5827691
300.0800273
299.6784098
300.2185571
301.0053805
300.6116991
299.7207914
300.4886397
301.6416586
303.1037997
302.0598684
300.6068829
300.7664341
300.7499041
300.8947973
302.015866
302.5121897
301.4306674
301.539001
300.2992106
300.9513634
301.0819152
301.7577608
301.693473
301.0001694
300.1628175
301.037621
302.4035927
302.3509613
300.8006944
299.5010117
300.3436796
301.4273259
302.3219126
302.3182933
300.5681134
300.7133376
301.196561
301.5782601
301.1498982
300.6585857
300.5816238
299.6171436
299.5917074
300.2269297
300.5756136
299.4314196
299.7304884
300.0389921
298.6991352
298.6177391
298.3836247
298.3567939
299.7596569
300.493637
300.9842229
301.2607567
300.8542837
301.9800035
300.7079105
299.0210251
299.1076259
300.9949684
300.7021538
299.5765398
299.1722017
299.8535113
300.0733166
299.8554281
300.5711938
299.6229117
300.3303606
300.957039
301.500039
303.2897667
302.9878109
303.8345896
302.192035
300.9877976
302.0011899
300.7724969
302.0972363
300.5398856
301.4618159
300.7435037
300.2262505
300.5667582
301.5395685
301.6263547
301.6397013
301.2882206
301.3796597
301.0891596
301.0207844
301.2984573
301.6637539
301.7511835
301.4291711
302.4837667
301.876966
302.9360146
301.4577018
301.2679671
301.0858374
300.1275433
299.9976083
299.2661556
300.8062809
301.7256731
301.681049
301.4268203
301.3114257
300.8310485
301.6315871
301.1213075
299.4397685
300.1098615
300.6450457
301.1669541
301.5016029
300.8210596
301.6463149
302.0749433
301.7883496
301.5571955
302.4245681
300.8850271
300.2404289
299.3242744
298.7576958
301.0499054
301.1205825
301.1288204
301.5855348
300.4780894
298.9772924
299.6154792
301.3319652
300.511958
299.9395604
300.2335543
300.4339918
300.2515912
300.7584828
302.015726
303.2198428
303.0695932
302.3903419
302.0120027
301.1598916
300.1904673
299.8538841
301.0581669
301.2157441
302.4926718
302.1999038
301.4467459
300.3822737
300.9517589
300.9925202
300.7419808
300.4920012
299.9771882
299.3935237
299.6131404
299.8590007
300.042423
300.9841281
300.6756632
300.8560898
301.4880475
301.1031775
300.8959029
300.0733532
299.1768478
299.1978264
300.5323216
301.4716223
300.8554118
300.5318456
300.2589818
299.7911896
299.9592825
300.5323428
299.4712961
300.3830902
301.7942591
300.3752758
299.5653902
299.901564
300.7841554
301.4035966
301.6939869
301.4841358
300.7282446
298.911853
298.9557964
298.9299341
301.0275279
299.8364222
299.8032495
301.1483338
300.733788
300.2711864
300.4228889
300.6116736
299.8851535
301.1260528
299.9013196
299.2014979
299.0376382
299.2639256
298.3623843
299.0566435
299.8903624
301.3020043
302.38269
302.640806
299.671075
298.7715317
299.4502657
299.2329868
300.8643968
300.5983348
300.5039595
299.7259631
301.0003489
301.7781525
301.3237834
299.7346448
299.4039945
299.2651721
298.4060903
298.7920925
297.9454832
298.0024226
298.5272529
298.5162448
299.8847774
300.1213794
301.3622493
301.0556803
300.2207916
300.7241446
300.8104929
300.0768145
300.7863216
299.8108562
299.6720568
300.4914165
301.2826746
300.7103218
300.6594105
300.208574
301.0203049
300.8880052
300.9325106
300.1100439
301.8335343
301.4667124
300.8014328
300.5766312
301.741737
300.0931321
300.4149583
299.4340609
300.0788815
298.9350701
299.6229624
298.1233666
298.059302
298.9046125
299.6247818
300.8003191
301.1335916
301.657148
300.9130663
301.7869905
300.5077761
299.6668743
300.1928608
299.6947042
298.9316002
300.277835
299.9577231
300.8557512
301.8130131
302.5946513
301.492948
300.6242822
300.542237
298.1473487
299.0307473
299.8346319
299.9363371
300.3387228
301.9146531
301.5229118
300.3643666
300.952852
301.2663354
301.5696173
301.0675648
300.9763962
300.668819
300.8942909
299.7838259
299.7034917
298.6126311
298.2056278
301.1258487
302.117545
300.9559578
300.2841047
301.7914189
300.6557292
300.0701959
300.0074796
300.563441
300.9486399
302.1809341
302.5187033
302.9968476
303.6436058
301.0456427
300.1388621
300.2861679
299.7036025
300.0520935
301.61903
302.0838876
302.1091944
302.0225658
301.8631564
300.4099971
299.95424
299.5455327
300.999429
300.7925353
301.2693734
302.0740598
302.6369296
301.8396964
300.1772596
299.4098161
299.8206286
299.0562195
299.7670259
300.3773562
301.306932
301.8088004
302.4792595
303.4591962
301.9643635
302.1444967
302.0207946
300.7286276
300.4110814
300.6806418
301.8085982
301.7074089
301.8042849
301.1134743
301.4380036
300.0252879
299.802896
300.158982
299.7794801
300.2017482
300.5775881
301.0571734
299.9907462
299.711862
300.0351374
300.9281862
300.2896423
300.5249126
300.2044211
299.6990242
300.6721437
300.8673224
300.7174997
300.2326668
298.923253
300.0211121
301.1935571
300.9983039
301.4393036
300.4825678