/*--------------------------------*- C++ -*----------------------------------*\
| =========                 |                                                 |
| \\      /  F ield         | OpenFOAM: The Open Source CFD Toolbox           |
|  \\    /   O peration     | Version:  v1706                                 |
|   \\  /    A nd           | Web:      www.OpenFOAM.com                      |
|    \\/     M anipulation  |                                                 |
\*---------------------------------------------------------------------------*/
FoamFile
{
    version     2.0;
    format      ascii;
    class       volScalarField;
    location    "0.02";
    object      p_N2;
}
// * * * * * * * * * * * * * * * * * * * * * * * * * * * * * * * * * * * * * //

dimensions      [1 -1 -2 0 0 0 0];


internalField   nonuniform List<scalar> 
5120
(
0.3254712536
0.3255791266
0.325657246
0.3250542715
0.3243475858
0.3248473968
0.3254682669
0.3259557206
0.3245638585
0.3250712293
0.3254654969
0.3254157711
0.3243434892
0.3241468367
0.3251769774
0.3245655889
0.3235361016
0.3245580932
0.3237569314
0.3242277761
0.3226679207
0.3217729784
0.3226860635
0.3235722499
0.3235920072
0.321633946
0.3215309179
0.3224782047
0.3237040398
0.3224010467
0.3247639264
0.3251073858
0.322790451
0.3232318093
0.3228204661
0.3234926706
0.3220994411
0.3239284052
0.3229274295
0.3232441261
0.322643685
0.3240956944
0.3227342259
0.3241885504
0.3245915245
0.3242172843
0.3236204177
0.324583625
0.3241111393
0.3245116063
0.3238153615
0.3247037078
0.3248581938
0.3238531149
0.32451861
0.3238477373
0.3241576844
0.3228595528
0.3232426716
0.3230164765
0.3241023197
0.3222641318
0.3234320125
0.3244581872
0.32275349
0.3220778121
0.3227603165
0.3229644857
0.3232647658
0.3234134966
0.3231634534
0.3223298081
0.3212921396
0.3206980965
0.3209188306
0.3207997685
0.3214761057
0.3234318309
0.3226076278
0.3219808953
0.3229667018
0.3237472112
0.324322163
0.3225911574
0.3234004585
0.3225702386
0.3222470488
0.3216705619
0.3223073556
0.3224251255
0.3230446326
0.3244261539
0.322416289
0.3234956112
0.3237582224
0.3220337753
0.3220612784
0.3221258259
0.3215819613
0.3232959232
0.3205820461
0.3215008699
0.3232237516
0.321618175
0.325077261
0.3248299599
0.3230252085
0.3216254866
0.3202842951
0.321236663
0.3206851238
0.3221386097
0.3218547038
0.3229302345
0.3218946503
0.3219573382
0.3211363975
0.3209112431
0.3216944539
0.3213498328
0.3210212701
0.3191674343
0.319552373
0.3212685219
0.3212109172
0.3212847413
0.3210093346
0.3220948666
0.3218370955
0.3210395325
0.3200888362
0.3220544824
0.32308512
0.322925213
0.3219888853
0.3229839129
0.3222294536
0.3213910852
0.3219776372
0.3203743908
0.321963583
0.3228046702
0.3226323957
0.3220632927
0.320471736
0.3203690967
0.3194024868
0.3198452388
0.3195606001
0.3207410995
0.3211146977
0.3200695957
0.3211845143
0.3233975585
0.3248039125
0.3244119792
0.3242797859
0.3238107337
0.3234856044
0.3225055755
0.3244079207
0.323163137
0.323665851
0.3211634821
0.3211193915
0.3230463718
0.3228915386
0.3215624034
0.3215521185
0.3202262582
0.3219789447
0.3218265829
0.3217075536
0.3215850768
0.321548866
0.3226931435
0.3246732462
0.3237597127
0.3236355538
0.3254395287
0.3216833501
0.3213187642
0.3213338131
0.3211306193
0.3218273931
0.3206266722
0.3247908642
0.3247713968
0.3238815909
0.3215663723
0.3187506003
0.3206521977
0.3219696269
0.322508449
0.323185471
0.3215548568
0.3194384567
0.3201830081
0.3219875609
0.3227297323
0.3235802976
0.32562989
0.3246171388
0.3261124396
0.3242082152
0.3228431715
0.3221029929
0.3208462506
0.319339196
0.3200995532
0.3228385633
0.3236592663
0.3234269087
0.3240913736
0.3223210429
0.3215119588
0.32298105
0.3225575698
0.3212029827
0.3213687149
0.3224714519
0.3220626172
0.3225008298
0.3229082532
0.3234249439
0.3241391875
0.3247964352
0.3231164405
0.321793292
0.321911351
0.3214017655
0.3232525994
0.3222001097
0.321561506
0.3229118021
0.3225503092
0.3228368126
0.3229081232
0.3221297204
0.3213550678
0.3226349913
0.3233847519
0.3236465074
0.3229435933
0.3227746297
0.3228035954
0.3232539994
0.3220113533
0.3223154061
0.3222086839
0.3227663345
0.323663039
0.3235015764
0.3247703032
0.3244357742
0.3233219391
0.3239771988
0.3229726242
0.3235224979
0.3238666241
0.3264784443
0.3261982175
0.3248395174
0.3253274042
0.3243652027
0.3227177275
0.3210067346
0.3223141356
0.3227204402
0.3236359583
0.3248095415
0.3245464079
0.3255490604
0.3260048748
0.3246341827
0.3245385045
0.3227873149
0.3234336593
0.3239352956
0.3223518247
0.3218524618
0.3224017586
0.321901139
0.3217832774
0.3232820671
0.3238271936
0.3224474592
0.3226229858
0.3245430971
0.3243430384
0.3256070031
0.3244066542
0.3246897414
0.3238561557
0.3235879818
0.3213698106
0.3227595534
0.3248575593
0.3257792706
0.3244099827
0.3246966706
0.3248065409
0.3246519488
0.3242849477
0.3234120621
0.3227893509
0.3245796853
0.3252338185
0.325862447
0.3251596546
0.321744695
0.322016028
0.3223291266
0.3226554098
0.3215533914
0.3226638515
0.3239573255
0.3236058326
0.322778842
0.3231995827
0.3245915908
0.324851296
0.3228433255
0.3224617157
0.3237696238
0.3252641753
0.3237647081
0.3225159269
0.3228106794
0.3246573329
0.3260669525
0.3246000039
0.3233398525
0.322135798
0.3240113621
0.3238169353
0.3222770322
0.32382155
0.3238065155
0.3232487041
0.3231207326
0.3218741578
0.322919728
0.3238526635
0.3244264045
0.3251765014
0.3238757671
0.3235115358
0.3231123205
0.3237658251
0.3224326096
0.3237381907
0.3256471409
0.3251300123
0.3227507515
0.3223506033
0.3238713538
0.323002034
0.3219123546
0.3221439151
0.3220390641
0.3246958508
0.3245914836
0.3241811431
0.3244377538
0.3241011978
0.3233907258
0.323096431
0.3233197483
0.3210329859
0.321591876
0.3226211537
0.3236906156
0.3237272254
0.3238647754
0.3254252718
0.3252972859
0.3242574874
0.3239417751
0.3237246349
0.3212853139
0.3221917631
0.3229964112
0.3216914844
0.3219804837
0.3240205701
0.324995862
0.3245198671
0.3239327012
0.3238091701
0.322323743
0.320258872
0.3210346189
0.3208694796
0.321851053
0.3224693537
0.3229148472
0.3206220876
0.3212642935
0.3206926737
0.3237559611
0.3239947113
0.3225969064
0.3220437228
0.3226271068
0.3237712827
0.3253831723
0.3274067357
0.325118555
0.3246705221
0.3237799545
0.3240333319
0.3240330545
0.3227141559
0.3206749549
0.3218160926
0.3206950636
0.3205030315
0.3213195613
0.3231585825
0.3232878583
0.3233658553
0.323409652
0.3231244448
0.3218844968
0.3222836527
0.3237203897
0.3234940495
0.3230535294
0.3224836102
0.3237662203
0.3213875774
0.3218100711
0.3229176164
0.3225976659
0.3215394533
0.3212960496
0.3216273876
0.3215231977
0.3220719599
0.3213270573
0.3204312504
0.3215136573
0.3213725006
0.3220435781
0.3225301565
0.3233540986
0.3231365399
0.3238205439
0.3233418368
0.3242352318
0.3232533777
0.3218705715
0.3229072577
0.3219508015
0.3231479301
0.3238527088
0.3232768912
0.3231322604
0.3224485397
0.3233767201
0.3232849147
0.3226008954
0.3233452682
0.3233999517
0.322805756
0.3216161189
0.3206842085
0.3209703068
0.3220527975
0.3228896398
0.3224723151
0.3241919031
0.3239559718
0.3235020796
0.32401175
0.3230916979
0.3221170234
0.3213071262
0.3239907673
0.3221279453
0.3223524475
0.3216609328
0.321850938
0.3213002735
0.3208320359
0.3213639129
0.322015068
0.320659182
0.3211414612
0.3211950936
0.320515414
0.3215058034
0.322573654
0.3239559453
0.3247042279
0.3241889172
0.3244810604
0.3247413529
0.3241055371
0.3204091368
0.3214675253
0.3218808394
0.3221006169
0.3231912433
0.3231992902
0.3206414867
0.3219817331
0.3232801404
0.3232419993
0.3239236653
0.3234741746
0.3221045445
0.3213687745
0.3200672175
0.3211508029
0.3214808802
0.3228516359
0.3225892201
0.3211598347
0.32338866
0.322358737
0.3224585227
0.3238788529
0.3234235752
0.3233023464
0.3226608504
0.3248745292
0.3246436548
0.3243250419
0.322097502
0.319350387
0.321201511
0.3215673157
0.3227723618
0.3230395707
0.3229034232
0.3227551949
0.3234994516
0.3232398571
0.3224188046
0.3214109992
0.3236460488
0.3235625868
0.3230655988
0.3231454269
0.3238965873
0.3238551741
0.3226967195
0.3223279631
0.322995852
0.3248539165
0.3226607995
0.3219192015
0.3211602555
0.3220152989
0.3219897829
0.3232473568
0.32435001
0.3232342675
0.3243887546
0.3240635184
0.3242010342
0.3237364746
0.3234405963
0.3227799143
0.3215585141
0.3236488118
0.3265165961
0.327153163
0.3257075652
0.3239427631
0.3235435363
0.3236941329
0.324354927
0.3232276767
0.3234829798
0.3242801897
0.3231554256
0.3234581618
0.3209681393
0.3216306024
0.3217522832
0.3232466536
0.3231202551
0.3228391245
0.3229332053
0.3218358002
0.3213406977
0.3234495953
0.3235315214
0.3243122106
0.3235500624
0.3237722995
0.3242924073
0.3234724806
0.3240158054
0.3245435374
0.3235239436
0.3235720078
0.3235770527
0.3240376033
0.3240516066
0.3244284581
0.3247119982
0.3257637067
0.3249014148
0.3258443099
0.3239794322
0.3233445152
0.3231647174
0.3242163761
0.3251536648
0.3231685904
0.3229784546
0.3245313376
0.3244224126
0.324502703
0.3238703748
0.3236263813
0.32496934
0.3229315871
0.3224327342
0.3225332515
0.3222451451
0.3217735647
0.3223259731
0.3245394313
0.3235944081
0.3221235483
0.3236725469
0.3239748944
0.3227084204
0.3233779366
0.3239511726
0.3229522851
0.3227971081
0.3226239747
0.3234359971
0.3253385496
0.3212532403
0.3214287002
0.3222039449
0.3219522891
0.3216253607
0.323500078
0.3239591046
0.3224025257
0.3221410255
0.3229674367
0.3234592795
0.3236883085
0.3254972224
0.3253449895
0.3261548467
0.324413066
0.3249845443
0.3242007374
0.3224799095
0.3227504527
0.3226140683
0.3216469906
0.3226719573
0.3224610986
0.3219853056
0.3223811355
0.323199839
0.3225426123
0.3221770611
0.3223582468
0.3240543929
0.3248135281
0.324055133
0.324216881
0.3250333739
0.3231179864
0.3221725369
0.3221906191
0.3231908628
0.324009797
0.3237082168
0.3239013467
0.3235580171
0.3240920927
0.3241892234
0.3234607337
0.3241669211
0.3218527264
0.3213791667
0.3217458555
0.3204746552
0.3205213259
0.3207349136
0.3208842727
0.3195268348
0.3214913958
0.3232344672
0.3238673934
0.3235455108
0.3229795036
0.3217277438
0.3243539177
0.3246480076
0.3251472494
0.3248900226
0.3232549308
0.32211162
0.3225337666
0.3233020515
0.3222457167
0.3233338717
0.3223104321
0.3199532916
0.322330391
0.323305102
0.3235554895
0.3227862612
0.321660617
0.3215853182
0.3211524088
0.3230682414
0.3230343098
0.3224091253
0.3230196133
0.3220526142
0.3236647399
0.3225139897
0.3228011538
0.3238422011
0.3248017122
0.3256949481
0.324718425
0.3232454045
0.3227249738
0.3215724041
0.320072477
0.3212942174
0.3220852725
0.3233246834
0.3236216399
0.3220388658
0.323101748
0.3244395463
0.3225651525
0.3237947601
0.3234043483
0.3227068632
0.3228652527
0.323824266
0.3236633695
0.3223997234
0.322666354
0.3232186817
0.3232011341
0.3232403738
0.3229326363
0.322959946
0.3238264417
0.321536201
0.3209569717
0.3220705389
0.3212092081
0.3205519431
0.3221425438
0.322890811
0.3210610051
0.3210208101
0.3234396453
0.3246028657
0.3242549553
0.3246294902
0.3237631646
0.3238078794
0.3222783382
0.3209946718
0.321966928
0.3232601575
0.3236123944
0.3228082258
0.3225295681
0.3221177814
0.3241425691
0.3227066614
0.3215679081
0.3203329427
0.3213025912
0.3243429408
0.3232026337
0.322381138
0.3235487356
0.3228547612
0.3225172716
0.3206983576
0.3198678098
0.3217608312
0.3222275216
0.3215933601
0.3193848291
0.3204549728
0.320419467
0.3229601103
0.3235811526
0.3229994577
0.3228981212
0.3232813149
0.3226582325
0.3217829349
0.3205539932
0.3225698519
0.32172235
0.3217808231
0.322586396
0.322041269
0.3221802574
0.3197943063
0.3207044979
0.3221071799
0.3230560555
0.3232847206
0.3225590203
0.3196053033
0.3196638432
0.3216509206
0.3217933362
0.3222066112
0.3221091076
0.3218797928
0.321010818
0.3211184094
0.3225599502
0.3222258228
0.3226283722
0.3224778283
0.3216097016
0.3228565811
0.3224996653
0.321012246
0.3219270293
0.3220769561
0.3212542295
0.3240817301
0.3258022323
0.3232053921
0.3215714456
0.3218709855
0.3238673282
0.3244805291
0.3244877239
0.3247391291
0.3233653733
0.3237776258
0.3233026098
0.3225041033
0.3225596925
0.322767618
0.3234613533
0.323588334
0.3220736742
0.3218603186
0.3227141805
0.3227693026
0.3234344863
0.3237159041
0.3249191431
0.3238794231
0.3233942801
0.3225739541
0.3229810851
0.3230460309
0.3243541054
0.3250729106
0.3237383873
0.3230118162
0.3252219616
0.3243720312
0.3236682044
0.3229401239
0.323056713
0.3232682636
0.3234138342
0.322693165
0.3227647252
0.3216613651
0.321796866
0.3244490885
0.3252403107
0.3238985226
0.3253241943
0.3239927758
0.3230068731
0.3233058316
0.3257350939
0.3250708938
0.3237805735
0.3234133045
0.322770708
0.3226926316
0.3231846024
0.3220044779
0.3223468515
0.3224415396
0.3232014842
0.3238484008
0.321573266
0.3230708238
0.323181037
0.3229049609
0.3230793163
0.3239544861
0.3239914119
0.3229118876
0.3232562777
0.3241819379
0.3243992277
0.3246220619
0.3261332856
0.3263467075
0.3251089845
0.3234862637
0.3219039704
0.3242247155
0.3239225631
0.3254830467
0.3242243498
0.3245579961
0.3251021822
0.3268346549
0.325213628
0.3230548766
0.3243842648
0.3240825694
0.3243233317
0.3229594167
0.3250695574
0.32656131
0.3253530354
0.3257029431
0.3255023801
0.3269116438
0.325598132
0.3233185614
0.3243877794
0.3239512693
0.3256679622
0.3237462333
0.3233269495
0.3222750743
0.3233789616
0.3253795734
0.324933575
0.3230733986
0.3234525396
0.3241655802
0.3239691726
0.3223574071
0.3236592873
0.3236606356
0.3233305303
0.3227068155
0.3227364816
0.3232993021
0.3237944848
0.3224387888
0.3219771428
0.3235592073
0.3216832347
0.3221659976
0.3233155888
0.3242870168
0.3244139018
0.3255508097
0.3258692731
0.326684637
0.3256799915
0.3253372853
0.3261655632
0.3254171048
0.3248730492
0.3242466829
0.3235518545
0.3218927147
0.3210224193
0.322199286
0.3215964435
0.3227219675
0.3225963051
0.3235336033
0.3238045912
0.3235296994
0.3216877428
0.3221907174
0.3218933384
0.3222457606
0.3250047194
0.3242704208
0.3244991079
0.3253605773
0.3261444922
0.3252429028
0.3235402673
0.3248151613
0.3232796768
0.3236174489
0.3227160681
0.3220480615
0.322001173
0.3211727468
0.321429084
0.3207867252
0.3207676974
0.3205558846
0.3206516079
0.3209893351
0.320568396
0.3218672119
0.3232767099
0.3222636015
0.3231168341
0.3249122906
0.3269010274
0.325171669
0.3242080321
0.3242023959
0.3232273744
0.3222311692
0.321876417
0.3202788239
0.3202367378
0.3220235026
0.3215858657
0.3223251798
0.3220045136
0.3219400199
0.322060939
0.3200740226
0.3186586928
0.3199802302
0.3219613488
0.3217460851
0.3229898707
0.322661556
0.3228554984
0.3224693807
0.3230359928
0.3238581305
0.3227807265
0.3232070178
0.3212545527
0.3203921162
0.3212542306
0.3201229153
0.3220765244
0.3238107711
0.3235166858
0.32457393
0.3254257865
0.3237646565
0.3230230119
0.3245521539
0.3237533138
0.3228013638
0.3212520934
0.322103377
0.3233923802
0.3222012764
0.3204060809
0.3201420924
0.3215701869
0.3206334538
0.3208049373
0.3211672705
0.3208280598
0.3223453325
0.3238180948
0.3226749642
0.3227949742
0.3232628393
0.3228903376
0.3223179422
0.3228693111
0.3225587484
0.3222530161
0.3210536584
0.3208896858
0.3218120956
0.3226179707
0.3242177829
0.323899719
0.3226844191
0.3224011202
0.3225054689
0.3220906926
0.3219589135
0.3222391491
0.3230106846
0.3215486238
0.3205690424
0.3213628705
0.3222976999
0.3228667922
0.3213216058
0.3205605807
0.3214924784
0.3220547768
0.3227727556
0.3227238533
0.3219244228
0.3229898851
0.3222588957
0.3208887939
0.3223386662
0.3223038934
0.3212364212
0.3212146452
0.3209274157
0.3220108677
0.3203475299
0.3206878344
0.3218680722
0.3216545135
0.3233877795
0.3227569913
0.3233679613
0.3242927286
0.3249759319
0.3242368482
0.3230754202
0.3224095737
0.3220443825
0.3232560243
0.3218725109
0.3226068443
0.3226726677
0.3216512365
0.3226034475
0.3225510817
0.3213402885
0.3228086968
0.323505643
0.3256609159
0.3232982187
0.3244369157
0.3231895495
0.3228201663
0.3221590167
0.3196079692
0.3208465749
0.3222692862
0.3216897805
0.3223772524
0.3216797777
0.3203654311
0.3210863913
0.3214990597
0.3226123255
0.3241934812
0.3256769561
0.3250724784
0.3248257761
0.3233482797
0.3225677125
0.3220370728
0.3211710701
0.3207243529
0.3219657634
0.324179086
0.323998967
0.3238149841
0.3241514865
0.3240696769
0.3225643347
0.322994165
0.3249782305
0.325183414
0.3239591378
0.3229256686
0.3225664458
0.3239344416
0.3222876718
0.322206651
0.3242859831
0.3229947702
0.3230892091
0.3244357651
0.3239906804
0.3222848058
0.3237116356
0.323714244
0.3225363286
0.3226388981
0.3233151432
0.3254680905
0.3247064979
0.3231052573
0.3228629006
0.322393652
0.3227006288
0.3239810166
0.3251271704
0.3247172469
0.3253231852
0.3247199005
0.3244820272
0.3236881368
0.3219931574
0.3211855335
0.3222087934
0.323697001
0.3247185609
0.3265524847
0.3244864915
0.3214108751
0.3217805768
0.3222428258
0.3229928328
0.3218783011
0.3219155362
0.3235270789
0.3252800819
0.3252945983
0.3245784596
0.3247496242
0.3248042628
0.3267006418
0.324388842
0.3244413316
0.3234295975
0.3225051799
0.3239160496
0.3217709288
0.3217443889
0.3229577064
0.3237162621
0.3230392024
0.3228897701
0.3253451666
0.3249028646
0.323928487
0.3232570538
0.3244406221
0.3240734041
0.3259902632
0.3248114132
0.3233578623
0.324032257
0.3247370114
0.3236730754
0.3236746615
0.323082652
0.3239134402
0.3244564768
0.3243131012
0.3239446337
0.324431588
0.3241007648
0.3236693913
0.3225933608
0.3232466837
0.3246209266
0.3259175046
0.3235009416
0.3214045135
0.3214108464
0.321337218
0.3231122346
0.3238692396
0.3223910592
0.3235818808
0.3226100144
0.3231167945
0.3234758098
0.323762373
0.3241285754
0.3236378565
0.3242922363
0.3245047304
0.3245722712
0.3239799628
0.3236082432
0.3230885687
0.3249891791
0.3266316098
0.3255175325
0.3246053356
0.3236107616
0.3236917074
0.3254563968
0.3258891227
0.3257663835
0.3241066013
0.3233932749
0.3220144521
0.3219508911
0.3229727165
0.3231144177
0.3244886448
0.3233522683
0.3231283882
0.3228185849
0.3239562804
0.3250924297
0.3247473179
0.3247585833
0.3243466766
0.3227166896
0.3210872124
0.3215539474
0.3231275525
0.3230745347
0.3244779603
0.3239600834
0.3241982465
0.3241450952
0.3241224181
0.3240631032
0.3229027089
0.3224617618
0.323733229
0.3237601897
0.3248642834
0.3221580218
0.3220439195
0.3207219845
0.3224551128
0.3228324649
0.3235815194
0.3230788886
0.3217287593
0.322766467
0.3224500422
0.3228177883
0.3224294389
0.3224084087
0.3236409261
0.3251950244
0.3246688078
0.3227762894
0.321113763
0.3206228977
0.3211764368
0.3218108579
0.3228641238
0.3229502404
0.3214575093
0.3225504325
0.3227275449
0.323335264
0.3228474931
0.3211992682
0.3211656912
0.3226437774
0.3231327241
0.3241386342
0.3227370869
0.3219228848
0.3213601984
0.321320041
0.3218585459
0.3216582959
0.3222566485
0.3229546285
0.322346774
0.3217915169
0.3214516301
0.3234842174
0.3236119457
0.3232196631
0.322470457
0.3227832156
0.3227975998
0.3233929595
0.3218819427
0.3202016196
0.3204606675
0.3196409134
0.3217667566
0.3235472081
0.3225929165
0.3232389624
0.3229328095
0.3231728547
0.3236432556
0.3222231764
0.3221524892
0.3209421907
0.3210607395
0.3213264465
0.3209872146
0.3212455453
0.3214777228
0.3217233554
0.3231531571
0.3238013649
0.3223813132
0.323099459
0.3223062705
0.3215467146
0.3220590592
0.3220288719
0.3219283402
0.3218908863
0.3217219491
0.3234624929
0.3230811197
0.3215168675
0.3222588696
0.3222296733
0.3223695037
0.3236153357
0.3216291501
0.3208169089
0.321922567
0.3210943753
0.3204443632
0.3209309767
0.3211850553
0.3230750004
0.3242931785
0.3227342467
0.3231541698
0.3226805831
0.3236849682
0.3220999253
0.3238166877
0.3239590743
0.3234371603
0.3227465182
0.322811863
0.3221255118
0.3226076552
0.3231097912
0.3221745945
0.3216867144
0.3217851621
0.3210143185
0.3225405503
0.3234733917
0.3218954081
0.3218784749
0.3223243282
0.3223318808
0.323610839
0.3237979319
0.321761414
0.3227177618
0.3224334524
0.3221860014
0.321665117
0.3221672177
0.3204299167
0.3208170278
0.3216757756
0.3232964326
0.3235703379
0.3238080157
0.3227584439
0.3225615982
0.3225362454
0.3224467794
0.3213520085
0.3242795884
0.3234470532
0.3229808961
0.3209802794
0.3213551537
0.3223096248
0.3213062928
0.3203786519
0.3225629939
0.3212592438
0.3231299654
0.3229715212
0.3223266779
0.3231330939
0.3221362056
0.323812034
0.3237150217
0.3235513744
0.323681329
0.323968435
0.3239991982
0.3241721223
0.3235347524
0.3242591198
0.3228169943
0.3218281212
0.3231130132
0.3246490898
0.3253131995
0.3248579069
0.3220886025
0.3216134728
0.3201255535
0.3203237526
0.3225762637
0.3247441797
0.3249844914
0.3236016349
0.3233203737
0.323761845
0.3210046932
0.3213112371
0.3218182856
0.3228744493
0.3239655797
0.3226787824
0.3235021034
0.321286089
0.3212964608
0.3223155152
0.3225619213
0.3222715056
0.3225521764
0.3240002707
0.3249333378
0.3241177008
0.3218376949
0.3203083402
0.3211692935
0.3220707566
0.3222648055
0.3236916523
0.3238078692
0.3225405695
0.3223403414
0.3249682603
0.3242743525
0.3250436748
0.3229240366
0.3218130331
0.3220623818
0.3230620285
0.3234178417
0.3230528287
0.3218178903
0.3213200322
0.3232769635
0.3235086117
0.3217120284
0.3216719575
0.3264014341
0.3243675002
0.3246836945
0.3235069315
0.3230795407
0.3241127662
0.3225671927
0.3221346113
0.3208641315
0.321218745
0.3215594115
0.3212414899
0.3219073612
0.3226183609
0.3228413427
0.322789942
0.3228401173
0.3246907747
0.3248493394
0.3241093113
0.3228656604
0.3235104612
0.323571007
0.3237835638
0.3231634564
0.3220930027
0.3218968275
0.321804106
0.3230507725
0.3231379676
0.3220542727
0.321670421
0.3213443148
0.3222787945
0.3222333052
0.3227861086
0.3240589044
0.3233326494
0.3235907327
0.3234819418
0.3228057753
0.3240241888
0.3251515989
0.3249323357
0.3243456866
0.3242964886
0.3236284087
0.324584525
0.3243159258
0.3246104796
0.3247622992
0.3252113458
0.3243499542
0.3240308283
0.3232528755
0.3215424776
0.3204916639
0.3219230421
0.3228232347
0.3235769394
0.3241417295
0.3238944485
0.3242908622
0.325751684
0.3266597843
0.3257868612
0.3252484798
0.3248339274
0.3255241296
0.3239647292
0.3238901388
0.3253341067
0.3256456553
0.3237370675
0.3227814547
0.3228115282
0.3251926379
0.3248979809
0.3247564265
0.3246606532
0.3216465375
0.3220073995
0.3243340904
0.322965393
0.3236872865
0.3234689761
0.322643206
0.3221014937
0.3231115654
0.3229664105
0.3232631079
0.3246328404
0.3242622309
0.3218187519
0.3216983861
0.3228562733
0.3220578076
0.324431399
0.3232171025
0.3234330599
0.3222408624
0.3223931168
0.3211725918
0.3219471035
0.3222580767
0.3224407245
0.3215328363
0.3213964441
0.3219001394
0.3239327099
0.324005961
0.3235685635
0.3224719501
0.3235640356
0.3221912315
0.3220695569
0.3221721831
0.3216288936
0.3223590582
0.3224094771
0.3219014868
0.3223044497
0.3237283146
0.3248638751
0.3233775364
0.320894845
0.3216505982
0.3220719697
0.3223320426
0.3216749812
0.320521552
0.3211615132
0.3222377462
0.3220429383
0.3229369478
0.322324292
0.3232478776
0.3222501336
0.3223113529
0.3225001617
0.3219966057
0.3228557369
0.3229020528
0.3215912077
0.3222612927
0.3246068683
0.323894892
0.3229257967
0.3239205093
0.323744954
0.3213732087
0.3197465278
0.3199992402
0.319772238
0.3208298483
0.3215708698
0.3212619007
0.3216230127
0.3215858627
0.3214805638
0.3196148377
0.3207319154
0.321914198
0.3215576056
0.3232930674
0.3230080844
0.3238779491
0.3241037827
0.3233429718
0.3249614628
0.3252170327
0.3242531145
0.3229365634
0.3226213294
0.3237621547
0.3239062636
0.3240442335
0.3219843265
0.3212618749
0.3206873032
0.3234179819
0.3213409321
0.3225274112
0.3229405691
0.3228879245
0.3226776404
0.3235541986
0.3236655918
0.3248951951
0.3251701698
0.3252383818
0.3231167151
0.3228845215
0.3235895981
0.3234945252
0.3214625781
0.3206191895
0.3192196829
0.3197909461
0.3217937734
0.3236147673
0.3232885185
0.3236229898
0.3239536347
0.3239436797
0.3233285903
0.3246463496
0.324042721
0.3224222514
0.3230011324
0.3223929706
0.32339521
0.3225695776
0.3230516882
0.3225503283
0.3214220304
0.3232255483
0.3229264694
0.3224750825
0.3236663928
0.3221639482
0.3232637947
0.3238176497
0.3233119106
0.323079398
0.324331952
0.3228985096
0.3226209415
0.322589823
0.3218411441
0.3226926224
0.3228445579
0.3230640037
0.3223956677
0.321733377
0.323059258
0.3228525978
0.3226142202
0.322579355
0.3228949472
0.3227158523
0.3229396323
0.3234879019
0.3242603202
0.3247244414
0.3214414293
0.3221730516
0.3219826661
0.3223843612
0.3227057633
0.3249328646
0.3235837129
0.3236419096
0.3239291692
0.3232803635
0.3217768024
0.3210237373
0.3218606215
0.3203772733
0.321702647
0.3221309459
0.3218710889
0.3225367515
0.3213857964
0.3214211491
0.322154017
0.3217133349
0.3193251592
0.319644942
0.3204796628
0.3215858013
0.3216676744
0.3223425354
0.3225128306
0.3217158542
0.3211016847
0.3219863443
0.3215601008
0.322897494
0.3232171755
0.3208233343
0.3207057139
0.3221526779
0.3234638939
0.3239830541
0.3235784059
0.32213031
0.3221668847
0.3219018801
0.3225680101
0.3229179939
0.3232945315
0.3247335617
0.3237322166
0.3242195225
0.3230991052
0.3237350664
0.3242897925
0.3231711897
0.3212489399
0.3223932144
0.3216006184
0.3213867931
0.3226489714
0.3227829357
0.3235374361
0.3222806663
0.3228821541
0.3234757987
0.3233276531
0.3227421467
0.3223886306
0.3224661003
0.3231291649
0.3230793074
0.3236518572
0.3220105782
0.3205672603
0.3206819194
0.3224910396
0.3211776592
0.3214881694
0.3232534496
0.32417231
0.3245025411
0.3233535375
0.3229191673
0.3240339361
0.3238045139
0.3233046192
0.3227837772
0.3225261465
0.3233500269
0.3225364579
0.322601197
0.3223053897
0.3221070924
0.3210400206
0.3201206724
0.3211664024
0.3224567767
0.3218923515
0.3216571855
0.3216106256
0.3218027981
0.3243995997
0.3249742273
0.3229723893
0.322418065
0.3240188727
0.3248236589
0.3241720648
0.3248845538
0.3247013523
0.3244186791
0.3230441663
0.321657895
0.3210866633
0.3224389149
0.3219503462
0.3245325551
0.3248778683
0.3242326932
0.3244651824
0.3252848791
0.3251800926
0.3259077321
0.3254725765
0.3257790851
0.3247316063
0.3230890464
0.3219410719
0.320771272
0.322097746
0.3210846833
0.3221066425
0.32201608
0.3231894248
0.322866682
0.3227825689
0.3221878832
0.3235407565
0.3225155831
0.3228888938
0.3225028455
0.3227554815
0.3242182306
0.3238384997
0.3225662922
0.3226402626
0.3215613071
0.3207552592
0.3207715442
0.3231348401
0.3225205712
0.3236150252
0.323221157
0.3238865425
0.3231123077
0.3220112014
0.3217733224
0.3220676402
0.3204566843
0.3216067862
0.321847077
0.3224721689
0.3225817102
0.32371194
0.3240997825
0.3244704639
0.3237030695
0.323570283
0.3223113053
0.322563772
0.3247079576
0.3240477529
0.3221358521
0.3215378819
0.3213516851
0.3215427669
0.3222627622
0.3205237659
0.3203257512
0.3192695242
0.3219383186
0.3214693369
0.3243798781
0.32377246
0.3235671795
0.3223525315
0.3225984216
0.3239909172
0.3247274956
0.3232277942
0.3225305669
0.3210564652
0.321828486
0.3222016166
0.322738294
0.3219109511
0.3230851964
0.323445731
0.3230898683
0.3222510888
0.3217425015
0.3220653343
0.3216538088
0.321196131
0.3214009226
0.3214516705
0.3215667775
0.3212376769
0.3218242051
0.3230454646
0.3228310971
0.3230793079
0.3229074231
0.3227810186
0.3235944015
0.3240917251
0.3215744944
0.3204950651
0.3222647437
0.3237728558
0.3225059894
0.3226915886
0.3238137889
0.3239893176
0.3241672596
0.322686705
0.3233133928
0.3236156274
0.3223858713
0.3226465392
0.3227729863
0.3226511811
0.3218651264
0.3231098154
0.3211294778
0.3211128943
0.3238692375
0.3221515608
0.3215260118
0.3202181314
0.320542198
0.3208010743
0.3229844179
0.3243635146
0.3248574785
0.3237971603
0.3237783252
0.3242662892
0.3240217372
0.3229640075
0.3220243856
0.3226839986
0.3250365951
0.3240318122
0.323075618
0.3237252363
0.3231225309
0.323744873
0.3217044009
0.3226028509
0.3230845935
0.3243595372
0.3238166392
0.325159119
0.3239965256
0.3224070104
0.3224601421
0.3213081431
0.3226874906
0.3230426615
0.3232362298
0.3215653844
0.3216988909
0.3220890271
0.3232255794
0.323097918
0.3237828283
0.3242071382
0.3238278205
0.3242316382
0.3247326081
0.3250973987
0.3235526981
0.3217693913
0.3212269568
0.3208325157
0.3225920537
0.323787666
0.3237128978
0.3240168468
0.3237694167
0.3229343555
0.3228424225
0.3247859587
0.3236839542
0.3241259554
0.3224639058
0.3221171674
0.3229546377
0.3224971557
0.322905248
0.3228244316
0.3238953731
0.3227665299
0.3224480806
0.3237044489
0.3231673192
0.3225546225
0.3227548637
0.323460728
0.3242769715
0.3215860249
0.3216878433
0.3219163077
0.3227771303
0.3222041819
0.3220628563
0.3228775632
0.3215520567
0.3220588962
0.3217277343
0.3230801506
0.3241383194
0.3227745674
0.3220326947
0.321907149
0.3226594077
0.3235984314
0.3236466075
0.3218045797
0.3223297333
0.3246342272
0.3243228481
0.3236358374
0.3242642262
0.3221490108
0.3221360212
0.3208973015
0.3213175276
0.3222240448
0.3214098837
0.319873369
0.3196721067
0.3224814001
0.322904488
0.3223481557
0.3210556099
0.3229757609
0.3228510931
0.3231902031
0.3234045957
0.3220789902
0.3228073716
0.3238565687
0.3223642039
0.3236282581
0.323585506
0.3232175753
0.32243489
0.3209360472
0.3222624546
0.3235750394
0.3240654186
0.323868033
0.3229237357
0.3229395798
0.3239760291
0.3223427629
0.3225154346
0.3249564632
0.326022729
0.3267981929
0.3262014443
0.3238557262
0.3240176806
0.322148937
0.3231381805
0.3234824119
0.324564418
0.3234081216
0.3224035749
0.3224950753
0.322293335
0.322655865
0.3227867972
0.3231472856
0.3240997113
0.3244737724
0.3229667342
0.3216215891
0.3227422803
0.3230778377
0.3259474913
0.3255917995
0.3239151501
0.3236354362
0.3216162058
0.3239683589
0.3222997334
0.3212471246
0.3207214708
0.321569417
0.3232707854
0.3248429634
0.3251305423
0.3244674421
0.3230433035
0.3239722354
0.3238404167
0.3240046624
0.3247660519
0.3233387017
0.3223841096
0.3214819052
0.3233383028
0.3220988962
0.3237282848
0.3223507261
0.3219345139
0.3225580311
0.3236362865
0.3235156493
0.3230474911
0.3226312951
0.3221739715
0.3217187616
0.3216054249
0.3221523925
0.3219440038
0.3229235403
0.3231965538
0.3226606064
0.3223858787
0.3225061356
0.3219109195
0.3231772565
0.3228961976
0.3232687607
0.3244126377
0.3245654005
0.3227020937
0.3220435371
0.3214637558
0.3222182428
0.3225038137
0.3223449886
0.32298158
0.3240698951
0.3220689237
0.321179429
0.322060188
0.321563094
0.3222753162
0.3218600372
0.3208385076
0.3225722416
0.3225172184
0.321689755
0.3226748197
0.3214016445
0.3224532466
0.3231824137
0.3228688206
0.3234812465
0.3213056468
0.3207147086
0.3230292734
0.3230610993
0.3228215203
0.3214634034
0.3205121521
0.3216292664
0.322974985
0.3223522499
0.3209811859
0.3219441872