/*--------------------------------*- C++ -*----------------------------------*\
| =========                 |                                                 |
| \\      /  F ield         | OpenFOAM: The Open Source CFD Toolbox           |
|  \\    /   O peration     | Version:  v1706                                 |
|   \\  /    A nd           | Web:      www.OpenFOAM.com                      |
|    \\/     M anipulation  |                                                 |
\*---------------------------------------------------------------------------*/
FoamFile
{
    version     2.0;
    format      ascii;
    class       volScalarField;
    location    "0.02";
    object      rhoN_N2;
}
// * * * * * * * * * * * * * * * * * * * * * * * * * * * * * * * * * * * * * //

dimensions      [0 -3 0 0 0 0 0];


internalField   nonuniform List<scalar> 
5120
(
7.840492308e+19
7.832369231e+19
7.826430769e+19
7.835692308e+19
7.834553846e+19
7.847046154e+19
7.835292308e+19
7.829630769e+19
7.804276923e+19
7.802676923e+19
7.794861538e+19
7.790215385e+19
7.793169231e+19
7.793107692e+19
7.805384615e+19
7.801415385e+19
7.783784615e+19
7.810276923e+19
7.811938462e+19
7.817907692e+19
7.777753846e+19
7.775630769e+19
7.795876923e+19
7.805076923e+19
7.785384615e+19
7.754030769e+19
7.7592e+19
7.765507692e+19
7.791692308e+19
7.772769231e+19
7.810553846e+19
7.8096e+19
7.779107692e+19
7.784584615e+19
7.774584615e+19
7.804184615e+19
7.785076923e+19
7.807538462e+19
7.7836e+19
7.795507692e+19
7.767969231e+19
7.764984615e+19
7.760953846e+19
7.767907692e+19
7.793723077e+19
7.801046154e+19
7.775138462e+19
7.785569231e+19
7.789353846e+19
7.796430769e+19
7.793230769e+19
7.804615385e+19
7.805015385e+19
7.805661538e+19
7.8264e+19
7.803076923e+19
7.806523077e+19
7.779169231e+19
7.779661538e+19
7.771692308e+19
7.779138462e+19
7.770369231e+19
7.782430769e+19
7.7864e+19
7.783261538e+19
7.777076923e+19
7.782092308e+19
7.783169231e+19
7.778861538e+19
7.773692308e+19
7.774523077e+19
7.770769231e+19
7.764584615e+19
7.736584615e+19
7.749015385e+19
7.7436e+19
7.748369231e+19
7.787969231e+19
7.778892308e+19
7.764061538e+19
7.776615385e+19
7.782923077e+19
7.799753846e+19
7.775538462e+19
7.772153846e+19
7.7588e+19
7.744584615e+19
7.744984615e+19
7.736953846e+19
7.740584615e+19
7.745261538e+19
7.784061538e+19
7.765415385e+19
7.7892e+19
7.787569231e+19
7.765846154e+19
7.767846154e+19
7.764861538e+19
7.7692e+19
7.774676923e+19
7.759076923e+19
7.764676923e+19
7.770153846e+19
7.753384615e+19
7.803323077e+19
7.788523077e+19
7.753876923e+19
7.730430769e+19
7.716738462e+19
7.740861538e+19
7.738061538e+19
7.765969231e+19
7.7556e+19
7.787938462e+19
7.765415385e+19
7.769261538e+19
7.759630769e+19
7.761846154e+19
7.748769231e+19
7.758707692e+19
7.742338462e+19
7.725446154e+19
7.739969231e+19
7.766184615e+19
7.749107692e+19
7.753169231e+19
7.747907692e+19
7.752861538e+19
7.753538462e+19
7.732861538e+19
7.725446154e+19
7.763015385e+19
7.771169231e+19
7.768246154e+19
7.761538462e+19
7.765876923e+19
7.756369231e+19
7.753507692e+19
7.762953846e+19
7.725846154e+19
7.746892308e+19
7.7436e+19
7.729507692e+19
7.725569231e+19
7.725415385e+19
7.715076923e+19
7.703753846e+19
7.711046154e+19
7.706153846e+19
7.726338462e+19
7.724492308e+19
7.710553846e+19
7.726707692e+19
7.767569231e+19
7.778830769e+19
7.778e+19
7.781907692e+19
7.772430769e+19
7.760461538e+19
7.768830769e+19
7.765846154e+19
7.751169231e+19
7.7624e+19
7.743692308e+19
7.740307692e+19
7.767169231e+19
7.761507692e+19
7.743138462e+19
7.761476923e+19
7.7488e+19
7.765938462e+19
7.766030769e+19
7.759169231e+19
7.753076923e+19
7.750369231e+19
7.765969231e+19
7.789230769e+19
7.781507692e+19
7.777661538e+19
7.787292308e+19
7.760523077e+19
7.771261538e+19
7.765661538e+19
7.739353846e+19
7.757353846e+19
7.744769231e+19
7.787015385e+19
7.798892308e+19
7.79e+19
7.742953846e+19
7.708861538e+19
7.732707692e+19
7.7428e+19
7.750246154e+19
7.763938462e+19
7.727846154e+19
7.7208e+19
7.717692308e+19
7.755938462e+19
7.769630769e+19
7.805230769e+19
7.827723077e+19
7.822276923e+19
7.832153846e+19
7.8024e+19
7.787261538e+19
7.761907692e+19
7.753815385e+19
7.744523077e+19
7.747784615e+19
7.772923077e+19
7.794953846e+19
7.793630769e+19
7.801076923e+19
7.776553846e+19
7.767938462e+19
7.795969231e+19
7.786707692e+19
7.777076923e+19
7.781323077e+19
7.7512e+19
7.734676923e+19
7.752430769e+19
7.750030769e+19
7.768030769e+19
7.778769231e+19
7.797507692e+19
7.788676923e+19
7.782553846e+19
7.7784e+19
7.777446154e+19
7.788092308e+19
7.776861538e+19
7.785384615e+19
7.796676923e+19
7.783507692e+19
7.781107692e+19
7.78e+19
7.7612e+19
7.746492308e+19
7.791446154e+19
7.786769231e+19
7.794584615e+19
7.779169231e+19
7.766369231e+19
7.765015385e+19
7.765907692e+19
7.746615385e+19
7.7596e+19
7.752461538e+19
7.756553846e+19
7.782584615e+19
7.780276923e+19
7.797784615e+19
7.811476923e+19
7.796030769e+19
7.804430769e+19
7.799261538e+19
7.805015385e+19
7.803876923e+19
7.816430769e+19
7.802584615e+19
7.793907692e+19
7.798676923e+19
7.788123077e+19
7.769907692e+19
7.767630769e+19
7.790492308e+19
7.784584615e+19
7.797784615e+19
7.816523077e+19
7.814523077e+19
7.830769231e+19
7.821261538e+19
7.809630769e+19
7.802830769e+19
7.790769231e+19
7.793630769e+19
7.794769231e+19
7.769169231e+19
7.766492308e+19
7.757323077e+19
7.742246154e+19
7.738769231e+19
7.754676923e+19
7.757292308e+19
7.745938462e+19
7.743507692e+19
7.789476923e+19
7.790307692e+19
7.818707692e+19
7.789784615e+19
7.800707692e+19
7.780861538e+19
7.776646154e+19
7.726707692e+19
7.744676923e+19
7.776246154e+19
7.800707692e+19
7.793261538e+19
7.788769231e+19
7.794584615e+19
7.779415385e+19
7.778892308e+19
7.757907692e+19
7.776830769e+19
7.796553846e+19
7.816092308e+19
7.823107692e+19
7.808738462e+19
7.769876923e+19
7.769446154e+19
7.760338462e+19
7.758061538e+19
7.758184615e+19
7.790615385e+19
7.810030769e+19
7.806553846e+19
7.793723077e+19
7.790338462e+19
7.786307692e+19
7.803415385e+19
7.791661538e+19
7.795507692e+19
7.810830769e+19
7.821261538e+19
7.805107692e+19
7.791353846e+19
7.787015385e+19
7.814953846e+19
7.841476923e+19
7.800369231e+19
7.766307692e+19
7.7708e+19
7.802584615e+19
7.790276923e+19
7.774861538e+19
7.786553846e+19
7.773169231e+19
7.770246154e+19
7.783015385e+19
7.773876923e+19
7.776153846e+19
7.770615385e+19
7.773538462e+19
7.800276923e+19
7.767476923e+19
7.773353846e+19
7.759969231e+19
7.772553846e+19
7.756153846e+19
7.78e+19
7.800276923e+19
7.790492308e+19
7.762153846e+19
7.761784615e+19
7.768123077e+19
7.750246154e+19
7.753969231e+19
7.767292308e+19
7.791261538e+19
7.815692308e+19
7.796523077e+19
7.795323077e+19
7.791938462e+19
7.780061538e+19
7.791969231e+19
7.789446154e+19
7.789353846e+19
7.768769231e+19
7.760461538e+19
7.766769231e+19
7.791415385e+19
7.785661538e+19
7.786676923e+19
7.8048e+19
7.817261538e+19
7.8188e+19
7.800553846e+19
7.806984615e+19
7.751569231e+19
7.753446154e+19
7.757569231e+19
7.757169231e+19
7.746153846e+19
7.781507692e+19
7.784492308e+19
7.791846154e+19
7.785969231e+19
7.781230769e+19
7.774430769e+19
7.759169231e+19
7.766523077e+19
7.764769231e+19
7.764307692e+19
7.7728e+19
7.782e+19
7.743815385e+19
7.762338462e+19
7.750769231e+19
7.794184615e+19
7.792646154e+19
7.785907692e+19
7.783292308e+19
7.788123077e+19
7.811907692e+19
7.813169231e+19
7.825692308e+19
7.806584615e+19
7.811938462e+19
7.794615385e+19
7.797969231e+19
7.783476923e+19
7.777046154e+19
7.741815385e+19
7.758092308e+19
7.7464e+19
7.743538462e+19
7.758246154e+19
7.784769231e+19
7.773046154e+19
7.777846154e+19
7.785661538e+19
7.786584615e+19
7.778030769e+19
7.787292308e+19
7.806492308e+19
7.8248e+19
7.810984615e+19
7.799630769e+19
7.807846154e+19
7.758615385e+19
7.766523077e+19
7.7752e+19
7.767323077e+19
7.763415385e+19
7.775938462e+19
7.759630769e+19
7.774153846e+19
7.764123077e+19
7.773384615e+19
7.764923077e+19
7.777261538e+19
7.759876923e+19
7.777661538e+19
7.790276923e+19
7.798e+19
7.791015385e+19
7.811876923e+19
7.805107692e+19
7.801661538e+19
7.772123077e+19
7.760030769e+19
7.772984615e+19
7.774769231e+19
7.782430769e+19
7.779692308e+19
7.775846154e+19
7.779969231e+19
7.771446154e+19
7.814e+19
7.806553846e+19
7.815630769e+19
7.820430769e+19
7.8052e+19
7.794092308e+19
7.793784615e+19
7.766492308e+19
7.751723077e+19
7.765169231e+19
7.782123077e+19
7.775753846e+19
7.799415385e+19
7.785138462e+19
7.782646154e+19
7.803938462e+19
7.782861538e+19
7.777815385e+19
7.770676923e+19
7.807846154e+19
7.774276923e+19
7.785846154e+19
7.763015385e+19
7.768153846e+19
7.747384615e+19
7.748061538e+19
7.758646154e+19
7.7756e+19
7.753846154e+19
7.760769231e+19
7.742923077e+19
7.754953846e+19
7.767569231e+19
7.773507692e+19
7.7988e+19
7.799107692e+19
7.793692308e+19
7.798984615e+19
7.799353846e+19
7.790030769e+19
7.726461538e+19
7.728892308e+19
7.7296e+19
7.752184615e+19
7.777415385e+19
7.783969231e+19
7.768923077e+19
7.774769231e+19
7.7788e+19
7.777569231e+19
7.795446154e+19
7.784953846e+19
7.766615385e+19
7.750061538e+19
7.717876923e+19
7.724953846e+19
7.737538462e+19
7.736215385e+19
7.745415385e+19
7.727846154e+19
7.775076923e+19
7.762707692e+19
7.766984615e+19
7.790184615e+19
7.785630769e+19
7.783046154e+19
7.764769231e+19
7.790738462e+19
7.776676923e+19
7.780738462e+19
7.750153846e+19
7.7148e+19
7.727323077e+19
7.728553846e+19
7.745938462e+19
7.753938462e+19
7.765292308e+19
7.774861538e+19
7.782338462e+19
7.785784615e+19
7.805846154e+19
7.797323077e+19
7.811907692e+19
7.800984615e+19
7.790769231e+19
7.801938462e+19
7.815169231e+19
7.813107692e+19
7.796615385e+19
7.803446154e+19
7.798338462e+19
7.809753846e+19
7.777107692e+19
7.760276923e+19
7.755846154e+19
7.774338462e+19
7.783384615e+19
7.785261538e+19
7.801630769e+19
7.801169231e+19
7.805107692e+19
7.801415385e+19
7.819415385e+19
7.807815385e+19
7.807046154e+19
7.791015385e+19
7.767692308e+19
7.791169231e+19
7.814584615e+19
7.824307692e+19
7.806246154e+19
7.798430769e+19
7.798584615e+19
7.798923077e+19
7.803353846e+19
7.784769231e+19
7.782584615e+19
7.798123077e+19
7.787384615e+19
7.791353846e+19
7.749323077e+19
7.771538462e+19
7.766123077e+19
7.780707692e+19
7.795261538e+19
7.780430769e+19
7.782307692e+19
7.773969231e+19
7.767938462e+19
7.785138462e+19
7.780646154e+19
7.782430769e+19
7.774246154e+19
7.779046154e+19
7.796215385e+19
7.787876923e+19
7.793323077e+19
7.781169231e+19
7.7556e+19
7.769969231e+19
7.800276923e+19
7.801538462e+19
7.819292308e+19
7.819169231e+19
7.826923077e+19
7.829723077e+19
7.810830769e+19
7.806676923e+19
7.782246154e+19
7.771969231e+19
7.7712e+19
7.7992e+19
7.8264e+19
7.795876923e+19
7.783323077e+19
7.806092308e+19
7.790707692e+19
7.805292308e+19
7.797538462e+19
7.782430769e+19
7.817876923e+19
7.797323077e+19
7.791969231e+19
7.787446154e+19
7.793692308e+19
7.7864e+19
7.781907692e+19
7.812738462e+19
7.796861538e+19
7.777753846e+19
7.786615385e+19
7.790553846e+19
7.78e+19
7.792923077e+19
7.797569231e+19
7.784523077e+19
7.791815385e+19
7.792092308e+19
7.816246154e+19
7.826861538e+19
7.760769231e+19
7.753846154e+19
7.771046154e+19
7.766984615e+19
7.780676923e+19
7.800646154e+19
7.799969231e+19
7.781538462e+19
7.776307692e+19
7.800553846e+19
7.805384615e+19
7.796615385e+19
7.824092308e+19
7.815353846e+19
7.812861538e+19
7.777507692e+19
7.778953846e+19
7.779630769e+19
7.766338462e+19
7.770338462e+19
7.750892308e+19
7.750092308e+19
7.748923077e+19
7.751784615e+19
7.748123077e+19
7.733230769e+19
7.744092308e+19
7.736153846e+19
7.736092308e+19
7.753507692e+19
7.772646154e+19
7.792338462e+19
7.776338462e+19
7.783107692e+19
7.790369231e+19
7.784123077e+19
7.767507692e+19
7.780430769e+19
7.769692308e+19
7.774153846e+19
7.785292308e+19
7.794307692e+19
7.796153846e+19
7.806984615e+19
7.805292308e+19
7.790707692e+19
7.796123077e+19
7.751046154e+19
7.744492308e+19
7.742369231e+19
7.723538462e+19
7.726092308e+19
7.7116e+19
7.739292308e+19
7.704553846e+19
7.743876923e+19
7.761630769e+19
7.769938462e+19
7.786184615e+19
7.787323077e+19
7.743938462e+19
7.773353846e+19
7.766923077e+19
7.766861538e+19
7.789969231e+19
7.783815385e+19
7.782553846e+19
7.787384615e+19
7.775753846e+19
7.764861538e+19
7.782092308e+19
7.767015385e+19
7.746430769e+19
7.781230769e+19
7.791907692e+19
7.777876923e+19
7.764892308e+19
7.765938462e+19
7.749292308e+19
7.742707692e+19
7.774707692e+19
7.7824e+19
7.774738462e+19
7.777076923e+19
7.767907692e+19
7.785846154e+19
7.770769231e+19
7.775661538e+19
7.796092308e+19
7.822584615e+19
7.822215385e+19
7.807876923e+19
7.793753846e+19
7.7868e+19
7.758246154e+19
7.733323077e+19
7.750769231e+19
7.758953846e+19
7.769815385e+19
7.791753846e+19
7.773661538e+19
7.788923077e+19
7.800061538e+19
7.777661538e+19
7.784e+19
7.779969231e+19
7.767815385e+19
7.753938462e+19
7.754646154e+19
7.748430769e+19
7.749476923e+19
7.772369231e+19
7.769415385e+19
7.775815385e+19
7.7768e+19
7.784553846e+19
7.7736e+19
7.791353846e+19
7.764276923e+19
7.757353846e+19
7.748646154e+19
7.739415385e+19
7.732215385e+19
7.759846154e+19
7.790892308e+19
7.7676e+19
7.760153846e+19
7.792830769e+19
7.807815385e+19
7.8208e+19
7.816738462e+19
7.809138462e+19
7.787476923e+19
7.761907692e+19
7.7432e+19
7.762061538e+19
7.773661538e+19
7.783692308e+19
7.768246154e+19
7.752030769e+19
7.751415385e+19
7.782923077e+19
7.776369231e+19
7.771169231e+19
7.7536e+19
7.757938462e+19
7.803630769e+19
7.784246154e+19
7.774215385e+19
7.776430769e+19
7.785661538e+19
7.782e+19
7.760153846e+19
7.738553846e+19
7.761753846e+19
7.748153846e+19
7.742892308e+19
7.715230769e+19
7.725507692e+19
7.727876923e+19
7.783230769e+19
7.772584615e+19
7.760553846e+19
7.757015385e+19
7.765138462e+19
7.767938462e+19
7.761784615e+19
7.755476923e+19
7.766430769e+19
7.778646154e+19
7.785261538e+19
7.7928e+19
7.784430769e+19
7.788215385e+19
7.758461538e+19
7.770584615e+19
7.7792e+19
7.782e+19
7.7936e+19
7.788430769e+19
7.720584615e+19
7.711107692e+19
7.741476923e+19
7.742830769e+19
7.742030769e+19
7.742246154e+19
7.739323077e+19
7.729723077e+19
7.7424e+19
7.762369231e+19
7.769876923e+19
7.767507692e+19
7.7736e+19
7.779815385e+19
7.786861538e+19
7.771261538e+19
7.760707692e+19
7.7624e+19
7.750030769e+19
7.731076923e+19
7.781076923e+19
7.8172e+19
7.7884e+19
7.764307692e+19
7.766676923e+19
7.789969231e+19
7.803230769e+19
7.797015385e+19
7.795784615e+19
7.776461538e+19
7.787446154e+19
7.773938462e+19
7.781723077e+19
7.772e+19
7.775384615e+19
7.788061538e+19
7.788646154e+19
7.773415385e+19
7.771907692e+19
7.784276923e+19
7.779692308e+19
7.793507692e+19
7.799353846e+19
7.822615385e+19
7.821815385e+19
7.794461538e+19
7.784769231e+19
7.793169231e+19
7.7912e+19
7.802553846e+19
7.806123077e+19
7.796492308e+19
7.788061538e+19
7.817907692e+19
7.807815385e+19
7.783723077e+19
7.776369231e+19
7.773107692e+19
7.7748e+19
7.7828e+19
7.784461538e+19
7.790184615e+19
7.779630769e+19
7.774923077e+19
7.797938462e+19
7.822307692e+19
7.8104e+19
7.8276e+19
7.814738462e+19
7.796769231e+19
7.806584615e+19
7.830615385e+19
7.8224e+19
7.800553846e+19
7.794830769e+19
7.781661538e+19
7.787353846e+19
7.789938462e+19
7.774707692e+19
7.774861538e+19
7.7972e+19
7.771353846e+19
7.765507692e+19
7.738369231e+19
7.759230769e+19
7.761876923e+19
7.770738462e+19
7.791046154e+19
7.792553846e+19
7.808153846e+19
7.8056e+19
7.806923077e+19
7.816984615e+19
7.830123077e+19
7.832892308e+19
7.852953846e+19
7.849015385e+19
7.841907692e+19
7.828461538e+19
7.795692308e+19
7.802e+19
7.778092308e+19
7.808861538e+19
7.790030769e+19
7.792892308e+19
7.813907692e+19
7.850523077e+19
7.822246154e+19
7.787138462e+19
7.809569231e+19
7.784276923e+19
7.779784615e+19
7.761415385e+19
7.791876923e+19
7.817969231e+19
7.803446154e+19
7.824738462e+19
7.799723077e+19
7.810492308e+19
7.806953846e+19
7.784e+19
7.814861538e+19
7.796769231e+19
7.825876923e+19
7.802738462e+19
7.786738462e+19
7.780123077e+19
7.791569231e+19
7.806615385e+19
7.794215385e+19
7.788e+19
7.804338462e+19
7.798892308e+19
7.788523077e+19
7.768953846e+19
7.781846154e+19
7.783907692e+19
7.789138462e+19
7.787969231e+19
7.779169231e+19
7.769446154e+19
7.763538462e+19
7.755446154e+19
7.733569231e+19
7.7584e+19
7.750184615e+19
7.767446154e+19
7.795969231e+19
7.809692308e+19
7.811169231e+19
7.834923077e+19
7.854184615e+19
7.861907692e+19
7.853415385e+19
7.841046154e+19
7.836061538e+19
7.813630769e+19
7.799323077e+19
7.787815385e+19
7.763538462e+19
7.761076923e+19
7.756030769e+19
7.762738462e+19
7.756676923e+19
7.771723077e+19
7.762861538e+19
7.783815385e+19
7.7856e+19
7.786e+19
7.772523077e+19
7.770369231e+19
7.756707692e+19
7.746676923e+19
7.780676923e+19
7.779569231e+19
7.790584615e+19
7.800369231e+19
7.826861538e+19
7.810492308e+19
7.786923077e+19
7.801292308e+19
7.784061538e+19
7.794307692e+19
7.774492308e+19
7.769876923e+19
7.762615385e+19
7.7452e+19
7.757015385e+19
7.747384615e+19
7.750215385e+19
7.752215385e+19
7.736492308e+19
7.743661538e+19
7.729046154e+19
7.742984615e+19
7.760615385e+19
7.750553846e+19
7.753538462e+19
7.772830769e+19
7.8208e+19
7.790953846e+19
7.798030769e+19
7.805415385e+19
7.783507692e+19
7.773661538e+19
7.764030769e+19
7.741261538e+19
7.726092308e+19
7.753846154e+19
7.753446154e+19
7.769938462e+19
7.759569231e+19
7.745569231e+19
7.745538462e+19
7.731292308e+19
7.7128e+19
7.742892308e+19
7.754030769e+19
7.742461538e+19
7.750769231e+19
7.7616e+19
7.774092308e+19
7.764061538e+19
7.764123077e+19
7.760646154e+19
7.742030769e+19
7.766030769e+19
7.744646154e+19
7.740246154e+19
7.738984615e+19
7.728123077e+19
7.752030769e+19
7.7788e+19
7.786369231e+19
7.807569231e+19
7.8092e+19
7.787323077e+19
7.778830769e+19
7.795138462e+19
7.784830769e+19
7.765323077e+19
7.731323077e+19
7.749938462e+19
7.758246154e+19
7.747446154e+19
7.734769231e+19
7.723784615e+19
7.745261538e+19
7.733907692e+19
7.737569231e+19
7.734215385e+19
7.749938462e+19
7.777538462e+19
7.798092308e+19
7.797815385e+19
7.776646154e+19
7.784646154e+19
7.783507692e+19
7.760307692e+19
7.766338462e+19
7.770676923e+19
7.764738462e+19
7.737353846e+19
7.7224e+19
7.738615385e+19
7.760461538e+19
7.790092308e+19
7.782738462e+19
7.765876923e+19
7.765569231e+19
7.7812e+19
7.784061538e+19
7.768153846e+19
7.764984615e+19
7.784461538e+19
7.781907692e+19
7.752523077e+19
7.748984615e+19
7.769076923e+19
7.770369231e+19
7.763138462e+19
7.760369231e+19
7.772646154e+19
7.783692308e+19
7.774123077e+19
7.763723077e+19
7.751353846e+19
7.770615385e+19
7.754030769e+19
7.735353846e+19
7.751630769e+19
7.758307692e+19
7.760923077e+19
7.765569231e+19
7.762184615e+19
7.773969231e+19
7.752923077e+19
7.763384615e+19
7.771476923e+19
7.770338462e+19
7.796830769e+19
7.787138462e+19
7.798676923e+19
7.804615385e+19
7.813661538e+19
7.795784615e+19
7.780923077e+19
7.761230769e+19
7.761876923e+19
7.776061538e+19
7.758676923e+19
7.779046154e+19
7.776123077e+19
7.768092308e+19
7.787415385e+19
7.776461538e+19
7.771230769e+19
7.808646154e+19
7.808923077e+19
7.829415385e+19
7.793353846e+19
7.823784615e+19
7.814369231e+19
7.788461538e+19
7.773261538e+19
7.736738462e+19
7.741230769e+19
7.768338462e+19
7.755846154e+19
7.765446154e+19
7.740061538e+19
7.726461538e+19
7.730123077e+19
7.748861538e+19
7.767846154e+19
7.791107692e+19
7.819415385e+19
7.824369231e+19
7.824707692e+19
7.812923077e+19
7.733784615e+19
7.721446154e+19
7.715261538e+19
7.724830769e+19
7.745015385e+19
7.775876923e+19
7.785723077e+19
7.770307692e+19
7.790984615e+19
7.792769231e+19
7.788153846e+19
7.8016e+19
7.816276923e+19
7.808738462e+19
7.799753846e+19
7.773630769e+19
7.752307692e+19
7.766553846e+19
7.737723077e+19
7.734061538e+19
7.761569231e+19
7.743846154e+19
7.741507692e+19
7.7636e+19
7.7504e+19
7.733415385e+19
7.7504e+19
7.765415385e+19
7.753138462e+19
7.761230769e+19
7.777876923e+19
7.795230769e+19
7.783015385e+19
7.769661538e+19
7.763415385e+19
7.765692308e+19
7.755723077e+19
7.784430769e+19
7.771723077e+19
7.782e+19
7.794738462e+19
7.779292308e+19
7.787507692e+19
7.782430769e+19
7.755815385e+19
7.738338462e+19
7.760923077e+19
7.782e+19
7.775292308e+19
7.805446154e+19
7.782646154e+19
7.732430769e+19
7.755692308e+19
7.758276923e+19
7.781015385e+19
7.759907692e+19
7.7512e+19
7.762492308e+19
7.788030769e+19
7.788738462e+19
7.801107692e+19
7.806892308e+19
7.809569231e+19
7.837661538e+19
7.805969231e+19
7.800892308e+19
7.762892308e+19
7.740338462e+19
7.760738462e+19
7.740184615e+19
7.735230769e+19
7.758584615e+19
7.760769231e+19
7.759507692e+19
7.757815385e+19
7.775353846e+19
7.782e+19
7.778184615e+19
7.772830769e+19
7.791169231e+19
7.785384615e+19
7.816492308e+19
7.795938462e+19
7.785476923e+19
7.783938462e+19
7.781046154e+19
7.757784615e+19
7.779446154e+19
7.773876923e+19
7.787507692e+19
7.8e+19
7.805261538e+19
7.808430769e+19
7.809046154e+19
7.791076923e+19
7.770707692e+19
7.758707692e+19
7.782861538e+19
7.798276923e+19
7.816430769e+19
7.780369231e+19
7.734676923e+19
7.737907692e+19
7.733907692e+19
7.762738462e+19
7.772646154e+19
7.764676923e+19
7.793384615e+19
7.787876923e+19
7.783292308e+19
7.781538462e+19
7.778584615e+19
7.780523077e+19
7.795015385e+19
7.797230769e+19
7.816307692e+19
7.813138462e+19
7.796184615e+19
7.788892308e+19
7.790307692e+19
7.807076923e+19
7.842153846e+19
7.810984615e+19
7.805384615e+19
7.795046154e+19
7.784276923e+19
7.797661538e+19
7.802338462e+19
7.785507692e+19
7.767292308e+19
7.746338462e+19
7.721753846e+19
7.731046154e+19
7.764153846e+19
7.762e+19
7.7956e+19
7.790153846e+19
7.788738462e+19
7.778553846e+19
7.779876923e+19
7.803353846e+19
7.7904e+19
7.791446154e+19
7.787323077e+19
7.754584615e+19
7.734676923e+19
7.727569231e+19
7.747723077e+19
7.750861538e+19
7.774030769e+19
7.769907692e+19
7.789138462e+19
7.792123077e+19
7.793784615e+19
7.784184615e+19
7.762184615e+19
7.756184615e+19
7.780861538e+19
7.798307692e+19
7.805292308e+19
7.747723077e+19
7.747353846e+19
7.722707692e+19
7.738861538e+19
7.749507692e+19
7.770153846e+19
7.774584615e+19
7.757876923e+19
7.740707692e+19
7.732584615e+19
7.753507692e+19
7.7592e+19
7.757507692e+19
7.795661538e+19
7.806338462e+19
7.797969231e+19
7.769446154e+19
7.744923077e+19
7.734615385e+19
7.739353846e+19
7.7256e+19
7.734338462e+19
7.739138462e+19
7.736984615e+19
7.762338462e+19
7.758923077e+19
7.758246154e+19
7.760338462e+19
7.752030769e+19
7.755261538e+19
7.758769231e+19
7.747446154e+19
7.778553846e+19
7.752307692e+19
7.752369231e+19
7.742738462e+19
7.727723077e+19
7.735723077e+19
7.740830769e+19
7.743907692e+19
7.762123077e+19
7.748676923e+19
7.737876923e+19
7.741323077e+19
7.772061538e+19
7.771015385e+19
7.768738462e+19
7.755538462e+19
7.764369231e+19
7.761876923e+19
7.768738462e+19
7.767292308e+19
7.745784615e+19
7.727630769e+19
7.704123077e+19
7.726707692e+19
7.757938462e+19
7.752061538e+19
7.777415385e+19
7.756061538e+19
7.763569231e+19
7.761846154e+19
7.749846154e+19
7.757323077e+19
7.7216e+19
7.733261538e+19
7.746338462e+19
7.738030769e+19
7.729907692e+19
7.734369231e+19
7.745384615e+19
7.759076923e+19
7.7672e+19
7.7616e+19
7.779815385e+19
7.763015385e+19
7.756246154e+19
7.745476923e+19
7.753046154e+19
7.751815385e+19
7.749230769e+19
7.755323077e+19
7.779384615e+19
7.796646154e+19
7.778553846e+19
7.781415385e+19
7.754461538e+19
7.768492308e+19
7.794153846e+19
7.769815385e+19
7.749938462e+19
7.749692308e+19
7.746338462e+19
7.733323077e+19
7.736092308e+19
7.742246154e+19
7.772461538e+19
7.784523077e+19
7.758246154e+19
7.750461538e+19
7.794738462e+19
7.790523077e+19
7.7784e+19
7.794430769e+19
7.791138462e+19
7.784430769e+19
7.777569231e+19
7.776461538e+19
7.770830769e+19
7.781292308e+19
7.785476923e+19
7.776030769e+19
7.765630769e+19
7.759261538e+19
7.748646154e+19
7.769753846e+19
7.778861538e+19
7.770276923e+19
7.780153846e+19
7.794707692e+19
7.766184615e+19
7.781538462e+19
7.777661538e+19
7.745630769e+19
7.761138462e+19
7.755630769e+19
7.748646154e+19
7.757292308e+19
7.767415385e+19
7.742707692e+19
7.729046154e+19
7.745907692e+19
7.785815385e+19
7.776461538e+19
7.790676923e+19
7.797630769e+19
7.7872e+19
7.772e+19
7.772523077e+19
7.752030769e+19
7.774307692e+19
7.759323077e+19
7.760523077e+19
7.738307692e+19
7.742984615e+19
7.747015385e+19
7.750123077e+19
7.742215385e+19
7.765938462e+19
7.742769231e+19
7.792123077e+19
7.7856e+19
7.758153846e+19
7.770738462e+19
7.759815385e+19
7.777969231e+19
7.784e+19
7.772461538e+19
7.767692308e+19
7.775261538e+19
7.806276923e+19
7.807384615e+19
7.799815385e+19
7.810738462e+19
7.797138462e+19
7.786492308e+19
7.803969231e+19
7.823261538e+19
7.811107692e+19
7.793876923e+19
7.746861538e+19
7.726676923e+19
7.710153846e+19
7.716830769e+19
7.735046154e+19
7.763692308e+19
7.785569231e+19
7.782215385e+19
7.787076923e+19
7.801107692e+19
7.723692308e+19
7.722769231e+19
7.722553846e+19
7.731784615e+19
7.764184615e+19
7.760430769e+19
7.758276923e+19
7.744e+19
7.738923077e+19
7.764492308e+19
7.759661538e+19
7.742984615e+19
7.747846154e+19
7.761569231e+19
7.775507692e+19
7.759230769e+19
7.736615385e+19
7.691261538e+19
7.718830769e+19
7.727630769e+19
7.732707692e+19
7.752861538e+19
7.745969231e+19
7.745046154e+19
7.756461538e+19
7.795507692e+19
7.784646154e+19
7.801661538e+19
7.780892308e+19
7.767753846e+19
7.760307692e+19
7.784492308e+19
7.777323077e+19
7.768769231e+19
7.748092308e+19
7.739907692e+19
7.761415385e+19
7.783569231e+19
7.7556e+19
7.727784615e+19
7.815353846e+19
7.779353846e+19
7.789046154e+19
7.7696e+19
7.752276923e+19
7.748461538e+19
7.739938462e+19
7.736584615e+19
7.707446154e+19
7.714830769e+19
7.734984615e+19
7.726953846e+19
7.739230769e+19
7.753784615e+19
7.756430769e+19
7.768246154e+19
7.7688e+19
7.790523077e+19
7.789107692e+19
7.784492308e+19
7.762061538e+19
7.784369231e+19
7.788430769e+19
7.772769231e+19
7.773384615e+19
7.752523077e+19
7.744430769e+19
7.745169231e+19
7.754061538e+19
7.752276923e+19
7.727846154e+19
7.722215385e+19
7.725015385e+19
7.7428e+19
7.753415385e+19
7.778553846e+19
7.772861538e+19
7.754338462e+19
7.772553846e+19
7.769907692e+19
7.7828e+19
7.797076923e+19
7.8008e+19
7.812892308e+19
7.800461538e+19
7.809938462e+19
7.795692308e+19
7.800061538e+19
7.804030769e+19
7.8072e+19
7.814523077e+19
7.818523077e+19
7.787907692e+19
7.793846154e+19
7.784307692e+19
7.756184615e+19
7.7592e+19
7.768492308e+19
7.768984615e+19
7.776e+19
7.807476923e+19
7.786553846e+19
7.808861538e+19
7.836061538e+19
7.8476e+19
7.840676923e+19
7.829292308e+19
7.819538462e+19
7.8312e+19
7.814923077e+19
7.814092308e+19
7.830923077e+19
7.842307692e+19
7.811384615e+19
7.796646154e+19
7.791907692e+19
7.816830769e+19
7.835230769e+19
7.817261538e+19
7.815046154e+19
7.755015385e+19
7.752461538e+19
7.776061538e+19
7.763015385e+19
7.773446154e+19
7.774615385e+19
7.7756e+19
7.768646154e+19
7.781538462e+19
7.780492308e+19
7.802307692e+19
7.804430769e+19
7.796553846e+19
7.771446154e+19
7.779292308e+19
7.792338462e+19
7.764430769e+19
7.786923077e+19
7.770523077e+19
7.788892308e+19
7.765261538e+19
7.758461538e+19
7.751230769e+19
7.748307692e+19
7.741015385e+19
7.743661538e+19
7.728430769e+19
7.741292308e+19
7.757630769e+19
7.774061538e+19
7.781230769e+19
7.772892308e+19
7.757907692e+19
7.765784615e+19
7.760061538e+19
7.756e+19
7.749107692e+19
7.740769231e+19
7.756215385e+19
7.754830769e+19
7.738461538e+19
7.744953846e+19
7.753169231e+19
7.776430769e+19
7.753107692e+19
7.724615385e+19
7.746953846e+19
7.734369231e+19
7.751015385e+19
7.741538462e+19
7.727107692e+19
7.742584615e+19
7.760184615e+19
7.758215385e+19
7.765353846e+19
7.749292308e+19
7.761723077e+19
7.757169231e+19
7.751907692e+19
7.743846154e+19
7.762030769e+19
7.752984615e+19
7.754615385e+19
7.740769231e+19
7.750769231e+19
7.765261538e+19
7.753292308e+19
7.767692308e+19
7.784646154e+19
7.785261538e+19
7.758584615e+19
7.729353846e+19
7.730215385e+19
7.727661538e+19
7.754953846e+19
7.759815385e+19
7.764184615e+19
7.756615385e+19
7.761569231e+19
7.760153846e+19
7.725969231e+19
7.731969231e+19
7.7456e+19
7.726492308e+19
7.757415385e+19
7.762430769e+19
7.772738462e+19
7.763784615e+19
7.763384615e+19
7.778215385e+19
7.789846154e+19
7.772092308e+19
7.767138462e+19
7.763015385e+19
7.774061538e+19
7.771815385e+19
7.766153846e+19
7.726e+19
7.718769231e+19
7.7364e+19
7.757876923e+19
7.759415385e+19
7.758615385e+19
7.776984615e+19
7.770892308e+19
7.7592e+19
7.782553846e+19
7.782738462e+19
7.799723077e+19
7.799507692e+19
7.801292308e+19
7.758123077e+19
7.767538462e+19
7.761384615e+19
7.759353846e+19
7.732215385e+19
7.730523077e+19
7.704246154e+19
7.711846154e+19
7.727692308e+19
7.778307692e+19
7.770307692e+19
7.782769231e+19
7.769538462e+19
7.765353846e+19
7.768430769e+19
7.785476923e+19
7.787569231e+19
7.757384615e+19
7.7628e+19
7.737169231e+19
7.757476923e+19
7.746584615e+19
7.770676923e+19
7.772461538e+19
7.760584615e+19
7.785846154e+19
7.782338462e+19
7.767723077e+19
7.7712e+19
7.757938462e+19
7.766307692e+19
7.7656e+19
7.773815385e+19
7.768892308e+19
7.788861538e+19
7.766523077e+19
7.744092308e+19
7.751292308e+19
7.748061538e+19
7.765107692e+19
7.760646154e+19
7.743107692e+19
7.742553846e+19
7.728430769e+19
7.755661538e+19
7.759969231e+19
7.760984615e+19
7.785938462e+19
7.778923077e+19
7.742430769e+19
7.756861538e+19
7.757446154e+19
7.769446154e+19
7.780953846e+19
7.739876923e+19
7.742184615e+19
7.748153846e+19
7.751753846e+19
7.751015385e+19
7.776676923e+19
7.766276923e+19
7.771661538e+19
7.772215385e+19
7.747230769e+19
7.731353846e+19
7.700307692e+19
7.706892308e+19
7.693230769e+19
7.721076923e+19
7.748523077e+19
7.761784615e+19
7.754523077e+19
7.742553846e+19
7.737353846e+19
7.741107692e+19
7.725907692e+19
7.694953846e+19
7.703230769e+19
7.715876923e+19
7.735753846e+19
7.737292308e+19
7.752e+19
7.751661538e+19
7.758953846e+19
7.757938462e+19
7.7756e+19
7.756584615e+19
7.753261538e+19
7.754092308e+19
7.752646154e+19
7.751015385e+19
7.764923077e+19
7.781384615e+19
7.780923077e+19
7.767353846e+19
7.755169231e+19
7.749692308e+19
7.751353846e+19
7.752153846e+19
7.743938462e+19
7.762461538e+19
7.766646154e+19
7.746030769e+19
7.755415385e+19
7.747446154e+19
7.768923077e+19
7.778030769e+19
7.768369231e+19
7.7612e+19
7.769107692e+19
7.759046154e+19
7.745846154e+19
7.755261538e+19
7.754184615e+19
7.765076923e+19
7.764615385e+19
7.761876923e+19
7.761723077e+19
7.746276923e+19
7.750553846e+19
7.746953846e+19
7.760738462e+19
7.769815385e+19
7.753723077e+19
7.755015385e+19
7.744338462e+19
7.720923077e+19
7.722769231e+19
7.770492308e+19
7.717046154e+19
7.7128e+19
7.750923077e+19
7.761938462e+19
7.755692308e+19