/*--------------------------------*- C++ -*----------------------------------*\
| =========                 |                                                 |
| \\      /  F ield         | OpenFOAM: The Open Source CFD Toolbox           |
|  \\    /   O peration     | Version:  v1706                                 |
|   \\  /    A nd           | Web:      www.OpenFOAM.com                      |
|    \\/     M anipulation  |                                                 |
\*---------------------------------------------------------------------------*/
FoamFile
{
    version     2.0;
    format      ascii;
    class       volScalarField;
    location    "0.02";
    object      rhoN_O2;
}
// * * * * * * * * * * * * * * * * * * * * * * * * * * * * * * * * * * * * * //

dimensions      [0 -3 0 0 0 0 0];


internalField   nonuniform List<scalar> 
5120
(
2.215107692e+19
2.211784615e+19
2.221661538e+19
2.225846154e+19
2.236738462e+19
2.233784615e+19
2.219876923e+19
2.206923077e+19
2.208984615e+19
2.192061538e+19
2.189692308e+19
2.196861538e+19
2.206030769e+19
2.210676923e+19
2.210061538e+19
2.211015385e+19
2.207815385e+19
2.214584615e+19
2.219907692e+19
2.223446154e+19
2.216246154e+19
2.218030769e+19
2.225046154e+19
2.221261538e+19
2.2148e+19
2.223415385e+19
2.240523077e+19
2.225292308e+19
2.222153846e+19
2.218307692e+19
2.2228e+19
2.216707692e+19
2.2212e+19
2.223846154e+19
2.224153846e+19
2.218030769e+19
2.215784615e+19
2.213384615e+19
2.212923077e+19
2.214276923e+19
2.218769231e+19
2.224307692e+19
2.218215385e+19
2.222276923e+19
2.235292308e+19
2.223292308e+19
2.229415385e+19
2.230984615e+19
2.231415385e+19
2.222461538e+19
2.215076923e+19
2.220153846e+19
2.230553846e+19
2.230030769e+19
2.232246154e+19
2.229723077e+19
2.228e+19
2.226184615e+19
2.231169231e+19
2.227630769e+19
2.209907692e+19
2.228861538e+19
2.231169231e+19
2.237107692e+19
2.238861538e+19
2.244276923e+19
2.237692308e+19
2.223661538e+19
2.228246154e+19
2.214769231e+19
2.242923077e+19
2.237753846e+19
2.234676923e+19
2.228676923e+19
2.209353846e+19
2.213446154e+19
2.212984615e+19
2.212953846e+19
2.2224e+19
2.222523077e+19
2.209507692e+19
2.195753846e+19
2.200338462e+19
2.207938462e+19
2.209415385e+19
2.209446154e+19
2.220861538e+19
2.220492308e+19
2.223446154e+19
2.216892308e+19
2.220984615e+19
2.225692308e+19
2.227230769e+19
2.214430769e+19
2.218738462e+19
2.220092308e+19
2.212953846e+19
2.217353846e+19
2.212492308e+19
2.214184615e+19
2.213076923e+19
2.221876923e+19
2.216892308e+19
2.197630769e+19
2.187938462e+19
2.1976e+19
2.198307692e+19
2.218738462e+19
2.231938462e+19
2.2356e+19
2.244307692e+19
2.230984615e+19
2.234553846e+19
2.230061538e+19
2.219630769e+19
2.222307692e+19
2.228553846e+19
2.224707692e+19
2.216492308e+19
2.217815385e+19
2.198676923e+19
2.210153846e+19
2.211107692e+19
2.226738462e+19
2.228430769e+19
2.227723077e+19
2.233015385e+19
2.228646154e+19
2.221015385e+19
2.230492308e+19
2.216615385e+19
2.222184615e+19
2.216246154e+19
2.222307692e+19
2.220676923e+19
2.219076923e+19
2.220276923e+19
2.221230769e+19
2.206153846e+19
2.2048e+19
2.215384615e+19
2.217076923e+19
2.207569231e+19
2.206153846e+19
2.211323077e+19
2.223907692e+19
2.239415385e+19
2.232492308e+19
2.233292308e+19
2.223415385e+19
2.218553846e+19
2.205046154e+19
2.203876923e+19
2.2084e+19
2.206676923e+19
2.214369231e+19
2.211661538e+19
2.225015385e+19
2.216123077e+19
2.219507692e+19
2.227107692e+19
2.222215385e+19
2.222123077e+19
2.226030769e+19
2.229353846e+19
2.224923077e+19
2.222584615e+19
2.220523077e+19
2.223938462e+19
2.226523077e+19
2.225169231e+19
2.234461538e+19
2.241230769e+19
2.242953846e+19
2.248369231e+19
2.2268e+19
2.238461538e+19
2.234338462e+19
2.2244e+19
2.227723077e+19
2.223969231e+19
2.231507692e+19
2.231692308e+19
2.225046154e+19
2.219169231e+19
2.221138462e+19
2.203015385e+19
2.204e+19
2.209353846e+19
2.206676923e+19
2.220215385e+19
2.213907692e+19
2.225538462e+19
2.233384615e+19
2.231076923e+19
2.238215385e+19
2.231723077e+19
2.2316e+19
2.223046154e+19
2.219415385e+19
2.221938462e+19
2.215876923e+19
2.21e+19
2.203076923e+19
2.202738462e+19
2.202953846e+19
2.203046154e+19
2.217938462e+19
2.2204e+19
2.226707692e+19
2.232153846e+19
2.237938462e+19
2.222861538e+19
2.210492308e+19
2.210553846e+19
2.222953846e+19
2.222769231e+19
2.221476923e+19
2.226369231e+19
2.218861538e+19
2.212430769e+19
2.206553846e+19
2.221569231e+19
2.226123077e+19
2.226215385e+19
2.2324e+19
2.230738462e+19
2.213015385e+19
2.213507692e+19
2.204707692e+19
2.213569231e+19
2.200492308e+19
2.203784615e+19
2.213384615e+19
2.211723077e+19
2.207415385e+19
2.207353846e+19
2.201015385e+19
2.201630769e+19
2.213661538e+19
2.223692308e+19
2.225446154e+19
2.220615385e+19
2.216738462e+19
2.214430769e+19
2.2108e+19
2.208369231e+19
2.207815385e+19
2.206030769e+19
2.217969231e+19
2.216369231e+19
2.212492308e+19
2.207969231e+19
2.200184615e+19
2.202307692e+19
2.201046154e+19
2.2056e+19
2.202092308e+19
2.225692308e+19
2.228830769e+19
2.217938462e+19
2.209015385e+19
2.216584615e+19
2.222769231e+19
2.224553846e+19
2.222553846e+19
2.222830769e+19
2.218769231e+19
2.2192e+19
2.220461538e+19
2.228830769e+19
2.227046154e+19
2.2392e+19
2.236e+19
2.243230769e+19
2.234523077e+19
2.222923077e+19
2.220153846e+19
2.214646154e+19
2.207846154e+19
2.214061538e+19
2.206430769e+19
2.202553846e+19
2.214061538e+19
2.208123077e+19
2.195846154e+19
2.204615385e+19
2.213261538e+19
2.216615385e+19
2.219353846e+19
2.226123077e+19
2.223476923e+19
2.221876923e+19
2.224615385e+19
2.212092308e+19
2.204646154e+19
2.213169231e+19
2.219846154e+19
2.217876923e+19
2.227138462e+19
2.222615385e+19
2.231415385e+19
2.226738462e+19
2.222030769e+19
2.222953846e+19
2.218646154e+19
2.221384615e+19
2.220369231e+19
2.214892308e+19
2.215784615e+19
2.202707692e+19
2.216461538e+19
2.221384615e+19
2.223476923e+19
2.220523077e+19
2.217907692e+19
2.207169231e+19
2.214646154e+19
2.215876923e+19
2.2136e+19
2.206769231e+19
2.207323077e+19
2.203507692e+19
2.206338462e+19
2.219476923e+19
2.22e+19
2.21e+19
2.208953846e+19
2.2232e+19
2.229723077e+19
2.2156e+19
2.215415385e+19
2.215723077e+19
2.208030769e+19
2.203723077e+19
2.2116e+19
2.213230769e+19
2.206676923e+19
2.204430769e+19
2.196923077e+19
2.253846154e+19
2.261876923e+19
2.266523077e+19
2.257815385e+19
2.2376e+19
2.2336e+19
2.231107692e+19
2.246246154e+19
2.233569231e+19
2.223169231e+19
2.234246154e+19
2.229384615e+19
2.236830769e+19
2.240861538e+19
2.245630769e+19
2.252861538e+19
2.244123077e+19
2.249476923e+19
2.254276923e+19
2.245446154e+19
2.220246154e+19
2.212092308e+19
2.211323077e+19
2.215630769e+19
2.209015385e+19
2.206184615e+19
2.212030769e+19
2.215907692e+19
2.219384615e+19
2.235261538e+19
2.236923077e+19
2.228307692e+19
2.219353846e+19
2.208646154e+19
2.218861538e+19
2.211907692e+19
2.221323077e+19
2.216676923e+19
2.217476923e+19
2.218123077e+19
2.210338462e+19
2.215476923e+19
2.218492308e+19
2.214738462e+19
2.213107692e+19
2.2256e+19
2.222307692e+19
2.217753846e+19
2.201323077e+19
2.212553846e+19
2.197784615e+19
2.188615385e+19
2.200738462e+19
2.213476923e+19
2.202184615e+19
2.199815385e+19
2.208492308e+19
2.208461538e+19
2.192707692e+19
2.204861538e+19
2.231353846e+19
2.229661538e+19
2.2248e+19
2.219169231e+19
2.215846154e+19
2.228646154e+19
2.2328e+19
2.2408e+19
2.231230769e+19
2.212123077e+19
2.207169231e+19
2.211230769e+19
2.215815385e+19
2.210769231e+19
2.2104e+19
2.204461538e+19
2.198246154e+19
2.202030769e+19
2.2172e+19
2.223292308e+19
2.228246154e+19
2.224092308e+19
2.207969231e+19
2.2148e+19
2.224953846e+19
2.2216e+19
2.218461538e+19
2.217630769e+19
2.226307692e+19
2.217846154e+19
2.227261538e+19
2.235507692e+19
2.230553846e+19
2.245076923e+19
2.238061538e+19
2.230523077e+19
2.237107692e+19
2.233323077e+19
2.234646154e+19
2.243046154e+19
2.241138462e+19
2.239569231e+19
2.260523077e+19
2.265446154e+19
2.249261538e+19
2.243815385e+19
2.235169231e+19
2.236584615e+19
2.2276e+19
2.226338462e+19
2.232369231e+19
2.240184615e+19
2.240246154e+19
2.220523077e+19
2.224492308e+19
2.220830769e+19
2.208738462e+19
2.212369231e+19
2.225753846e+19
2.2352e+19
2.238553846e+19
2.240215385e+19
2.240923077e+19
2.233661538e+19
2.2364e+19
2.241015385e+19
2.236892308e+19
2.233538462e+19
2.231723077e+19
2.232769231e+19
2.230030769e+19
2.219015385e+19
2.213261538e+19
2.219907692e+19
2.224646154e+19
2.216646154e+19
2.219384615e+19
2.225876923e+19
2.2268e+19
2.2296e+19
2.232953846e+19
2.230676923e+19
2.244676923e+19
2.241692308e+19
2.232830769e+19
2.230646154e+19
2.230307692e+19
2.221415385e+19
2.212769231e+19
2.225323077e+19
2.2312e+19
2.234e+19
2.237692308e+19
2.229630769e+19
2.235876923e+19
2.242738462e+19
2.249446154e+19
2.246030769e+19
2.244892308e+19
2.231630769e+19
2.203538462e+19
2.207476923e+19
2.210769231e+19
2.193292308e+19
2.197076923e+19
2.197230769e+19
2.215969231e+19
2.212830769e+19
2.212646154e+19
2.200492308e+19
2.2028e+19
2.207569231e+19
2.215692308e+19
2.202e+19
2.204184615e+19
2.203169231e+19
2.211230769e+19
2.217476923e+19
2.221169231e+19
2.227046154e+19
2.218061538e+19
2.225446154e+19
2.238430769e+19
2.235846154e+19
2.230984615e+19
2.230707692e+19
2.225015385e+19
2.222676923e+19
2.227107692e+19
2.212123077e+19
2.198492308e+19
2.200430769e+19
2.208738462e+19
2.225815385e+19
2.230984615e+19
2.221138462e+19
2.209415385e+19
2.211230769e+19
2.207292308e+19
2.214861538e+19
2.209384615e+19
2.201692308e+19
2.210615385e+19
2.217107692e+19
2.211046154e+19
2.214338462e+19
2.217661538e+19
2.224553846e+19
2.216769231e+19
2.209569231e+19
2.206615385e+19
2.215784615e+19
2.216646154e+19
2.215261538e+19
2.220892308e+19
2.212246154e+19
2.214123077e+19
2.215630769e+19
2.2116e+19
2.203107692e+19
2.212061538e+19
2.221753846e+19
2.225292308e+19
2.229076923e+19
2.223476923e+19
2.227938462e+19
2.227015385e+19
2.225753846e+19
2.216184615e+19
2.227138462e+19
2.215323077e+19
2.228984615e+19
2.216615385e+19
2.214646154e+19
2.208492308e+19
2.204461538e+19
2.199907692e+19
2.196830769e+19
2.202584615e+19
2.205415385e+19
2.222e+19
2.224369231e+19
2.223538462e+19
2.215292308e+19
2.216953846e+19
2.218892308e+19
2.217723077e+19
2.227169231e+19
2.219876923e+19
2.221692308e+19
2.233169231e+19
2.233569231e+19
2.221692308e+19
2.216430769e+19
2.208276923e+19
2.206553846e+19
2.217076923e+19
2.217015385e+19
2.221538462e+19
2.233630769e+19
2.204523077e+19
2.215015385e+19
2.221230769e+19
2.213230769e+19
2.217723077e+19
2.220615385e+19
2.227323077e+19
2.223261538e+19
2.221169231e+19
2.212523077e+19
2.208430769e+19
2.209292308e+19
2.212707692e+19
2.200584615e+19
2.195384615e+19
2.205292308e+19
2.208061538e+19
2.217415385e+19
2.213415385e+19
2.203107692e+19
2.232369231e+19
2.231107692e+19
2.222923077e+19
2.220707692e+19
2.216523077e+19
2.220953846e+19
2.216e+19
2.226584615e+19
2.229692308e+19
2.223692308e+19
2.221661538e+19
2.221538462e+19
2.2224e+19
2.233076923e+19
2.232307692e+19
2.219753846e+19
2.2228e+19
2.219876923e+19
2.228092308e+19
2.235661538e+19
2.229230769e+19
2.233538462e+19
2.230523077e+19
2.2108e+19
2.218769231e+19
2.225015385e+19
2.239446154e+19
2.239230769e+19
2.227907692e+19
2.213230769e+19
2.213753846e+19
2.214984615e+19
2.214215385e+19
2.224461538e+19
2.210584615e+19
2.205415385e+19
2.1924e+19
2.206984615e+19
2.221107692e+19
2.218707692e+19
2.222615385e+19
2.222861538e+19
2.211569231e+19
2.215230769e+19
2.214215385e+19
2.210830769e+19
2.207569231e+19
2.203938462e+19
2.212307692e+19
2.215538462e+19
2.219846154e+19
2.221261538e+19
2.220184615e+19
2.217661538e+19
2.211969231e+19
2.217723077e+19
2.224184615e+19
2.237169231e+19
2.227753846e+19
2.230061538e+19
2.215015385e+19
2.212676923e+19
2.220615385e+19
2.234430769e+19
2.226092308e+19
2.2208e+19
2.216430769e+19
2.217723077e+19
2.208123077e+19
2.201661538e+19
2.209692308e+19
2.210861538e+19
2.224676923e+19
2.227907692e+19
2.228923077e+19
2.222307692e+19
2.225353846e+19
2.221323077e+19
2.220246154e+19
2.214492308e+19
2.214184615e+19
2.199353846e+19
2.202153846e+19
2.199969231e+19
2.200830769e+19
2.215384615e+19
2.204707692e+19
2.199969231e+19
2.206123077e+19
2.219815385e+19
2.224215385e+19
2.215476923e+19
2.205230769e+19
2.2128e+19
2.213015385e+19
2.212676923e+19
2.217876923e+19
2.222461538e+19
2.226338462e+19
2.227323077e+19
2.209446154e+19
2.2164e+19
2.2132e+19
2.208092308e+19
2.216061538e+19
2.209076923e+19
2.205323077e+19
2.202153846e+19
2.2156e+19
2.227661538e+19
2.228738462e+19
2.222523077e+19
2.218553846e+19
2.222707692e+19
2.221723077e+19
2.235969231e+19
2.229015385e+19
2.216184615e+19
2.207938462e+19
2.208892308e+19
2.204553846e+19
2.215323077e+19
2.228953846e+19
2.2344e+19
2.236430769e+19
2.230369231e+19
2.237138462e+19
2.23e+19
2.226584615e+19
2.214892308e+19
2.211323077e+19
2.212276923e+19
2.216738462e+19
2.211815385e+19
2.214646154e+19
2.215046154e+19
2.220830769e+19
2.221015385e+19
2.222738462e+19
2.2052e+19
2.212e+19
2.213661538e+19
2.199076923e+19
2.200492308e+19
2.205692308e+19
2.216061538e+19
2.225815385e+19
2.224123077e+19
2.235815385e+19
2.237046154e+19
2.229046154e+19
2.208369231e+19
2.209046154e+19
2.215815385e+19
2.2196e+19
2.208953846e+19
2.2132e+19
2.199692308e+19
2.204892308e+19
2.216553846e+19
2.220338462e+19
2.213292308e+19
2.224369231e+19
2.223723077e+19
2.226276923e+19
2.224830769e+19
2.225046154e+19
2.237938462e+19
2.230492308e+19
2.237815385e+19
2.238584615e+19
2.234030769e+19
2.244215385e+19
2.230430769e+19
2.217569231e+19
2.225846154e+19
2.227661538e+19
2.232184615e+19
2.230092308e+19
2.223753846e+19
2.245784615e+19
2.242153846e+19
2.242030769e+19
2.249230769e+19
2.243630769e+19
2.237507692e+19
2.240215385e+19
2.2412e+19
2.258492308e+19
2.247815385e+19
2.246923077e+19
2.245169231e+19
2.2528e+19
2.259569231e+19
2.259384615e+19
2.252676923e+19
2.241815385e+19
2.245353846e+19
2.235538462e+19
2.241907692e+19
2.240676923e+19
2.2408e+19
2.237846154e+19
2.235815385e+19
2.236923077e+19
2.224707692e+19
2.218953846e+19
2.218430769e+19
2.213261538e+19
2.219784615e+19
2.223907692e+19
2.217753846e+19
2.208153846e+19
2.2204e+19
2.233538462e+19
2.244830769e+19
2.2504e+19
2.233015385e+19
2.241846154e+19
2.236369231e+19
2.213938462e+19
2.205876923e+19
2.2068e+19
2.208646154e+19
2.218030769e+19
2.2252e+19
2.236123077e+19
2.243569231e+19
2.246123077e+19
2.246830769e+19
2.238861538e+19
2.235046154e+19
2.228676923e+19
2.229569231e+19
2.222030769e+19
2.220061538e+19
2.221969231e+19
2.2264e+19
2.222092308e+19
2.222246154e+19
2.2252e+19
2.222892308e+19
2.218707692e+19
2.219538462e+19
2.222923077e+19
2.200461538e+19
2.200707692e+19
2.204861538e+19
2.203476923e+19
2.212984615e+19
2.218184615e+19
2.204461538e+19
2.214553846e+19
2.214276923e+19
2.222861538e+19
2.229723077e+19
2.239661538e+19
2.241507692e+19
2.237507692e+19
2.230676923e+19
2.224276923e+19
2.208830769e+19
2.222892308e+19
2.216e+19
2.223384615e+19
2.222030769e+19
2.229384615e+19
2.237876923e+19
2.242061538e+19
2.224615385e+19
2.231569231e+19
2.224553846e+19
2.214738462e+19
2.228553846e+19
2.220923077e+19
2.223415385e+19
2.217969231e+19
2.204738462e+19
2.200984615e+19
2.206123077e+19
2.2476e+19
2.238553846e+19
2.240369231e+19
2.229446154e+19
2.220184615e+19
2.218153846e+19
2.221230769e+19
2.228246154e+19
2.232215385e+19
2.226153846e+19
2.214215385e+19
2.222338462e+19
2.228553846e+19
2.224769231e+19
2.228646154e+19
2.229630769e+19
2.2208e+19
2.237723077e+19
2.249107692e+19
2.243230769e+19
2.218338462e+19
2.219353846e+19
2.2152e+19
2.224184615e+19
2.228861538e+19
2.233569231e+19
2.233353846e+19
2.2236e+19
2.218553846e+19
2.204184615e+19
2.218030769e+19
2.214769231e+19
2.212615385e+19
2.219815385e+19
2.219630769e+19
2.231292308e+19
2.224584615e+19
2.217661538e+19
2.214369231e+19
2.219076923e+19
2.221969231e+19
2.209723077e+19
2.226861538e+19
2.227661538e+19
2.218523077e+19
2.219261538e+19
2.219046154e+19
2.210246154e+19
2.206369231e+19
2.203476923e+19
2.212923077e+19
2.206584615e+19
2.204553846e+19
2.209015385e+19
2.214523077e+19
2.207476923e+19
2.213323077e+19
2.209015385e+19
2.216030769e+19
2.212830769e+19
2.213846154e+19
2.208461538e+19
2.220123077e+19
2.231753846e+19
2.234092308e+19
2.237661538e+19
2.2376e+19
2.239169231e+19
2.232184615e+19
2.239784615e+19
2.232461538e+19
2.233292308e+19
2.225538462e+19
2.216276923e+19
2.2252e+19
2.221630769e+19
2.228184615e+19
2.214615385e+19
2.201476923e+19
2.211415385e+19
2.199015385e+19
2.208984615e+19
2.223507692e+19
2.229415385e+19
2.223538462e+19
2.216984615e+19
2.205107692e+19
2.213015385e+19
2.222738462e+19
2.219323077e+19
2.207446154e+19
2.209876923e+19
2.206646154e+19
2.223015385e+19
2.222430769e+19
2.221169231e+19
2.217846154e+19
2.202553846e+19
2.199138462e+19
2.192953846e+19
2.226184615e+19
2.213353846e+19
2.210892308e+19
2.198246154e+19
2.207292308e+19
2.204e+19
2.215907692e+19
2.236676923e+19
2.225138462e+19
2.219938462e+19
2.212492308e+19
2.210184615e+19
2.216861538e+19
2.215261538e+19
2.215784615e+19
2.216769231e+19
2.219415385e+19
2.216430769e+19
2.213507692e+19
2.216307692e+19
2.221753846e+19
2.218584615e+19
2.221323077e+19
2.215353846e+19
2.211876923e+19
2.202861538e+19
2.199876923e+19
2.200430769e+19
2.204061538e+19
2.192615385e+19
2.197138462e+19
2.195661538e+19
2.205753846e+19
2.216430769e+19
2.214892308e+19
2.216153846e+19
2.205569231e+19
2.213692308e+19
2.213938462e+19
2.217446154e+19
2.202123077e+19
2.203446154e+19
2.203015385e+19
2.202646154e+19
2.208246154e+19
2.2188e+19
2.218676923e+19
2.230061538e+19
2.222338462e+19
2.230646154e+19
2.235661538e+19
2.231969231e+19
2.229261538e+19
2.228092308e+19
2.226461538e+19
2.217384615e+19
2.211415385e+19
2.195784615e+19
2.204676923e+19
2.205507692e+19
2.228861538e+19
2.221230769e+19
2.2212e+19
2.220492308e+19
2.209446154e+19
2.206307692e+19
2.206676923e+19
2.210123077e+19
2.206615385e+19
2.228092308e+19
2.225446154e+19
2.217907692e+19
2.214276923e+19
2.218092308e+19
2.2188e+19
2.215323077e+19
2.214492308e+19
2.219415385e+19
2.231015385e+19
2.237076923e+19
2.202923077e+19
2.208707692e+19
2.2132e+19
2.211876923e+19
2.221938462e+19
2.224092308e+19
2.230092308e+19
2.233261538e+19
2.225507692e+19
2.212769231e+19
2.206769231e+19
2.210215385e+19
2.209107692e+19
2.201538462e+19
2.187661538e+19
2.1896e+19
2.201938462e+19
2.209753846e+19
2.208492308e+19
2.205230769e+19
2.240923077e+19
2.246061538e+19
2.226430769e+19
2.222892308e+19
2.225015385e+19
2.238092308e+19
2.223815385e+19
2.217507692e+19
2.221876923e+19
2.224676923e+19
2.221261538e+19
2.217723077e+19
2.212830769e+19
2.219415385e+19
2.220246154e+19
2.225230769e+19
2.223476923e+19
2.223107692e+19
2.226923077e+19
2.232923077e+19
2.229507692e+19
2.231753846e+19
2.236184615e+19
2.237446154e+19
2.234092308e+19
2.231076923e+19
2.235292308e+19
2.2376e+19
2.236707692e+19
2.239015385e+19
2.240553846e+19
2.243907692e+19
2.239476923e+19
2.231476923e+19
2.225446154e+19
2.225630769e+19
2.216030769e+19
2.226984615e+19
2.234153846e+19
2.230215385e+19
2.2228e+19
2.212769231e+19
2.203169231e+19
2.215538462e+19
2.219384615e+19
2.218707692e+19
2.205507692e+19
2.200307692e+19
2.200953846e+19
2.214523077e+19
2.227538462e+19
2.232984615e+19
2.240523077e+19
2.230830769e+19
2.216984615e+19
2.209476923e+19
2.213630769e+19
2.2264e+19
2.230461538e+19
2.237630769e+19
2.213261538e+19
2.214153846e+19
2.229723077e+19
2.230676923e+19
2.233230769e+19
2.2336e+19
2.242123077e+19
2.244430769e+19
2.239507692e+19
2.233907692e+19
2.222276923e+19
2.227630769e+19
2.231476923e+19
2.221507692e+19
2.221569231e+19
2.216276923e+19
2.216953846e+19
2.215723077e+19
2.215015385e+19
2.208153846e+19
2.221076923e+19
2.225661538e+19
2.236615385e+19
2.239107692e+19
2.243538462e+19
2.247661538e+19
2.249784615e+19
2.254492308e+19
2.243076923e+19
2.235261538e+19
2.221538462e+19
2.224276923e+19
2.225323077e+19
2.235230769e+19
2.236153846e+19
2.234646154e+19
2.217784615e+19
2.215969231e+19
2.206830769e+19
2.205753846e+19
2.218830769e+19
2.212707692e+19
2.231507692e+19
2.220123077e+19
2.231969231e+19
2.231138462e+19
2.226492308e+19
2.233723077e+19
2.230092308e+19
2.233230769e+19
2.237661538e+19
2.224738462e+19
2.217292308e+19
2.210492308e+19
2.220061538e+19
2.213076923e+19
2.218769231e+19
2.220676923e+19
2.219723077e+19
2.224707692e+19
2.217169231e+19
2.232430769e+19
2.218984615e+19
2.214492308e+19
2.213138462e+19
2.209907692e+19
2.211046154e+19
2.223138462e+19
2.221630769e+19
2.2268e+19
2.230830769e+19
2.252246154e+19
2.239753846e+19
2.220523077e+19
2.220061538e+19
2.219169231e+19
2.223476923e+19
2.224953846e+19
2.217630769e+19
2.222061538e+19
2.202646154e+19
2.212338462e+19
2.221569231e+19
2.230246154e+19
2.228738462e+19
2.217692308e+19
2.197138462e+19
2.195107692e+19
2.212953846e+19
2.210307692e+19
2.201569231e+19
2.198523077e+19
2.195907692e+19
2.211169231e+19
2.208830769e+19
2.200615385e+19
2.202153846e+19
2.203230769e+19
2.196646154e+19
2.197415385e+19
2.191784615e+19
2.193569231e+19
2.177969231e+19
2.168123077e+19
2.181230769e+19
2.194030769e+19
2.202369231e+19
2.217261538e+19
2.221538462e+19
2.230307692e+19
2.237169231e+19
2.220338462e+19
2.227476923e+19
2.231415385e+19
2.223846154e+19
2.228338462e+19
2.224984615e+19
2.212523077e+19
2.214092308e+19
2.203753846e+19
2.2276e+19
2.225323077e+19
2.220276923e+19
2.205507692e+19
2.2076e+19
2.207876923e+19
2.209692308e+19
2.204984615e+19
2.209015385e+19
2.211415385e+19
2.217076923e+19
2.225046154e+19
2.221661538e+19
2.220769231e+19
2.218738462e+19
2.229292308e+19
2.220276923e+19
2.233784615e+19
2.238430769e+19
2.235846154e+19
2.220892308e+19
2.205353846e+19
2.207353846e+19
2.214553846e+19
2.215538462e+19
2.216246154e+19
2.217015385e+19
2.207353846e+19
2.223507692e+19
2.236030769e+19
2.233630769e+19
2.225415385e+19
2.2152e+19
2.208092308e+19
2.213138462e+19
2.216061538e+19
2.230030769e+19
2.237784615e+19
2.2372e+19
2.231538462e+19
2.205046154e+19
2.202e+19
2.208153846e+19
2.209415385e+19
2.205507692e+19
2.215692308e+19
2.214892308e+19
2.215507692e+19
2.203415385e+19
2.205630769e+19
2.218276923e+19
2.218984615e+19
2.226030769e+19
2.235784615e+19
2.228092308e+19
2.216523077e+19
2.213138462e+19
2.210061538e+19
2.204307692e+19
2.197076923e+19
2.212215385e+19
2.219323077e+19
2.212738462e+19
2.213384615e+19
2.216061538e+19
2.205230769e+19
2.1956e+19
2.196338462e+19
2.211107692e+19
2.210461538e+19
2.2152e+19
2.213753846e+19
2.189046154e+19
2.188523077e+19
2.197538462e+19
2.199507692e+19
2.205415385e+19
2.195538462e+19
2.208707692e+19
2.216215385e+19
2.237507692e+19
2.233630769e+19
2.237723077e+19
2.231169231e+19
2.235753846e+19
2.229261538e+19
2.229723077e+19
2.232338462e+19
2.223476923e+19
2.215415385e+19
2.202430769e+19
2.197938462e+19
2.209323077e+19
2.221476923e+19
2.234153846e+19
2.235507692e+19
2.230523077e+19
2.223046154e+19
2.225846154e+19
2.213876923e+19
2.232553846e+19
2.235507692e+19
2.220830769e+19
2.215630769e+19
2.219846154e+19
2.218492308e+19
2.226030769e+19
2.211723077e+19
2.210923077e+19
2.207538462e+19
2.207661538e+19
2.207938462e+19
2.220338462e+19
2.233076923e+19
2.2368e+19
2.239876923e+19
2.253046154e+19
2.251384615e+19
2.239169231e+19
2.226215385e+19
2.234e+19
2.239846154e+19
2.217323077e+19
2.229446154e+19
2.234738462e+19
2.221261538e+19
2.216646154e+19
2.208984615e+19
2.203323077e+19
2.213138462e+19
2.203630769e+19
2.215292308e+19
2.217230769e+19
2.208892308e+19
2.225538462e+19
2.235630769e+19
2.219353846e+19
2.225076923e+19
2.224953846e+19
2.231569231e+19
2.221046154e+19
2.213353846e+19
2.205876923e+19
2.222153846e+19
2.221661538e+19
2.2228e+19
2.215723077e+19
2.218615385e+19
2.234369231e+19
2.222276923e+19
2.236676923e+19
2.241292308e+19
2.2376e+19
2.235353846e+19
2.235876923e+19
2.239569231e+19
2.241784615e+19
2.230461538e+19
2.236615385e+19
2.231476923e+19
2.223046154e+19
2.224e+19
2.242523077e+19
2.219846154e+19
2.214953846e+19
2.227446154e+19
2.224738462e+19
2.246338462e+19
2.234707692e+19
2.2392e+19
2.233107692e+19
2.222676923e+19
2.219784615e+19
2.232430769e+19
2.243384615e+19
2.238707692e+19
2.231169231e+19
2.234123077e+19
2.220369231e+19
2.217292308e+19
2.222276923e+19
2.222092308e+19
2.221292308e+19
2.220676923e+19
2.211353846e+19
2.205938462e+19
2.197230769e+19
2.209046154e+19
2.202030769e+19
2.192769231e+19
2.205046154e+19
2.206030769e+19
2.209076923e+19
2.223107692e+19
2.226061538e+19
2.2204e+19
2.227169231e+19
2.224523077e+19
2.2112e+19
2.216123077e+19
2.212646154e+19
2.218030769e+19
2.215753846e+19
2.218615385e+19
2.232953846e+19
2.237415385e+19
2.230215385e+19
2.235015385e+19
2.235907692e+19
2.2512e+19
2.256184615e+19
2.257261538e+19
2.237046154e+19
2.243846154e+19
2.239753846e+19
2.235569231e+19
2.213723077e+19
2.211815385e+19
2.220030769e+19
2.2324e+19
2.216615385e+19
2.219476923e+19
2.221692308e+19
2.227753846e+19
2.208276923e+19
2.208892308e+19
2.196184615e+19
2.192769231e+19
2.193046154e+19
2.205938462e+19
2.217046154e+19
2.218676923e+19
2.209107692e+19
2.209661538e+19
2.204492308e+19
2.208553846e+19
2.210707692e+19
2.210430769e+19
2.220492308e+19
2.215323077e+19
2.2116e+19
2.210276923e+19
2.207353846e+19
2.216676923e+19
2.227692308e+19
2.223353846e+19
2.219538462e+19
2.223723077e+19
2.231784615e+19
2.228092308e+19
2.212676923e+19
2.217138462e+19
2.226369231e+19
2.215384615e+19
2.195415385e+19
2.201323077e+19
2.194830769e+19
2.207076923e+19
2.215292308e+19
2.223415385e+19
2.201323077e+19
2.190461538e+19
2.192184615e+19
2.196246154e+19
2.209138462e+19
2.216369231e+19
2.215569231e+19
2.205107692e+19
2.200738462e+19
2.207415385e+19
2.191876923e+19
2.191507692e+19
2.188307692e+19
2.197415385e+19
2.212215385e+19
2.227784615e+19
2.231476923e+19
2.227107692e+19
2.217015385e+19
2.203753846e+19
2.232923077e+19
2.235076923e+19
2.216092308e+19
2.221692308e+19
2.210769231e+19
2.205723077e+19
2.198830769e+19
2.196984615e+19
2.206030769e+19
2.204615385e+19
2.208276923e+19
2.218430769e+19
2.226984615e+19
2.234030769e+19
2.239753846e+19
2.227876923e+19
2.225169231e+19
2.227353846e+19
2.223846154e+19
2.221476923e+19
2.214861538e+19
2.221846154e+19
2.212338462e+19
2.217907692e+19
2.221723077e+19
2.211230769e+19
2.208184615e+19
2.208553846e+19
2.203015385e+19
2.207507692e+19
2.213384615e+19
2.208153846e+19
2.207907692e+19
2.199938462e+19
2.199015385e+19
2.1968e+19
2.211846154e+19
2.215292308e+19
2.223230769e+19
2.225015385e+19
2.212430769e+19
2.204861538e+19
2.215415385e+19
2.216584615e+19
2.223384615e+19
2.233169231e+19
2.228061538e+19
2.229015385e+19
2.2228e+19
2.213630769e+19
2.208246154e+19
2.217784615e+19
2.221815385e+19
2.211476923e+19
2.214369231e+19
2.205138462e+19
2.201815385e+19
2.215046154e+19
2.223815385e+19
2.212492308e+19
2.229015385e+19
2.235692308e+19
2.220769231e+19
2.214184615e+19
2.2048e+19
2.210553846e+19
2.212092308e+19
2.216153846e+19
2.227261538e+19
2.221261538e+19
2.220953846e+19
2.221015385e+19
2.211138462e+19
2.227969231e+19
2.234676923e+19
2.221969231e+19
2.211107692e+19
2.205169231e+19
2.205630769e+19
2.218953846e+19
2.210523077e+19
2.215230769e+19
2.223630769e+19
2.213692308e+19
2.208953846e+19
2.213753846e+19
2.205415385e+19
2.205046154e+19
2.216276923e+19
2.221630769e+19
2.220123077e+19
2.243353846e+19
2.237784615e+19
2.235661538e+19
2.222830769e+19
2.234184615e+19
2.234523077e+19
2.228276923e+19
2.222553846e+19
2.214461538e+19
2.239969231e+19
2.236523077e+19
2.225876923e+19
2.239261538e+19
2.247107692e+19
2.233384615e+19
2.245076923e+19
2.254276923e+19
2.234861538e+19
2.226923077e+19
2.222584615e+19
2.221446154e+19
2.231538462e+19
2.219138462e+19
2.214738462e+19
2.212646154e+19
2.230830769e+19
2.241353846e+19
2.240892308e+19
2.236892308e+19
2.241569231e+19
2.237538462e+19
2.249569231e+19
2.241907692e+19
2.255538462e+19
2.247784615e+19
2.237876923e+19
2.222061538e+19
2.226123077e+19
2.214338462e+19
2.218553846e+19
2.2236e+19
2.224e+19
2.209261538e+19
2.226553846e+19
2.230676923e+19
2.236769231e+19
2.236738462e+19
2.246369231e+19
2.246523077e+19
2.2332e+19
2.2324e+19
2.234215385e+19
2.232830769e+19
2.234523077e+19
2.228923077e+19
2.231753846e+19
2.255784615e+19
2.254492308e+19
2.257353846e+19
2.263384615e+19
2.262307692e+19
2.256769231e+19
2.253630769e+19
2.253784615e+19
2.244769231e+19
2.237507692e+19
2.248646154e+19
2.247569231e+19
2.241538462e+19
2.223046154e+19
2.214215385e+19
2.224338462e+19
2.219384615e+19
2.230953846e+19
2.236184615e+19
2.230615385e+19
2.232215385e+19
2.228338462e+19
2.223876923e+19
2.229538462e+19
2.234184615e+19
2.218430769e+19
2.224553846e+19
2.215230769e+19
2.220492308e+19
2.225753846e+19
2.230153846e+19
2.230369231e+19
2.228553846e+19
2.214215385e+19
2.215384615e+19
2.213261538e+19
2.217292308e+19
2.216984615e+19
2.207230769e+19
2.212338462e+19
2.221907692e+19
2.220461538e+19
2.222523077e+19
2.2272e+19
2.223230769e+19
2.220523077e+19
2.222e+19
2.218461538e+19
2.213876923e+19
2.219384615e+19
2.208338462e+19
2.209569231e+19
2.208830769e+19
2.208369231e+19
2.216184615e+19
2.2224e+19
2.219815385e+19
2.215138462e+19
2.218923077e+19
2.220215385e+19
2.212e+19
2.215661538e+19
2.194892308e+19
2.188030769e+19
2.203138462e+19
2.211076923e+19
2.211846154e+19
2.201446154e+19
2.200923077e+19
2.210092308e+19
2.210307692e+19
2.205876923e+19
2.206092308e+19
2.248123077e+19
2.240707692e+19
2.229076923e+19
2.224892308e+19
2.227569231e+19
2.217015385e+19
2.219723077e+19
2.2108e+19
2.203661538e+19
2.205415385e+19
2.2072e+19
2.205384615e+19
2.216738462e+19
2.219230769e+19
2.224153846e+19
2.214153846e+19
2.214123077e+19
2.217046154e+19
2.234861538e+19
2.239261538e+19
2.220461538e+19
2.212e+19
2.211630769e+19
2.212246154e+19
2.212338462e+19
2.210953846e+19
2.218769231e+19
2.234184615e+19
2.238892308e+19
2.225938462e+19
2.210830769e+19
2.214246154e+19
2.226830769e+19
2.228246154e+19
2.230676923e+19
2.225384615e+19
2.234892308e+19
2.239784615e+19
2.238430769e+19
2.220492308e+19
2.223261538e+19
2.220892308e+19
2.206092308e+19
2.203169231e+19
2.201076923e+19
2.206646154e+19
2.210030769e+19
2.207938462e+19
2.214153846e+19
2.209661538e+19
2.2108e+19
2.207384615e+19
2.207846154e+19
2.210215385e+19
2.209846154e+19
2.227107692e+19
2.221353846e+19
2.218092308e+19
2.23e+19
2.231815385e+19
2.202830769e+19
2.215476923e+19
2.210615385e+19
2.205569231e+19
2.206738462e+19
2.202646154e+19
2.202861538e+19
2.202984615e+19
2.198061538e+19
2.207846154e+19
2.2104e+19
2.2192e+19
2.214892308e+19
2.219107692e+19
2.2132e+19
2.203507692e+19
2.212276923e+19
2.224153846e+19
2.208923077e+19
2.204e+19
2.237753846e+19
2.2316e+19
2.233938462e+19