/*--------------------------------*- C++ -*----------------------------------*\
| =========                 |                                                 |
| \\      /  F ield         | OpenFOAM: The Open Source CFD Toolbox           |
|  \\    /   O peration     | Version:  v1706                                 |
|   \\  /    A nd           | Web:      www.OpenFOAM.com                      |
|    \\/     M anipulation  |                                                 |
\*---------------------------------------------------------------------------*/
FoamFile
{
    version     2.0;
    format      ascii;
    class       volScalarField;
    location    "0.02";
    object      rotationalT_O2;
}
// * * * * * * * * * * * * * * * * * * * * * * * * * * * * * * * * * * * * * //

dimensions      [0 0 0 1 0 0 0];


internalField   nonuniform List<scalar> 
5120
(
300.0720867
299.1662241
300.7319722
300.6813198
301.5828138
299.6413992
299.694944
298.8730226
296.8622222
296.6694058
295.5659684
298.1317196
297.4991632
297.9824223
296.7695401
296.7483854
298.2499191
299.2477231
300.7091427
300.0687676
300.868128
299.7943827
299.4901184
300.5001639
300.8217812
301.8840902
302.1608815
302.393104
302.4679306
302.6091718
301.7711834
302.0363974
301.1822
301.1661376
302.1671757
301.8227286
302.9952627
300.5665664
300.4976224
299.8686467
298.8360295
299.2606398
301.3096229
301.8670622
300.7063752
300.4189599
301.6036099
302.3811917
302.5700693
303.5786751
304.1664795
300.7754251
299.7931518
298.421446
298.9008699
299.3008056
299.5247032
301.4213322
300.7733272
299.1170196
300.930378
300.575857
299.8662113
301.680895
301.8253447
301.7271268
303.0047725
301.0966997
300.0856048
297.8768859
298.4896378
299.8283524
299.062026
300.1010847
302.1839188
303.4615825
302.2996206
301.7176803
302.0644616
301.0596585
302.2473068
301.3551893
299.7354789
298.1755363
300.0251557
302.447284
303.3238249
302.644889
301.530263
301.3455228
300.4951085
301.354642
302.1737416
303.2469542
301.4738311
302.3199597
303.0063111
302.2784517
301.114971
301.4805993
300.9505786
302.6669562
302.9876129
304.5321128
302.9553209
303.3300273
302.1176495
302.2314151
304.074774
303.9051463
303.133838
303.5138509
301.3688364
302.1763003
301.1771201
302.6954133
300.0283664
301.4647103
300.3771594
302.0771591
298.4447363
298.9091693
297.6248168
297.896832
297.6492718
297.9228514
296.1632916
296.2785654
297.3499315
297.491739
299.2234106
299.837288
299.6357978
299.9310103
299.1729832
298.0497034
298.2343335
299.7964183
296.7563545
296.1622976
301.7170311
303.954199
302.9730643
301.1234393
299.8638345
299.1242595
299.4833401
297.7527867
296.8877156
297.4760436
299.2126748
300.3481405
300.6867086
300.2291694
300.8852414
299.3020509
298.7741543
297.8939456
300.096804
300.3275381
298.9080083
296.5956565
296.0008519
297.4382453
300.0011654
301.0689718
301.9095183
301.6587581
298.7080801
298.5352645
299.6195576
299.653166
299.0541256
299.7170998
299.9354101
300.5653165
299.6673012
299.4976952
298.0982136
298.4866018
298.6692684
300.2061805
301.2959521
299.0575326
298.927048
299.1118607
298.5048991
298.3917202
298.1466672
296.7338526
297.2193428
297.7044087
298.7455873
298.6596035
296.9124196
295.6730207
295.5657358
296.871736
298.6843541
299.5224405
296.3360399
296.1233185
298.0634639
300.9604357
300.152127
301.2108975
301.3629841
300.636337
301.9515149
302.0287814
300.6055374
298.9886254
297.2516775
298.4196215
300.2012529
301.2899701
300.1227514
298.7271528
297.9266827
298.1125928
300.3188773
299.4881244
298.9284888
299.5484104
298.5863458
300.258895
299.4736273
300.5928226
299.5120145
301.3710692
302.3378966
301.3830257
299.1754064
299.6246404
298.1799802
299.245818
301.7672913
300.9399948
299.9280797
300.820196
299.5540924
298.8802665
298.5989214
299.3108515
300.4058654
300.2409167
300.0977277
301.9199046
303.1752911
300.7256138
299.911878
301.4634069
300.0051724
299.7989521
299.3344493
297.9644378
298.7460343
300.6182695
301.1822675
301.7831499
301.6558984
302.9273016
302.0827184
300.5068359
299.5427868
297.6153776
299.8905816
298.295356
298.0887881
299.700544
299.1381409
298.9469393
299.090253
298.3560583
300.5746344
303.3713674
301.6375962
300.0204199
300.0396487
299.1116839
300.0678013
301.364688
300.7068065
300.1348562
301.5404895
302.4131383
301.4357806
300.6767946
299.4479288
300.8860059
300.8820766
301.1689985
301.8363095
302.4588359
302.2100785
301.1458528
301.1003372
301.3581579
301.5745049
301.4365716
301.1104165
301.0421667
302.0903283
301.2577786
298.3970279
298.507317
297.6787932
299.660224
300.4872091
302.0796379
302.2063722
298.7044337
300.2423629
299.2931066
300.1601873
298.1734863
300.5515586
300.8454302
300.1967495
299.8086079
303.6720334
302.1926348
301.0558821
300.3115005
300.4016165
300.0066267
301.5349588
300.8138984
300.7516818
302.7922175
301.8759121
302.4786724
302.4109348
303.9160751
305.8342237
305.8684605
304.5509329
303.1709998
302.3537143
303.174113
302.2840009
301.3608587
300.0295777
300.8855061
301.2045283
300.5321266
297.4730183
297.2050304
297.9697331
296.754438
298.5536745
297.6331856
298.427167
300.9120754
302.5453706
299.7565726
301.1992454
302.1898337
302.4688444
302.2331149
305.3083354
306.293039
306.2207519
305.6160302
304.659618
304.7646523
305.3909867
303.6560892
301.9971402
302.3840689
300.2498037
302.1945792
301.5243277
299.6710532
299.1034943
300.92666
302.0444098
303.4190114
303.5175927
302.6490549
304.118918
302.8865962
304.4149556
304.0596493
304.0627778
302.8824672
301.0690774
300.1826658
301.8346667
302.0264303
302.0564359
300.6510926
301.2464788
301.0102628
304.7019874
304.7788749
303.4535423
302.7428188
304.5824063
305.3468424
299.5134691
299.2033143
298.3608346
299.3886682
299.7846604
300.484639
302.2201802
302.7559075
302.851503
303.0683026
302.7842192
303.3543428
302.9542274
302.8042007
299.7771956
299.0522117
297.4641933
298.2791263
298.0746009
298.6725091
302.520104
301.1521922
301.558982
302.0387847
301.3533938
300.916533
301.0912407
302.2382206
303.333176
302.1049503
303.0790117
302.0954066
301.2524575
298.8704452
300.1992508
300.2541114
301.4987089
301.48695
302.0912528
302.2112428
298.2409204
298.3894372
299.4661561
298.9251957
298.5148645
298.9459115
299.5305322
300.0207856
299.3545644
299.7620223
298.3287696
298.587223
300.0061984
300.7533141
301.0853156
300.7830219
299.289314
297.1465005
298.7910678
298.1284102
299.5772686
299.4539512
299.1144738
298.7277753
300.0524552
298.4236992
298.2089061
299.2110349
299.8413572
301.8157403
302.2666538
302.3405349
302.5410016
297.6757198
298.313261
298.7475118
299.8829894
300.9476999
300.9904779
300.3133545
300.9138529
299.892396
300.2274079
299.3226757
298.2157182
297.6295115
297.2886607
296.8541969
297.9869348
298.2457044
298.4341084
299.6727917
297.7103999
299.746024
301.832006
302.5970197
302.3489353
302.2061004
302.8552712
302.1411427
303.3108535
303.5507187
301.8367574
300.938911
302.3286283
301.5869308
300.6042311
299.6736822
300.0265569
299.5967381
300.2498723
300.9911835
303.2468019
303.2188474
302.453606
302.7672331
302.314388
301.2692152
301.6352323
302.3825657
299.2796582
300.4890644
300.944567
298.1869183
297.8252183
298.7792903
299.1202862
301.0292993
301.2853608
300.9075316
300.1478336
301.3264239
301.1860789
300.6415031
302.0104396
302.2041151
300.2589539
299.1746239
299.2136731
298.7118714
301.2353624
299.8406186
301.7879195
301.2435051
302.1826889
301.6332871
302.2147212
301.5607627
299.5111317
301.1545149
299.4236269
299.7771433
300.1055527
300.7951754
298.8327519
296.6731905
295.8999099
296.9651512
297.9320446
299.3601037
301.1893523
301.6175193
301.9342638
301.3328414
299.8496883
298.9493573
297.362514
298.225295
298.8766739
299.8683745
300.3090271
300.0560936
299.5155486
299.2669364
300.371641
301.7857004
301.3590687
300.6073529
300.1320993
299.0292659
301.9013016
302.0959341
301.3047995
302.1717148
302.3578463
301.3413258
301.492523
301.5263192
302.0027504
301.8744706
301.4194906
303.1691015
301.8608046
302.2389286
302.33771
300.4537902
299.8256044
299.3122384
299.9913184
301.7044099
301.095712
299.0282196
298.860586
301.1655366
299.2951962
300.2435297
302.5621059
302.0865736
302.4480956
302.4475767
303.1866644
303.4112592
302.345755
302.6991156
301.3567494
300.338572
302.5843437
303.2097204
301.070158
302.0520494
300.4069665
300.4082355
300.0601023
300.2481427
300.7412168
301.6884239
300.6180606
300.5615406
300.0536647
299.1982127
300.0399844
300.4245946
300.8347984
299.3866126
299.6188283
300.3033369
300.5731714
300.9582999
301.5588446
301.0260805
300.3468884
301.5253265
301.7607795
301.3799372
301.4977511
301.712055
300.455417
301.977553
299.5889833
298.9527593
299.8719491
301.3024889
303.1359655
303.0788209
303.5948686
302.794922
304.4491048
302.5382903
301.9310374
300.2188773
300.70617
300.2750638
300.3797748
300.7507089
301.7293418
302.1215371
302.1626522
301.7670023
303.9357316
305.0928461
305.3901697
303.4542806
303.4254253
301.0733566
301.5287029
301.9919903
300.9965744
302.5131585
301.7044425
301.5016422
301.1859633
302.9940648
302.9978045
302.4156644
303.4185642
303.4588072
301.0274707
302.0826685
300.155734
299.142863
299.5689279
298.7241999
298.3562049
299.7297679
300.0483302
299.9301744
299.4181056
299.9429791
301.2416873
302.7623579
299.995689
299.7524651
301.3753542
300.9091033
299.7284474
301.0775802
302.5823915
303.1688834
302.7203641
302.3850923
304.1998427
304.6416868
304.9433493
303.4901531
302.0575524
300.3547665
301.5278208
301.5067035
300.2572016
299.66251
301.410836
301.347425
301.3730995
301.3487672
299.1946097
299.0310638
298.2443827
298.1773602
298.7771377
299.4929589
298.7494302
298.7850294
299.1103305
298.9317029
299.9756922
301.314567
302.8039993
303.8513735
303.4037317
300.8744678
300.4657965
302.6135093
300.2371038
300.0771614
301.224457
300.1928215
299.346456
299.6183126
298.1706821
298.3313286
298.5035633
299.4712226
300.5234006
301.6918022
301.667022
300.680736
298.8865385
298.4944885
299.0332659
299.629811
297.7101246
297.7265462
297.7415959
297.9898397
299.244291
299.1702771
299.0068105
296.4776784
295.1001598
296.2643655
299.5985157
298.8426238
298.9388759
299.6307242
300.1646389
298.9663684
299.5010122
298.9091778
298.1827399
297.4127701
302.27445
301.0885963
300.937207
302.476173
300.602761
300.9176437
301.1420664
301.9046986
302.2370906
299.1203355
298.7488519
299.4047504
298.8206738
298.6514224
299.7434593
299.9947849
299.6859855
301.1934011
300.7042846
302.3168454
302.995043
300.8473008
300.7192533
299.7056009
301.058167
300.7529019
299.5274523
300.4483171
300.1603763
300.9239667
300.392408
300.4765127
299.2390474
300.9934857
299.9498281
299.9268898
301.67211
302.780951
303.370587
303.0497999
303.2764437
302.3600208
302.3193461
303.50679
302.2034072
304.0706452
303.2975182
302.4702477
301.6572175
300.4640067
301.9485091
302.5228965
301.8695432
300.4180284
301.7297242
301.8957534
302.7818343
303.7341856
303.1059816
303.5584274
300.2870726
300.8820801
301.4766727
299.6163926
298.3964644
298.8024714
298.2899609
299.2839321
301.29069
301.7462303
301.2099603
302.2298562
301.4012353
302.5391803
300.7565835
301.0065287
300.3062719
299.8156671
299.7147837
299.1346111
298.2865067
297.1596309
296.394806
296.5766768
297.4359121
297.0404043
299.9288089
298.6175936
300.67645
299.8884624
300.8691965
299.9018584
299.1809413
299.8062881
300.1621473
300.2768026
300.5004935
301.7533956
300.6765106
299.7104597
299.2289276
299.6359524
297.5640884
298.9916452
300.428011
302.3247654
301.5554164
301.8536747
301.7266101
301.0809294
299.8230154
299.9115796
300.8004511
301.9712399
301.3065607
301.5748607
301.4283824
299.2475825
300.0449672
299.3013474
299.6213886
300.5791653
302.0470498
301.404134
300.8263058
301.490575
301.2335909
301.6007083
301.1762609
299.1845447
297.8219828
298.6366316
299.3764815
299.1206987
298.7891033
299.8657671
302.0038887
302.47224
302.9722499
302.4540734
299.4042023
299.6810387
300.8912712
300.4055598
300.5848676
302.0255869
302.4576977
301.6112584
300.3376581
300.20025
299.8980432
300.4963545
300.1960976
299.8204926
300.6131735
299.7774798
300.5730547
298.6056496
299.6986144
299.9477808
300.1250464
301.1712336
299.3365484
300.4095814
302.8482594
303.9292209
302.3641183
302.3915084
302.8894742
302.6164974
302.095132
301.2059979
302.2018148
301.3646085
301.2393201
301.5111144
299.4684749
300.5212697
299.8946695
300.1548106
300.8219007
299.6795564
300.4069731
301.303411
302.6465402
301.9927819
302.2723845
300.9992495
301.0640557
299.6099424
297.9612191
299.0005975
297.3728091
297.6292742
299.6993943
299.2794574
299.4426344
300.4254904
300.2350461
301.7031174
299.566675
301.1515022
302.0541145
300.6063154
299.9212288
299.6786244
299.9268437
301.1455044
299.7471958
300.3299835
299.4289716
300.1659937
301.4765931
302.1285587
300.3626072
299.9381596
301.5307723
299.9101676
300.5902949
299.2627538
300.3881063
300.0541968
299.7087766
300.2450859
299.3238378
299.6132654
301.1180531
299.3602313
299.430316
299.5705786
298.3153661
298.1620878
298.993269
299.6811412
302.1725028
302.9498835
301.9187666
300.9866128
300.3453379
299.9075269
300.5938677
298.3783815
298.5777486
298.718817
299.0754132
298.3379487
296.8672195
298.8387167
298.4697772
299.3508408
300.3895649
303.3782681
302.5988343
304.4479171
302.0834187
302.3037805
303.8700497
303.9634336
301.1756279
301.0988118
299.6555676
297.7910765
296.8352218
298.2004688
298.6012017
299.8023716
299.035019
301.555338
300.5626582
301.1637899
301.2862637
299.5746432
299.8076812
300.8731647
300.7537373
299.6124811
298.9248036
298.888554
300.9402168
300.4359589
299.0263853
299.7619358
300.7576684
303.073938
304.0304771
302.9152869
304.8793016
305.1852865
303.9611563
302.2743382
300.26417
299.7031067
300.6323943
300.7554983
299.1697071
298.3066282
296.6004088
299.3043101
298.6178707
299.8998602
304.4294449
303.5502928
300.9799168
300.9604475
299.1723065
298.1890042
299.089074
300.8421361
302.6430967
301.1455297
301.0165721
300.3181873
300.6622659
300.4189946
300.4545713
302.440087
303.9892033
303.245682
304.4839207
303.9633747
299.1062844
300.1020377
300.3233284
301.0106927
300.177141
299.7195216
300.5185797
300.6228541
300.4762669
302.4968385
302.1006098
300.9937085
301.6905815
301.1934894
301.5509676
298.3073046
298.321304
298.5801097
299.464401
299.2587832
302.0672699
300.8639794
301.1998618
299.4706998
300.5726671
299.3509798
299.2993568
297.965001
298.4492704
297.4436497
297.8842208
299.2467711
300.081283
300.4927836
300.6361458
302.7006403
301.3132351
300.2011849
300.8117597
300.4596109
298.755658
299.3161014
299.5592377
300.5653877
301.7931944
300.4472452
301.1085529
301.1932518
300.6830152
301.812838
300.1909993
300.510042
299.7332629
300.3910211
300.7867462
300.4889687
300.0167463
300.7969393
299.504519
298.9005727
298.8657359
299.3906194
299.5397207
300.6931061
301.4751609
302.4416691
302.9971277
301.763057
301.5908786
301.3054365
302.2938314
302.5101215
301.715687
303.9276182
302.1912532
300.3528564
299.5834436
298.6819277
300.0097449
299.5610107
300.6596126
300.6467992
301.5508356
301.8328584
300.7554413
298.9001743
298.0251603
297.7482536
298.5115817
300.194505
298.8540027
298.1873818
297.2256409
296.6214838
296.6196857
295.997832
297.9152798
298.1302289
299.2642401
300.431623
300.3080328
301.2828964
303.5170494
303.5206199
302.6971415
302.0967085
301.7985097
301.67465
299.0585361
297.7697746
298.7290525
299.7781584
299.6177431
299.9127963
298.1340229
299.2260298
298.8501287
298.8232688
300.0059473
300.43543
302.4637994
300.3061007
298.2915236
298.6478767
298.9379119
299.0842075
299.1812884
299.2142497
299.5759227
301.5295849
302.644307
300.8274662
300.3841939
298.5215536
299.2467334
300.7460311
300.1264468
299.4160977
298.5162673
299.9007835
301.3011804
301.5140947
300.9845173
299.3350081
300.6942409
299.7832877
297.5558597
298.6388562
299.154294
299.1947181
298.6649526
299.876901
298.2084763
299.8310319
298.7949577
298.0982916
298.3917758
299.1059493
299.3960657
298.7818584
301.6482034
299.7005421
300.2728506
299.7009849
298.4548516
299.1750172
300.1548991
301.7585669
302.6928895
302.7408584
302.3245301
302.4678729
302.8163891
302.1700987
300.3655783
301.1788494
301.4021636
300.5905301
299.3834833
300.6384944
301.4887554
301.6112752
303.053657
302.6968312
302.5022652
300.970814
300.2537665
299.8343094
298.3476262
298.428749
299.366828
299.5061177
297.5562483
298.3451294
296.2201964
297.41701
297.8510605
296.6018258
299.7877759
300.9674317
300.2528134
299.0388799
299.370243
299.8338217
299.3055197
300.8916295
299.2075781
301.3996975
300.9220323
300.5167278
301.1718609
302.4392402
302.374002
301.4100024
300.632007
300.8805065
300.3582548
300.3461707
300.2336622
300.373622
300.8173308
300.3713568
299.9376181
301.0655614
298.8897975
300.2082363
302.2710466
303.0221935
303.1078979
302.8676215
301.6921347
301.2780131
300.6866922
300.6091071
300.401456
300.4089107
301.873574
302.0670695
301.2876216
299.1253172
300.559833
300.2923343
298.8267904
297.8303456
296.2581939
298.1393578
298.1129454
296.5384675
298.1804164
297.6506412
296.9365326
299.3702567
300.3645682
299.8146956
301.4967318
301.741058
300.9870654
300.858799
299.9409563
298.9475136
301.8297936
301.0327074
300.4956618
301.0993793
301.0410481
300.8774938
299.5088698
299.4150835
300.8005344
301.1997554
299.8120276
297.3414241
297.9252874
299.2518018
297.638612
300.5371553
301.4622196
300.4751942
301.3397669
303.3541057
297.0259936
298.2361296
299.4764977
298.8472768
299.2573145
298.8965862
299.1271267
297.881255
296.0337636
296.6530971
297.6548253
298.053019
295.8719935
296.1525922
297.0263444
298.1270735
297.9814688
297.5456508
297.6896257
295.3270075
296.9616362
297.4311586
298.4358294
297.6593448
299.3074109
299.4047183
298.6977022
298.0458914
295.4980149
296.3704535
297.1204
298.0326328
299.5005475
301.1902709
301.5534128
299.5454932
298.9048234
298.0574437
296.2613357
296.6495099
300.844213
301.0921443
301.6067408
302.1010222
301.8704245
301.6252716
301.6162075
299.9811354
300.3918772
300.7134097
301.7088712
300.9219386
301.4319205
299.9184258
297.8176261
298.7433953
300.5330785
301.7559768
301.8622054
302.2530869
299.9185298
297.9188845
298.6602155
299.1498631
299.2647483
298.829501
301.6443867
301.2793382
302.0725316
303.1973103
301.8801101
301.5945406
299.6536234
298.3397975
300.8808437
300.6971442
300.4091604
299.3910418
299.5577002
299.7354818
299.700508
299.1743622
298.2991134
299.0983123
299.0967409
299.9316966
298.4774758
300.140247
299.6335747
298.1738806
299.3676313
300.6484282
299.8703766
300.905694
302.3854435
302.5097356
303.5090409
304.9493727
302.0995516
301.7713837
298.5946683
298.8119918
298.7300769
297.8901792
296.993689
297.5180058
299.6944781
301.2496296
300.6529783
300.6505756
299.8150758
299.361527
298.3985463
296.8560725
296.4832829
296.5885656
296.2745488
297.7110818
295.5557042
297.4099908
302.5160551
301.4430374
302.8373121
302.771017
302.099884
301.9982287
300.2086398
299.3275805
299.7174747
297.9719566
297.9286586
296.9288563
297.7726572
297.2085975
296.9408844
298.1840458
299.9429799
299.3196705
301.137982
301.0925169
299.5988244
299.1972337
298.9469982
299.9726964
300.6828084
301.50019
301.6181669
300.0181374
300.1944926
300.2009179
301.3351085
302.2202557
302.6806135
302.9527685
303.8894374
302.5772138
301.9768556
300.4501877
299.1020787
300.4578933
299.2110428
300.8715781
301.7300057
300.3711376
300.1242063
299.8794574
301.9432318
300.6882778
301.8471911
302.2875253
303.1896193
304.0287064
302.4571172
300.8773634
300.4982227
301.2430692
300.4547473
300.8593794
301.2106203
299.9855649
301.1558708
301.1292631
302.0590987
300.9115705
300.8877807
300.3970973
299.1709735
300.456807
303.0916914
302.4858738
302.2213903
300.3713965
300.179837
301.8929148
300.8485552
301.1514609
300.9381327
300.4109473
301.4093338
301.7712986
300.4560888
302.433474
302.4596808
301.3794541
301.2888358
301.951221
302.1884507
302.9760173
304.5356015
303.4224653
303.3003427
301.9790187
303.6281486
304.3580695
303.5461831
303.8491756
304.3670377
304.7960924
302.3906991
301.168978
303.4886314
302.7648159
303.6344206
302.663759
302.140912
302.5820784
301.9088389
301.904407
301.3160694
299.0264213
298.0693679
298.2345058
299.1624903
298.5583528
298.7202168
298.6595347
301.1270067
302.5902567
302.6110194
304.4363175
299.018931
300.8111598
300.8412773
302.1293654
302.7981249
302.1359911
301.3522465
300.6837125
301.5221247
302.4444537
302.3761456
301.5192224
302.4883326
302.4538865
300.3659202
300.6021837
300.7341591
301.0884191
301.1541753
299.4679206
300.2497737
301.1740464
301.1942653
302.7427804
302.8990999
302.723585
301.3584922
301.5882109
299.8364086
300.2397355
300.3742531
299.2574558
296.3953747
297.3266839
297.9042576
298.657646
297.9724804
297.9910474
298.7374616
300.006424
300.2967072
298.7500172
300.5188337
299.6310968
297.5952153
296.6949233
297.2333934
296.9074675
296.8737519
296.9644583
297.6204051
296.3223202
297.2755387
296.6687247
296.3308172
294.7375156
295.2827508
295.7883268
297.677615
299.8334232
299.16346
299.355697
299.800973
300.0103345
298.8043368
298.1611626
297.0924558
298.2976378
299.8599967
299.0473396
299.4744392
300.0439993
300.1882294
299.6298286
298.880181
299.3661334
299.6738997
299.5762607
299.0670727
299.2520995
299.0029683
297.1748692
296.3117014
299.1432279
300.2959672
301.5082234
300.4415979
299.0794988
300.4473755
299.039403
299.5259247
297.8702556
297.5174727
298.2779419
296.9916612
296.5045448
297.9670586
299.3300849
300.4222881
300.0488886
299.8162446
301.9963042
301.0891662
300.7492016
299.8702082
299.6578786
301.401368
301.0936306
301.1168458
300.9187644
300.3802654
300.6894472
299.8553886
299.0961506
299.2606386
297.0294723
296.8887847
296.760402
298.2086537
299.2144672
300.2246139
301.2505137
300.3859077
300.7162204
299.8544484
300.3344596
301.530857
302.6743436
301.6006418
300.7603762
300.0255239
299.6955681
300.4529407
299.5540746
298.9292417
299.6380001
297.9752802
297.9644769
298.2167586
298.1243406
300.7758032
300.6651923
300.7941369
301.4250277
300.9347393
299.9025769
298.5931941
299.3062817
299.8863821
300.1282621
300.176686
300.5100005
300.5037062
300.2458176
300.7531335
300.733731
302.6216082
302.1747721
301.0958706
300.0521812
298.2732557
298.9099736
299.0439551
299.6296641
301.3046966
301.0664367
300.5863497
300.7637242
300.1478846
301.0162021
298.4576107
296.9611881
297.2614189
299.1295429
301.6272157
301.5169924
300.4705775
300.316221
299.4190934
299.8073225
298.8282401
297.3581996
297.9406851
298.5307521
298.4025938
297.8550917
299.1296644
300.0441495
298.4536908
298.4539605
301.0622385
302.2825865
303.8913362
301.2225118
300.2089864
299.0986971
298.1029466
297.9353538
297.9871757
298.9531726
297.2204229
297.1087245
296.6386873
295.900668
297.3825706
298.0022395
299.4468575
300.9537143
301.3684307
300.3560859
299.8143015
300.0366524
299.9670257
300.6247084
301.8650905
300.5385944
297.9763319
297.4576814
296.4357282
297.4406776
298.2105491
298.4204798
297.9523711
297.4420566
297.8508986
298.5769966
299.3053236
300.4563781
300.1894429
299.9445533
299.1686266
298.5168432
298.2729375
297.1354364
296.4470049
297.9202004
297.8949385
299.0568922
300.3738099
298.6140363
301.0551309
300.5392787
300.9617173
300.0591525
301.2528457
302.8317791
301.0313275
300.8677933
300.9095363
300.947073
299.1806188
300.3604745
301.16784
304.8921049
304.6955646
302.58986
301.7612261
301.8595058
299.9340759
300.1455149
302.2213841
302.6745203
302.7535299
302.1530719
301.8516067
303.7176337
302.6937412
301.4562769
300.160405
300.1019527
301.1813946
302.1042728
304.4852212
302.0276556
301.9884883
301.035516
300.2084805
300.8611524
301.4026031
301.320363
300.795508
300.6706065
300.2103972
301.4845743
300.5541896
300.0244939
299.3041128
298.7353114
299.0569827
298.8109202
297.8682345
299.4005311
299.4189045
300.3761488
300.6230111
300.5593832
301.8425421
301.9960326
301.7823129
302.0922566
299.7531101
299.5995069
299.0144739
297.3086081
295.9190124
296.92151
296.7506646
298.0207853
297.3650255
297.522993
299.3782483
301.264864
299.6555211
300.0814941
299.8801709
300.7869115
300.9012656
299.593946
301.4898798
299.4608487
299.5909375
299.2929556
299.7925622
299.1799709
300.2999762
300.5538965
299.7964308
299.9798018
301.9675683
302.8340124
302.125096
300.1484033
300.1855604
299.919252
299.8434535
300.8272648
298.3150353
298.7369051
298.7606074
299.6309313
300.0413747
300.4216338
302.8535517
302.2311095
301.8280059
302.9448269
302.8377935
304.3994886
302.533608
302.1643547
301.845953
301.9060147
303.0450268
300.6465891
300.4227144
300.08671
299.7714177
299.0097266
298.0642036
298.4503623
298.1290534
297.4720166
297.6322653
298.1020055
298.9943093
299.690729
301.3926978
300.872458
300.6376935
301.0341876
299.7082149
300.3009314
299.7000896
298.8683913
298.9143504
298.6951648
298.9097178
298.8837666
297.4384844
298.3689218
299.5447451
300.1124643
300.8985111
301.8034125
302.9833435
302.1128758
300.8284417
299.2546413
299.6878892
299.3348906
300.3447583
299.487073
300.2918873
299.2871726
300.1318788
300.3829265
300.5951768
300.6015402
299.880951
298.9985647
297.4082303
298.6555846
297.7732969
296.3442644
296.229811
297.3128664
298.1101991
299.7676919
300.7999784
302.5197078
303.7329495
302.9054951
303.4238737
302.218026
302.3144015
301.9968245
299.4915942
299.2758709
298.480291
298.1976634
299.5548435
297.5494633
297.1681144
297.6455045
298.4819223
298.7492042
298.4929625
299.9987708
298.6997675
299.4409855
298.4216134
299.3661849
299.9751147
300.0277021
301.8620988
300.1260272
300.1476478
300.5370031
299.5632669
299.618942
301.2243653
301.7167228
299.8859136
299.6582894
297.7819166
298.2646276
298.6053876
299.3488724
300.0171142
300.222206
302.1175141
303.0964691
301.5051937
302.077135
302.0825807
301.2805433
302.0950617
301.1274876
301.9816415
300.78501
301.662285
300.8815382
301.2373136
301.2736925
303.0513475
302.5654845
302.8016799
302.4381511
302.4289994
302.9699201
302.174363
300.9502483
299.2778903
299.8961505
298.5060984
299.8732314
301.2681474
301.2966316
301.8803432
301.4649715
301.6252244
301.9109672
302.3143851
300.8208873
297.9903516
298.7072195
300.3229411
300.4448963
298.3053587
299.816965
300.457603
299.0538604
298.014123
298.283717
298.1603746
297.4000553
297.5200448
298.6413813
300.3588859
299.8083152
301.1429682
300.3575082
298.289777
298.6215085
299.6632138
300.0196524
299.9194585
298.2289399
298.2619734
299.1884137
298.0879376
299.6436021
301.338906
302.3840202
303.7412245
304.7510827
306.1074574
304.4660133
306.0641895
302.7869801
300.6793945
301.8526588
300.8050322
301.4036883
299.9517051
302.2264337
301.7697137
301.945379
300.0927465
299.9854782
300.3178135
300.7027154
299.2683562
298.705112
297.7202943
298.0454975
300.407658
301.5372545
299.9103602
300.2986851
301.6743988
300.9395704
302.4450355
302.4332975
301.1127387
300.3291187
299.9582081
299.3837311
299.6101624
300.2177126
301.9131057
301.9005368
300.5745177
301.0193067
301.5175273
301.2670896
300.4289832
299.495317
301.8884546
299.9108809
301.0314292
300.8228196
299.9415608
301.4389242
302.2477759
302.3286074
301.6066075
301.7187152
299.9966693
298.7817285
299.1798746
298.1359133
298.9376134
299.4636085
299.6898886
300.572727
300.0178533
298.9107054
297.8527966
299.2319196
299.4128078
298.5428106
299.5074947
298.3591201
299.2433392
298.7531454
300.426448
301.555438
301.4892244
302.6784399
302.6196134
302.3637978
300.6055175
300.4229651
302.2770463
300.0978184
300.7492958
301.3544209
302.0131345
301.0236919
300.3699967
300.9641023
299.3950949
298.8711683
299.5391448
298.4655174
298.273821
298.7911314
301.0019928
301.0959486
300.8801629
298.5333885
298.7100315
298.3796542
299.1886923
299.7818324
299.5172308
299.6204896
298.2535918
298.7711285
299.9753189
299.8663319
299.9536481
300.4134518
300.3181733
300.7341473
300.203666
299.2561222
299.2725761
299.1062466
297.2579286
296.7380665
299.0924151
300.3722693
300.5128548
300.2034293
298.7696662
297.3073802
298.8190911
298.4673575
301.5212483
300.720325
300.7585451
301.2657115
302.0618911
300.0636519
301.8113394
302.3014889
299.7383844
297.5194165
297.9702863
298.4335389
299.105402
299.9419412
300.3844618
299.4919792
300.3105931
301.5724071
302.94285
303.3325453
301.3052695
300.740614
301.2796403
300.6711144
302.4463321
301.1994081
299.4076176
299.3030466
299.3241871
301.7625643
302.8765137
301.0549555
299.9236077
299.7937392
299.0956698
300.2999694
299.5900746
299.7817802
299.8405254
299.1897892
300.066652
298.943478
298.2207352
297.6395569
297.20232
299.5209897
299.5009364
298.7226519
300.0651754
297.852621
298.9432597
299.0178167
299.6374838
298.7962012
299.3909147
298.2790531
299.4210701
299.9426802
300.359816
299.658205
299.5552081
300.5207533
300.1022097
300.7524412
301.7389245
300.0617492
300.3176527
299.5677403
300.0477631
298.2427761
298.3167454
297.383474
297.0320473
298.2444325
298.6380246
299.7331417
300.2054788
300.1497238
299.2097501
299.7744337
300.3296015
297.221932
299.5549327
299.2135391
297.6411351
297.8216289
298.1704093
300.3056022
299.9785475
301.7518795
300.9753276
300.6242753
300.2856866
297.7091566
298.7581264
299.9945348
299.674082
299.2743686
301.5345661
301.8206308
299.0958797
300.9149825
301.4723805
303.3003762
302.0879236
302.3473146
301.1784601
301.2043851
300.1056635
299.0899647
298.0387674
298.1936138
299.3896776
300.6166335
299.8630044
299.1591159
301.1942429
300.2302765
299.1265142
297.4541503
301.2606399
300.9348926
301.4997598
300.5242936
301.3313807
302.5534876
301.033098
300.0496658
301.2156369
300.588497
300.9258862
301.9640318
301.1283061
301.5610333
300.5613436
302.1531719
299.8635937
299.5376184
298.5725033
301.3058355
302.056386
301.185243
303.0765575
303.5355989
304.0365016
302.3729917
302.0744889
301.6651783
300.1385458
299.6254394
300.2439668
301.7323235
302.0271735
303.4005412
303.8250278
301.0924026
302.0655072
300.5405234
301.4024113
301.7025636
301.7585798
302.5856668
301.0408473
303.1025884
303.0167309
303.5283667
301.6904363
301.4020524
302.0108004
301.977757
302.4441297
302.4155663
301.744952
299.4462419
299.0064892
299.6585732
298.8559291
299.7539833
300.3330115
300.6820261
300.3308605
300.6413958
301.3684356
301.3010298
300.798401
299.6790064
300.2707652
301.0069105
299.5391504
300.1249337
299.2625748