/*--------------------------------*- C++ -*----------------------------------*\
| =========                 |                                                 |
| \\      /  F ield         | OpenFOAM: The Open Source CFD Toolbox           |
|  \\    /   O peration     | Version:  v1706                                 |
|   \\  /    A nd           | Web:      www.OpenFOAM.com                      |
|    \\/     M anipulation  |                                                 |
\*---------------------------------------------------------------------------*/
FoamFile
{
    version     2.0;
    format      ascii;
    class       volScalarField;
    location    "0.02";
    object      rotationalT_N2;
}
// * * * * * * * * * * * * * * * * * * * * * * * * * * * * * * * * * * * * * //

dimensions      [0 0 0 1 0 0 0];


internalField   nonuniform List<scalar> 
5120
(
299.4732704
299.9827708
300.2648931
300.173491
300.8319926
300.1199178
300.0369734
299.992203
300.5761491
300.1655455
300.2642609
300.6178537
301.1209721
300.0510882
299.9929328
299.7202511
299.7596696
299.4736558
299.4572303
299.7654851
300.8781286
301.6514941
302.0251063
301.2219496
300.9652689
301.5344621
301.0142835
300.8326122
300.6633225
301.779443
301.0715662
301.2790982
301.4075706
301.5439065
300.9293223
300.5940082
300.4833569
300.6785532
300.2843769
301.2007205
302.1780986
301.7521634
300.8943782
301.911305
301.4319154
300.9636338
300.9917707
301.2408265
300.2977761
300.2992213
299.9351636
300.364367
299.7788438
300.1087862
299.9380005
300.4157891
300.5582527
300.416435
300.813811
300.9388362
300.6455472
300.09625
300.748386
300.1908397
300.11249
300.4090106
301.2504028
300.6334335
300.5538305
301.041918
300.7000113
300.5265649
300.6054017
300.582983
300.4544293
300.7562028
301.5508615
301.4894747
301.2770826
300.334238
299.972826
300.2807761
299.7304645
299.8033506
299.5824916
299.6907365
301.2623424
300.9802021
301.7812367
302.1286743
300.9226621
300.3433991
301.0446802
300.7026849
301.0888313
300.907639
301.5115541
300.5675546
300.3888731
300.5473071
301.7535081
300.8111246
300.1435176
299.7336212
299.9948662
299.5442036
299.2683984
299.7575734
298.7598726
300.2232767
300.8220403
300.2015422
299.7948396
299.2032602
299.0836894
299.7737299
300.8477948
300.6746222
300.9859022
301.9620358
300.5900677
302.2752564
302.0862288
301.3960112
301.170344
300.024829
299.9515042
300.3335834
300.6978252
299.9644705
299.9739707
300.0011284
301.3975715
302.2043714
301.9467339
301.0276547
300.4261474
299.8890194
299.3840164
299.4965089
301.0181787
300.1820708
299.600307
300.3628495
300.202063
300.0534954
300.3933202
300.3222851
300.3372335
301.0253325
301.61671
301.3960716
301.1698479
301.2633574
301.1589989
301.1931067
301.3810718
301.6105669
302.273115
301.8010233
300.7964197
301.1342913
301.349316
301.5681727
299.8947443
299.817166
300.6759633
300.8180839
300.7990752
300.7825416
300.2615072
301.4433719
301.9561396
301.2326132
300.9940837
300.4423762
301.0456715
300.8982748
300.6464574
300.4262392
299.519672
299.4175298
299.808599
300.9194854
301.7662628
302.8705897
301.8233843
300.4266018
300.4043721
300.7832767
300.7944065
301.1756592
301.6985482
301.8740021
301.9183726
301.8115146
301.632851
300.9270191
300.6708023
300.2880417
301.8723143
302.2190691
301.5977335
300.7955771
301.9083554
301.6391756
301.1486023
301.3770777
300.8781566
300.5051418
300.4020522
299.6304695
298.4138022
297.9924776
298.0944778
299.3969371
299.9776966
300.2968322
300.6567981
300.8645862
301.7339659
301.3347543
301.5897929
301.7766979
301.516967
300.1066591
299.6560183
299.2513619
299.2562833
299.5705628
299.9181183
300.6982426
300.8249301
301.3111684
301.1913294
300.4564755
300.2638039
301.0364095
300.4494789
300.9427705
300.8620555
300.1878106
300.7264071
300.9175894
301.0793758
300.4713736
300.3301576
300.2297912
299.9954214
299.5832896
300.2269237
301.5331402
302.2237033
302.0437957
301.7900561
301.5427846
301.3803741
300.9541567
300.7079193
300.8763502
300.1386523
300.0774392
300.0747599
300.3987775
299.2482945
298.7126424
299.2457019
298.6462997
299.3520362
300.7794379
300.6408057
300.5783306
300.9266946
300.5070714
300.1048911
300.2710061
299.2708313
299.3548563
299.9353497
299.3109089
300.5685763
300.786765
301.1718754
300.0132159
300.0298101
299.3512743
299.0804439
298.6933679
298.4752873
298.6602845
299.2976658
299.2805564
300.3605018
299.6041579
300.5770435
300.3587369
300.3639986
300.4747716
300.4117127
300.8833885
299.9545351
299.6121159
300.1643304
299.9085487
299.1137531
299.2469043
300.6089544
300.2498784
300.5410811
299.8523847
298.8780572
298.9877373
299.0596776
298.9680584
299.1250438
299.8292663
300.160058
300.0826189
299.1354861
299.4364981
300.0064975
299.3183275
298.8252971
299.4464532
299.6220024
299.8883769
300.690404
299.7052428
300.5272764
301.8812765
301.3740766
301.0709347
301.2562685
301.3211043
301.3439602
301.2699287
300.1671128
300.5204991
300.3763207
300.7022467
300.1359603
299.4059749
298.9880444
299.5497024
300.981838
302.3964482
301.9919117
301.3276922
300.4251107
300.0578778
300.0535986
300.2634032
301.8097998
301.7519686
301.9312786
300.8309009
300.8588862
300.5469814
300.7336756
298.9693456
299.6229598
299.9861074
300.6600368
299.4274563
299.4966043
299.5574563
299.8223173
299.6053318
299.5347265
300.678824
300.5611911
300.1234534
300.1741906
299.9603222
300.2390234
300.2637768
300.352762
300.5574311
300.0385074
300.1100859
300.4431793
299.6825674
299.741252
299.3587493
298.0293988
297.8580053
298.3515343
298.9431364
299.4103313
299.7243376
299.3975081
300.0407388
299.8487085
299.9610459
299.6361608
299.2906772
300.0953909
300.6355142
299.857989
300.7529893
298.7504918
299.4932415
299.0235466
299.5352329
300.1759323
300.2278639
299.4899868
300.2805156
300.8877909
300.8288604
301.1204707
301.0004225
301.2792538
301.8444745
301.8815103
301.7530744
300.324662
299.3865359
299.2259165
298.6289273
300.0131233
299.6074065
300.8217206
302.0593269
301.5067402
300.6893417
300.642978
300.2388773
299.9559152
299.0718296
299.089396
299.5106476
299.6635784
300.3016388
299.7197505
299.7882478
298.8125138
299.781629
300.1906155
299.8502089
300.4594372
301.7340347
301.7702268
302.0996827
301.6152265
302.1954499
301.7037217
300.4794194
300.0259623
300.5062856
301.7136194
302.3970264
300.623268
300.3220422
299.8415983
300.0668251
300.3418768
300.4184968
300.2126002
300.051125
300.7701418
301.5330731
301.9316458
301.1628991
300.8886079
301.2298018
302.1834427
301.406385
301.2462957
301.1351197
300.3280184
300.459685
300.2686373
300.3701876
300.5408383
300.7686724
301.3224207
300.8547014
300.1780784
299.9695817
301.8109991
300.9020484
301.7235016
302.4731335
302.6328497
301.8274591
301.852198
302.1581941
301.8746529
302.1243295
301.8668579
301.8038597
301.7432604
302.7577338
303.0456116
300.9715618
300.6524838
301.17581
301.6126205
301.6076534
300.6662713
301.0743045
300.7246798
300.2538324
300.134677
300.4402302
301.5010189
302.9374871
303.9678144
303.7958042
304.4382727
303.694658
303.1793048
302.6113627
301.9996162
301.5840169
301.1051245
300.3635017
299.7901619
300.4660537
300.541193
300.0001441
300.0301794
300.5779633
301.1189199
301.0387513
301.0705336
300.9464097
300.8517728
300.2906334
301.7985601
302.0757301
301.9601623
301.2099267
301.7061531
301.4095935
300.9786455
300.2731731
300.1075148
300.0042859
301.2913023
301.5353281
301.9544508
302.1973884
302.1715942
301.4197295
301.7340484
302.2126638
302.9090668
302.02524
301.707551
301.3435047
300.9496857
300.7397843
300.6835136
299.694432
299.9269715
300.9858491
301.0116636
301.1395734
300.2693843
300.8746216
301.4478171
301.4437019
301.9053624
301.9788299
302.4768488
302.1510182
302.2289609
302.322192
301.4592517
300.7000455
300.9429721
301.7088677
302.5080844
302.4161534
302.5656601
302.455103
301.8047749
300.2195077
300.9332461
300.8926323
300.5691814
301.3434677
300.767027
301.5217346
301.2215734
302.6113187
302.2555251
301.2793847
301.1432709
301.1427155
301.1311954
300.5892884
300.8128836
300.1463827
299.9870299
299.5478847
300.3534387
301.1607674
300.7301169
301.2091346
301.2300977
301.0869878
300.508934
301.3600099
300.839092
300.5426195
300.8461081
300.8529052
302.0095309
301.032738
301.1599006
301.285778
300.9735154
301.5083595
301.3480345
301.0800398
300.6194141
300.6961076
299.1289184
299.1278805
298.1126448
299.094918
299.239923
299.5033318
298.0939817
299.0047982
298.7629149
297.8347465
297.9594345
297.6164142
298.3379088
297.9189722
298.3621794
298.7069991
299.7500102
299.157525
299.8593735
299.6848003
301.5962564
300.5071161
300.5674134
300.5806605
300.9341497
300.3994724
299.8133951
299.1146956
298.4634156
299.2861842
300.1979154
299.9225242
300.3280089
299.8002507
299.4756118
299.8122092
300.4429131
301.3747333
301.7040441
302.1538088
300.4423682
301.5671062
302.4462498
302.4009224
300.8723345
299.5709712
299.2986197
300.4132856
301.3153681
300.8013279
299.8274388
299.8157764
299.3802592
299.5628813
300.3524368
301.1792121
300.7584142
300.7735325
301.8150543
302.001585
300.8732895
300.3783601
300.7425166
300.9793339
300.376039
300.4146793
301.1776005
300.6758511
301.3448896
300.8014109
301.544747
301.3215386
302.4002399
302.5461673
302.6976744
303.21649
302.5249179
301.5106845
300.5623607
300.2981601
300.457425
300.7534284
300.7738296
300.9951907
301.6068929
302.6014444
302.3412443
301.2198867
300.810727
300.100304
301.1373119
300.8338891
300.7333157
300.8067436
300.7018713
299.8810088
299.9254381
301.1284493
301.0302549
300.6917047
300.6309065
300.503552
301.6748345
301.5157287
300.9783453
302.3097189
301.5811183
302.1996415
301.8648504
301.709733
301.310959
300.6687379
300.2422903
300.0677709
300.0237097
300.1450558
300.4027851
301.2427982
301.8187704
300.8070945
300.9761006
300.2119359
300.5009868
299.9415478
300.0613511
301.1694424
301.8599044
300.8492429
300.7290334
299.5654311
300.174931
300.0357567
300.4625034
301.263452
300.9493419
300.2709484
300.1266335
300.6373905
300.7888817
300.8278601
301.673172
300.8715445
301.0823169
301.0737305
300.6948769
300.2576547
300.8462623
301.4006273
301.4451655
301.3975501
300.877956
300.3943396
300.6761947
300.245122
300.5710783
300.3204803
300.6752874
300.3506577
300.8511606
301.4378801
301.2265583
300.8769469
299.1734062
299.8331403
300.5536828
300.9580958
300.8483067
301.0812226
301.7577306
300.9841923
300.8982888
300.6029363
300.4702446
301.1555151
301.5012272
302.1761114
302.862789
301.679462
303.2257722
301.8432013
300.5993429
300.4897553
301.2803936
300.8792455
301.4254504
300.4652919
301.0740942
300.5386693
300.9621629
300.8004814
301.7360839
301.0250429
301.0510902
300.6723507
300.7860626
301.1588848
301.7058246
302.2396745
302.1092193
301.6115058
300.326157
299.4038807
299.3809513
300.414238
300.8990323
300.8661442
300.2871559
300.2599814
299.9632436
299.8644416
298.9484368
299.6625337
300.8043385
301.501691
301.5042905
300.8872736
300.8903509
300.9088145
301.6923848
300.7011039
299.314751
299.7871597
300.0024315
299.8346941
299.3387898
299.7129864
299.6046377
299.848777
299.1585103
299.347593
299.2435869
299.2375502
299.096074
298.5673538
298.4359927
299.2012095
299.3709978
299.8603167
300.5204467
300.4476735
301.2936208
300.5881878
300.3528888
300.8163068
301.7725732
300.8990786
301.6128392
301.7470953
301.3890219
302.0267114
301.1053562
301.2456445
301.9352547
300.7523703
301.6187198
301.5444051
301.3961995
300.415796
301.5449888
300.7735712
302.3069596
302.4499823
301.5473705
300.7087315
300.153899
300.3601784
300.3149077
300.8160559
300.4204793
300.0438166
300.2496946
301.1335944
302.1395999
302.3366088
301.5726446
300.9616387
302.0650382
301.0912382
301.2389391
301.9485411
299.9567893
300.3268665
300.2742172
300.1543631
301.2655031
300.8855834
300.6326958
301.1247204
299.639687
300.2759591
300.840597
300.5851982
299.6411549
300.4523176
300.2028781
301.722184
301.0000654
301.0821328
300.5718783
301.1027051
301.1083911
301.0580222
300.9249384
300.9623785
301.3597169
301.2200296
302.0441104
302.9353444
303.5016909
302.7820361
301.8168189
302.4226864
302.7987374
302.507418
302.1585932
301.7614519
301.3402577
300.5531803
300.4043234
300.7087755
300.2427564
300.7500744
300.8331646
301.3438158
301.4833441
301.6031882
301.2458363
300.7090236
299.9293839
299.932884
300.2770347
300.6750174
301.78695
300.9226015
300.5026667
300.0336532
299.8300093
299.8876219
300.5343263
299.9511318
301.4941041
301.7202048
301.2685111
301.1321205
302.0875642
301.4145394
302.0589941
301.9615143
302.7025854
302.9018208
302.2167742
302.0320147
301.7705911
301.1009981
299.9477815
298.4615112
298.5847413
298.6418528
299.3194057
300.3431034
301.4002552
301.7881637
301.6494813
300.8252097
300.8347966
301.9811295
301.7979896
301.6225409
302.1758257
302.4088381
301.0188936
301.1749955
301.7294639
301.4594229
301.062629
301.8834921
302.0844795
301.7027177
301.604254
300.3879463
303.2494028
302.47588
301.1840453
301.6348784
300.9031612
301.1127669
299.7428422
300.7248556
300.3549949
300.3372648
301.1930636
301.4573143
301.3185543
301.0438155
301.0336836
301.0360202
300.7828973
301.995602
303.0390193
303.3569954
301.0020151
301.1056146
301.4776286
301.0624067
301.7576307
301.1107074
301.2861231
301.385986
302.1236906
302.2339713
302.2911593
301.92807
301.7473953
301.3392897
302.3642791
301.7954836
301.0544839
300.0317713
299.9585381
300.9328127
300.9335527
301.0146768
300.6474661
300.9185992
301.4138335
300.6190128
300.7826328
300.9551155
302.0111906
301.34917
301.6727107
302.0677718
302.8493453
303.6468745
302.5344278
301.9899649
301.6035309
301.4711708
300.6639272
301.2342491
302.9911744
302.870342
302.3634633
301.0937957
300.6028852
300.219725
299.7918651
299.8031427
300.7895595
301.3302801
300.6460507
299.6304932
299.3429951
299.5186166
299.5185313
300.0397891
301.3292736
301.7451754
302.4532108
303.0493356
300.728208
300.8158485
300.628077
300.1970979
300.2480536
299.4923641
300.4003165
301.3040662
301.3165233
301.3041835
301.3476461
302.8707686
301.6661727
301.4488749
301.3330442
300.9577517
301.1997463
301.935169
301.3423368
300.6812598
301.3075281
300.5509701
301.4464311
301.4574769
302.5390408
301.8982064
301.0377791
300.3318615
300.2774112
301.1195322
302.3633475
302.261821
302.0535564
302.0135242
302.3031726
302.235651
301.9196786
301.0543706
300.0698306
300.8782042
300.9497833
301.8180482
301.8819118
300.7179198
300.7876908
301.186531
301.5367848
301.8638002
302.5109816
301.8384548
301.6464507
301.6457496
301.3901952
301.3128387
301.0087375
300.9008132
300.637438
300.5207325
300.9536766
300.8741664
300.1670239
299.531589
299.6145983
299.1695189
299.7497648
300.5201678
301.5602716
301.0928816
302.1704387
301.9311327
303.5268191
302.5287274
302.2582954
301.9813104
302.1355721
301.5388149
301.3215365
300.4193762
299.7064302
300.3091761
302.0146648
301.8944833
301.3846572
300.7089287
300.8819786
299.471181
300.0883206
300.365235
300.535402
300.5449995
299.8989945
300.2331817
299.5842431
299.6849405
300.2889643
300.5851645
301.3604609
302.3636533
301.3881282
301.2468468
300.0883511
300.2068177
301.2771633
301.9098907
300.459062
300.9406226
300.7949005
299.7246855
299.8830044
299.2506518
299.7874227
299.8648168
299.7591618
299.8601247
299.8253227
300.3050559
300.8735912
299.6049773
299.5781595
299.9165539
300.4088447
301.1980645
301.4072885
301.9061539
302.2384242
301.8315224
301.5545158
301.3818706
302.1341227
302.4365491
301.7418234
301.2443324
301.0736551
300.5534599
300.3486591
299.9321573
299.8321361
301.1148883
300.5731689
300.6302182
301.2696845
301.2796096
301.1791647
301.340709
300.9695613
300.4914524
299.7329129
299.3457316
298.8021488
299.1801458
300.4244276
301.5146687
301.2809998
300.5907246
300.5008686
301.0390459
301.1293337
301.5694079
301.4568946
301.1020402
300.5689472
300.7181544
299.5993155
300.515964
299.5624833
298.9370491
299.1237847
299.6551038
299.8408356
300.129608
300.7951033
300.8830603
301.4181013
301.5437065
301.8687368
301.4292823
301.3559708
300.9860806
300.3283603
300.4919047
299.8403755
299.5565761
299.8289649
299.5008871
299.3248683
299.5378256
299.985476
299.1592832
298.206693
297.9160713
299.2368908
299.4885709
299.6928993
300.0379548
300.4209271
300.2612639
300.6940642
301.6644343
301.1783467
300.8181606
300.7079354
299.8064982
300.1740299
299.5855558
299.8406497
300.691507
301.0849027
301.3369406
300.2237626
300.2942755
299.624187
299.550993
299.9862275
299.7366118
299.6564497
300.2521343
299.6261339
299.316786
299.9910258
300.7801723
300.6903957
300.2504749
299.7805226
301.2596749
300.9840671
300.7449782
300.4939393
301.049803
300.8909503
300.6953408
300.5796487
300.6717443
299.9412536
299.344219
300.8884427
301.2587234
301.8037702
302.1018682
301.3094798
300.0911324
301.7847346
301.6022985
301.3809691
301.3412608
300.1789556
299.5718736
300.238829
300.5187563
299.7571172
299.4518419
300.0744136
300.1443297
301.1499741
301.6343128
301.2009155
301.7328848
302.0779136
301.6104814
301.7493125
301.2688858
298.7475041
298.8689556
299.6697465
299.2746924
299.441611
299.938402
300.3548222
299.4663431
300.2614869
299.7793192
300.3617127
300.192276
299.5761637
299.9587104
300.1742307
300.9260684
301.0784664
300.6133796
300.1922758
299.4562017
300.8139254
301.5874499
300.4943353
300.4403808
300.1689542
300.432137
300.208219
300.4967592
300.6201194
300.9179814
300.7849923
300.8222408
300.3165844
299.1323222
300.3809749
299.948183
300.5598147
299.6173957
299.2356599
299.8733064
300.4251696
300.1506814
299.8975626
300.3114012
300.0324522
298.5928943
299.212221
300.4524558
299.9400259
298.5631731
298.8435094
299.1837262
299.3370167
298.9481861
299.1400424
299.7079591
299.5445705
300.0046124
300.1983309
299.8790961
300.0640673
300.0715719
299.8248578
300.5190969
299.7932831
298.9523899
298.3982226
298.2106918
298.7858023
299.1037883
299.6536549
298.4807352
298.6980802
299.0074084
299.1154716
299.3145739
299.7314295
299.5366833
299.0968798
300.163445
300.2933008
300.9205918
300.6918661
300.9075612
301.3371857
302.306426
301.8140055
300.8991044
300.9023667
300.3211233
299.5089987
299.2807626
299.3987369
299.1212672
299.0895096
299.3021936
300.0593798
300.3031054
300.4484738
300.1919476
301.3977777
301.3522028
302.2608869
302.1932429
300.9742451
300.1420257
300.2402685
301.0490568
300.6098412
301.1774644
301.106079
302.4144474
301.865169
301.5765814
301.2638314
300.7773933
299.9080027
299.2561065
300.2366976
300.2564206
300.7283276
300.3648014
299.88432
299.8579234
300.8377798
300.6238278
300.0837549
299.9199988
299.9779323
299.4064843
299.5975442
299.8107161
300.5231925
301.0241508
301.0697502
301.5225703
301.8354695
301.6163247
302.1263842
302.0771313
298.533227
300.2490989
300.760667
301.1375967
301.5647035
302.4029659
302.6177421
301.7266694
300.1835529
300.2751774
300.3001525
299.1456285
299.7209637
299.6506081
300.1806091
300.5610061
300.9872723
301.1844381
300.6314001
299.505715
300.6402707
299.9934283
299.5452079
300.0068873
300.4582262
300.6124935
299.8720657
300.3644516
301.8725617
301.5149477
301.4377348
301.6172569
302.3820304
302.3481743
301.7162815
301.5302337
300.3635397
300.8852056
301.5671164
300.4771215
300.6653398
301.6745216
301.004343
300.8192636
300.952063
301.1536683
301.9420219
301.3644112
300.8226215
300.224826
300.3528507
300.4100548
299.1735504
299.1646803
299.3335044
299.5985942
299.5852419
299.4274918
299.1559181
300.8173232
301.6884874
301.3960731
301.6488485
301.4743933
300.7677464
300.3041935
300.2575388
300.9623624
300.6626383
300.7303821
299.9966392
298.9559536
299.037216
299.7665998
300.1339739
300.4199989
301.1686941
300.3979956
300.5864733
301.2194553
300.5244305
300.0156334
301.4383576
300.4782911
300.510776
300.320187
300.241385
300.1667252
301.3502937
301.5190048
301.5729047
301.2332578
300.2964241
300.7044946
300.9515476
300.4482908
299.8728096
300.8354184
300.6440501
300.091739
300.1162999
300.156191
300.3815799
300.2666866
300.598142
300.5166892
299.5896366
300.5731051
300.9082033
300.7157413
300.2082591
299.9401115
299.6975354
300.0032102
300.7571946
300.9025197
301.0225674
299.8470693
299.9862233
299.624843
299.6907329
299.9995323
300.3732315
301.2395909
301.4628146
302.0420464
301.6197377
300.7022144
301.0108083
300.439098
300.3680134
301.3134579
301.1014832
300.0959246
300.8132847
300.7911598
299.2881586
299.4963167
299.7674036
299.0178011
302.0663025
301.853415
301.6871073
301.6015985
300.9410009
301.0760381
300.4499574
300.6779089
300.3931719
301.6873003
301.1372283
300.7602552
301.381144
301.4691238
301.485342
301.331673
301.7816498
301.172547
300.2968542
302.1335346
300.5180262
300.1466512
299.8783469
299.3937515
300.1381226
299.5387921
298.5105511
300.0646344
300.2995646
300.3125401
299.9046847
300.0827134
300.2108638
301.0357073
300.4550021
300.4498262
300.0482782
300.2334284
300.0912142
300.0142661
300.0045139
299.216267
299.5973327
300.5025953
301.0660891
300.7157614
301.0128157
299.9665175
300.3785361
299.5300665
299.9690931
300.8617964
300.5496244
299.9503584
301.8917629
301.3713409
300.9344319
300.7283278
301.2399548
301.3479128
298.3293321
299.8423826
301.0616698
300.8472607
300.1027458
300.4507666
300.2638683
299.244417
298.3042083
298.9316187
299.2451474
298.0483331
297.931909
298.4434232
297.9835986
298.3192291
298.9034347
299.1947984
298.9652184
298.7589355
300.2166949
300.7683836
300.8617066
300.4430553
301.1001038
301.6230821
301.5768134
300.4569096
300.5044098
300.0521831
300.1347868
300.1349601
300.6045137
299.7078434
299.3302616
299.7576002
298.9246268
299.6372565
299.5099311
300.3613141
298.1112901
297.4405933
297.7895657
298.2437067
299.0459588
298.9939487
298.7485294
298.4778606
299.1893087
299.2067062
299.5741352
299.6874494
300.3562813
299.5691257
300.1336775
299.9280372
300.4622981
299.9177651
299.2647929
297.7794898
300.354863
299.7866227
300.4627166
300.5592322
299.865514
300.4114055
301.2471874
301.4778845
300.5043238
300.2052419
299.7494877
298.7693026
298.8222758
299.1362364
298.7344567
299.5191573
300.1903183
300.4838243
300.2209248
299.7137948
300.6980888
300.9054266
301.0508705
301.8513401
301.0572961
301.1446507
300.2782605
299.9279881
300.1986059
299.7849763
300.1528723
299.9588678
300.3756891
300.6341432
300.3668428
299.6742165
299.6747251
300.4055437
301.1297929
300.4050886
301.3443327
301.6320683
301.2377798
300.0157454
299.2453016
298.8735714
299.6894487
299.1988015
300.1636989
301.1949803
300.9146861
300.6260235
300.0993051
299.5656743
299.4115361
300.038746
299.963344
300.8902186
300.5676371
300.4590413
300.241259
300.6463337
300.7574626
300.8283499
301.2700304
299.9272117
300.7988483
300.2394528
300.5714324
300.616288
299.641122
300.7697417
300.7275733
300.4099159
301.1213499
299.7570836
299.4667894
298.8660619
300.0817886
300.2033951
300.0049023
300.535723
300.2990652
300.8468098
300.8821963
302.0469498
301.4241939
300.9897023
300.0944448
301.7037927
301.7771893
301.5581237
301.2452024
301.0206593
300.6378235
300.7790409
300.8230666
300.2124588
299.17752
300.1305674
300.8716492
300.1728407
300.6733283
300.7469672
299.8730035
299.2492326
299.4448758
300.5918471
301.0712425
300.6594537
300.2058437
300.6958203
301.548702
301.6227241
301.6256396
301.3346274
301.2161531
301.3839076
301.4799934
301.2686012
301.6498619
300.4144977
300.8550452
300.9543329
300.9964897
301.314329
301.3053653
300.8227001
300.9845419
300.6666216
301.080256
301.4981019
301.664243
302.0457577
301.6441091
302.2349997
302.2271301
302.2823267
302.3116003
302.5905408
301.2838174
301.5565263
300.3230921
300.858329
301.2958986
301.751666
301.5871464
300.0629307
300.5063333
300.086877
299.8967374
300.4075417
301.1017925
300.8927766
300.1812017
300.4397565
300.1516085
300.1676961
300.1778716
300.9618376
300.4485816
300.9069414
300.9524687
300.6391368
300.8741032
300.2872896
301.479817
302.235359
302.4257973
302.7141799
303.511104
302.5439513
301.3870211
300.5441376
300.6369943
299.3765595
300.0822801
300.1167524
301.3163404
301.7764975
298.7569902
299.7504957
300.4638368
300.9744743
300.9252011
299.1754224
299.9035645
300.1900781
300.6024596
301.5209337
300.6279973
300.6989527
300.807844
300.7032129
300.8057768
300.4256933
300.402432
299.3000177
299.125807
298.8091578
300.0089706
300.0005681
300.6804855
300.4148763
301.2929669
301.7095335
300.9319824
300.7576397
299.5051596
301.180537
302.2860187
301.3396962
301.3184128
301.4230391
300.9847132
300.8305202
301.5468054
300.5533172
300.7116612
300.7607687
300.8255699
300.8128601
301.3143517
301.2494839
300.000613
300.8190629
300.800463
300.8454771
300.4831594
299.8054549
300.080247
299.9829858
299.9277028
300.7614185
300.8725893
300.6230947
300.6293534
300.3258129
299.9942147
301.0044342
299.988701
300.5541054
299.8592917
299.1125496
300.1977704
299.6483722
299.6841371
299.5917189
298.8561052
299.5106484
300.0319353
300.1622853
299.4511796
299.8714757
299.5740563
300.6992015
300.5658714
300.1324618
299.4700436
299.4537771
300.2182426
299.0121676
298.9259954
299.1588286
300.1890895
299.6211211
300.1833036
300.6734327
300.6809636
299.5744721
299.4052834
300.6865163
300.4157504
300.5222845
299.8613139
299.3801281
299.9340478
300.3530847
299.9495889
300.8323307
300.1703253
300.5475399
301.2378562
301.6468794
301.0748469
301.0805865
300.7745516
299.9499341
300.0985159
299.7266798
299.9893852
299.7977932
299.1314385
299.6080561
300.0946759
300.1984155
300.17879
299.6524484
300.1531998
299.4527477
300.2511148
299.2900046
298.8268321
298.0473936
298.6026053
298.2046956
298.6896807
299.2875417
299.7371737
299.7304609
299.6393545
300.9216346
300.3857167
301.2786324
300.6763815
300.2100934
299.6857738
299.8060481
300.0010601
300.6029924
298.894377
298.7345032
299.4436849
299.5798306
300.0837154
300.1017306
299.227932
299.1627848
299.9653877
300.313264
300.2951339
300.5222635
299.8666039
298.7109279
298.6570182
298.7574377
297.3098248
298.0979485
298.8709344
300.0005859
300.5886918
300.0296699
299.6595503
300.1755461
300.6283919
300.3588884
300.8811317
301.4981579
301.3800455
301.2817863
300.874115
299.9483826
299.8072451
299.9362128
299.739313
301.0634587
302.2123925
300.4278151
300.2881931
300.0411194
301.0293714
300.5790594
299.9312411
299.9751179
299.9769027
299.3821703
300.2744186
300.8295345
300.9153597
300.5824471
300.2782377
300.1917872
300.6872725
301.8299823
302.1090637
300.9194717
300.2458136
300.7073455
300.9129714
300.1187282
301.8445177
300.9929534
300.3336208
300.3437024
300.531553
300.1510675
298.8723869
298.5544703
298.0103411
296.84126
297.8170126
299.1801142
300.280708
300.4887237
301.4044956
301.4719274
302.9435172
302.2053328
302.4910788
302.4077222
300.8237271
300.9149198
301.6895361
301.5905656
301.6033895
300.9347728
301.906549
301.4490098
301.5203273
300.9068886
300.7909807
300.4775179
300.7857152
300.6356033
300.3889485
301.237905
300.2890077
300.7207799
301.3954617
301.4457809
301.5580468
301.2522792
300.6854799
299.5873974
300.7993455
301.7987392
302.4290246
301.8763916
301.2225794
301.1332961
300.8081922
300.9425551
299.6570934
299.5844313
300.524724
300.5779763
301.39988
300.6717656
301.4567922
301.4418005
302.0096107
302.0525681
301.2602612
300.8145
300.1763917
300.6378079
301.182881
302.053847
302.4443847
301.38069
301.4287826
301.6506984
302.0607492
301.8446324
300.8834932
301.4699122
301.9609041
303.0945515
303.1119203
302.5347998
300.1390893
301.5646351
302.2878268
302.3831863
301.7644929
301.0692378
301.509884
301.2679028
301.5866259
301.8436215
301.6834591
301.5742665
300.2631328
301.7465403
301.1864991
299.9954253
299.7846949
299.6592855
299.3749353
300.1146037
300.9956625
300.7363548
300.0957311
300.5247302
300.2726206
301.0699005
300.638457
300.6741077
300.4837611
300.1829731
300.2714736
300.1669953
300.4723605
300.753179
301.4254624
301.4766547
302.0810564
300.8042995
300.4079539
301.2761715
300.366592
300.6823342
300.7581216
300.3120876
300.4707985
300.044079
300.1315352
300.1723978
299.7061197
299.7780884
298.38768
298.2852932
298.4815084
299.1276005
298.689132
299.0522937
298.7674049
299.2542335
300.1916455
299.5331658
300.7507051
300.3596097
300.0353537
300.5776734
300.0454823
299.7257965
300.1056046
300.7094591
300.2652131
300.1727612
300.5731265
300.0696933
300.7886054
301.0037081
301.5041654
301.7865407
301.6584076
301.6808582
301.3600073
301.1498189
300.792848
301.2945951
299.3425411
299.9457477
300.5682198
301.3075449
301.288727
301.2420561
301.5864387
301.5372358
301.1113035
300.2292108
300.1918746
300.4066157
299.9515153
299.6747147
300.3295762
300.2274131
299.9372793
300.5155541
298.9559552
299.6329167
300.8868278
300.4283519
299.4536418
299.0023935
300.2370382
300.6809786
299.8868413
300.5175525
299.5133692
299.1394697
299.4112774
299.1716045
299.5175086
299.5924585
299.6843233
299.7960953
299.3914524
299.5917836
300.4587673
300.58546
300.7232532
300.1678526
299.5553118
298.5689998
299.2092979
298.8672173
298.1709464
299.2020859
299.8527023
300.6138951
299.7720757
300.3044887
300.6862357
300.0962669
299.2517294
299.6340943
299.1301791
299.6387281
299.3666979
299.7639646
299.1041859
298.8891009
299.5336983
300.5292777
300.219853
301.0136115
300.6215806
300.8402637
300.5329125
300.8381592
300.9191139
299.7769198
300.8999258
300.4839205
299.9288039
299.7412469
299.6610596
299.3837934
301.4071863
301.5537305
301.4525904
300.6844867
300.9147232
300.104898
299.3439159
299.1862656
299.3797764
298.9879277
299.0347256
299.7099495
300.3899526
301.5310382
300.9218286
300.7065862
301.315565
301.4728064
301.989863
301.4368209
299.9771512
299.8329186
299.1348549
299.4962243
299.9942793
300.6158024
300.7208626
300.38655
299.6569014
299.7097675
300.049185
300.7306701
300.4368138
301.2364146
300.9439262
301.4242009
301.9866751
301.7299656
300.5626937
299.7188094
301.9175541
301.9406698
302.28567
302.2010326
301.611829
301.4947353
301.2451335
300.2770914
300.573985
299.9149855
299.4340054
299.9510117
299.7883705
300.1850157
299.9958369
300.1063048
299.7682757
300.1109951
301.1088182
301.8086405
300.4059399
301.3622154
302.0221985
301.4450803
301.7249315
302.1057218
301.3919993
301.0574539
301.3613809
301.5478711
301.1223874
301.0006817
300.6679073
299.7495654
299.4915158
300.3232854
301.399805
301.1768913
300.7191122
300.6885193
300.9159822
299.963857
299.8826568
299.8808406
300.0001921
300.3610903
301.0572782
301.031704