/*--------------------------------*- C++ -*----------------------------------*\
| =========                 |                                                 |
| \\      /  F ield         | OpenFOAM: The Open Source CFD Toolbox           |
|  \\    /   O peration     | Version:  v1706                                 |
|   \\  /    A nd           | Web:      www.OpenFOAM.com                      |
|    \\/     M anipulation  |                                                 |
\*---------------------------------------------------------------------------*/
FoamFile
{
    version     2.0;
    format      ascii;
    class       volVectorField;
    location    "0.02";
    object      UMean_O2;
}
// * * * * * * * * * * * * * * * * * * * * * * * * * * * * * * * * * * * * * //

dimensions      [0 1 -1 0 0 0 0];


internalField   nonuniform List<vector> 
5120
(
(1949.171785 0.9321019912 1.565156481)
(1947.757567 -0.3372489324 1.745416234)
(1947.321384 1.17435752 1.857334557)
(1948.704341 0.9014685315 -0.08221068091)
(1948.608029 1.704706725 0.7109689954)
(1949.121325 1.15057739 1.755752683)
(1951.732589 -0.04881720464 2.699985509)
(1953.033187 0.01583981915 2.132352623)
(1952.506254 -0.978054934 0.9011093737)
(1953.117517 -2.303820337 0.2928064937)
(1951.368031 -1.354636911 -0.3962314155)
(1952.071664 -1.01052732 -1.119948908)
(1952.175541 2.055336742 -0.7755223617)
(1951.774935 0.3867338334 0.288466478)
(1950.148729 2.939608816 1.388528426)
(1951.285981 0.4187731216 2.520736122)
(1951.231596 -0.6116058769 1.091086659)
(1950.269721 0.08669006624 -1.0756342)
(1950.895075 0.1325187447 0.5342090332)
(1949.525882 0.9541748642 0.7571465058)
(1951.13186 -0.7052965561 1.069427273)
(1948.856459 1.467116923 1.898429753)
(1947.762777 0.5684701795 1.403608876)
(1949.972686 1.836099968 -0.8014226647)
(1951.759661 0.6302306615 -0.7372288369)
(1951.993039 2.578141192 -1.273367719)
(1951.280515 2.532044177 -2.047741597)
(1950.375963 1.677374335 -1.800374912)
(1951.629674 1.069037118 0.9264323145)
(1953.146211 1.94107908 1.498437006)
(1952.522927 1.894060296 1.175234503)
(1952.112724 0.2420718884 0.7942288226)
(1949.862279 -0.2481855287 0.4869628083)
(1950.491496 0.05514868807 0.9371239039)
(1951.796382 -0.2324621386 0.4693197255)
(1951.342837 0.3045856641 1.183076594)
(1948.980972 2.231729559 0.7245191556)
(1949.459415 0.8515388343 1.469106191)
(1948.610614 0.06155383487 2.616612693)
(1949.084659 -0.2475629041 1.823797822)
(1950.667088 2.889302078 1.256639622)
(1952.600116 2.944436859 0.9367042055)
(1952.377686 2.660835966 0.9239569044)
(1950.448125 2.102121657 0.5297615289)
(1948.367671 1.635169641 -0.3194857786)
(1948.067607 2.278197268 0.05142706324)
(1949.184367 2.22627277 0.04709234915)
(1950.494376 2.318050353 -0.401316671)
(1951.342836 1.360292482 -2.491893873)
(1951.520393 1.190052629 -3.31731928)
(1951.050743 0.0753129239 -1.632074951)
(1950.905401 0.8699619253 -0.1846958524)
(1949.688225 0.6240295697 -0.4132277399)
(1950.530364 3.288921183 -0.5267806525)
(1950.543262 2.850854968 0.03790902339)
(1949.833046 2.153847607 1.839752332)
(1949.175459 3.039190348 2.823450523)
(1949.435212 3.334317625 2.402614035)
(1950.651093 3.480027538 1.493928003)
(1951.773755 3.396379582 0.2079011271)
(1953.105856 3.600936091 -0.1105459485)
(1953.200364 3.95002424 -0.4296559535)
(1951.107585 4.256169117 -0.5776747412)
(1951.922612 2.960214454 2.350921517)
(1950.555925 3.023288784 4.811634227)
(1950.033742 2.20053468 4.009553085)
(1949.918985 0.2658798244 2.033395399)
(1950.754856 1.234648951 -0.1255016157)
(1951.588234 0.3707842931 -1.879000506)
(1950.942538 3.009605335 0.07413622224)
(1951.247116 2.294582118 0.08504069078)
(1951.171087 3.221068023 1.695120748)
(1951.640546 3.073251929 0.9715833849)
(1950.863573 1.598471763 1.512770477)
(1950.574133 1.384157085 3.479926932)
(1950.428899 2.736155497 2.245424796)
(1950.538617 1.863555795 0.06960054452)
(1951.447031 2.579194409 -0.6622074652)
(1951.842096 2.394496668 1.426152969)
(1951.792123 3.365305894 0.08012339266)
(1950.964918 3.597918251 2.602155346)
(1953.713878 1.796520156 2.226195589)
(1952.002094 2.483106442 1.25288229)
(1950.150607 1.676378344 3.388401368)
(1949.876016 1.497778602 3.875581021)
(1951.638218 4.587892724 3.672011542)
(1951.296603 5.349210808 3.772677133)
(1948.590384 3.837404906 2.947862671)
(1951.580027 2.564249467 1.240460334)
(1951.712596 1.319942015 0.821886776)
(1951.842126 1.568568974 -0.4369709361)
(1952.954045 2.630027984 1.060650131)
(1953.083905 0.7825935138 1.486791998)
(1952.866199 2.999127064 1.299581415)
(1951.505563 2.382958387 0.939567987)
(1952.23181 1.672872403 -0.5068510321)
(1951.033657 1.790215563 -0.1663823447)
(1951.97381 1.893949359 0.3753143913)
(1952.072635 0.2629754175 1.406229032)
(1952.319185 0.8703455656 2.350574382)
(1949.798099 1.922592657 2.268654365)
(1950.489904 3.512336932 3.075226141)
(1952.721501 2.544545318 1.961812132)
(1952.608396 3.123882548 3.478114524)
(1953.599083 3.897605767 2.684616983)
(1951.525924 1.677491132 2.111564865)
(1949.768369 0.3346031417 2.867168585)
(1950.095083 0.366892112 2.680881125)
(1950.125208 1.61859931 3.586146863)
(1950.69823 1.864206062 3.043083244)
(1950.021738 0.6335063821 1.859718535)
(1949.130494 -1.503306969 2.118682068)
(1950.902993 -0.1004064717 1.889837918)
(1951.065564 1.879648595 2.274839726)
(1951.675374 3.275840904 1.955339172)
(1949.560271 1.569158512 1.097784047)
(1949.118671 2.448222972 2.055186978)
(1950.45946 3.384891246 1.569200388)
(1950.246888 2.891179004 3.317582167)
(1949.84381 2.376067739 2.642345601)
(1951.302991 1.670201027 3.778492733)
(1950.073115 2.410197619 4.070499509)
(1950.487224 2.039174982 3.59283466)
(1952.082157 1.321219421 1.400196446)
(1951.275378 0.8956770957 -0.05802751757)
(1950.799556 1.061117095 1.200898196)
(1951.864188 1.199630485 0.2210544919)
(1951.562541 1.462569318 0.6345494492)
(1950.617259 -0.253448126 -0.2723698476)
(1950.961426 -0.7339359571 1.220942799)
(1952.281257 0.5503755691 0.6379052921)
(1951.472521 2.354987916 1.447410934)
(1951.763261 4.26766642 1.856326059)
(1951.220098 3.5579719 1.873004988)
(1950.85561 2.618918606 0.4559345715)
(1951.340931 3.110512874 0.7369993573)
(1952.187527 3.131981273 -0.2289200791)
(1951.20404 1.433692734 2.022480679)
(1950.35714 1.600418208 3.349194663)
(1951.442291 3.511170218 3.681188463)
(1951.411592 2.484136765 -0.5439972456)
(1951.65705 -0.9718676102 0.009955021496)
(1953.317933 1.269697609 -1.070994932)
(1955.112834 2.152568637 -1.016108573)
(1955.047317 0.968501462 -0.6384284178)
(1954.213765 2.186889696 0.9148387293)
(1952.413093 0.8027753433 1.224130385)
(1952.182689 1.523300517 0.3262413279)
(1953.173306 2.997030366 -1.421592073)
(1952.965977 4.558914883 -1.909495566)
(1954.260999 5.746364226 -0.7888491339)
(1952.79033 4.133117519 -0.02016021225)
(1953.044194 2.03535801 -1.216307886)
(1951.291637 0.1102089569 -0.8662523131)
(1951.256776 1.569559941 0.2326152626)
(1951.338264 2.010796274 1.156429173)
(1951.505286 3.330575448 2.981534571)
(1951.280832 3.827588658 0.9678266685)
(1951.120252 2.774532661 0.2744045568)
(1950.851854 3.995852249 -1.08900391)
(1951.848482 1.034589866 -2.063229767)
(1954.086357 3.064506537 -0.2146163651)
(1952.667975 2.927200486 -0.7677232767)
(1953.342804 0.8170043401 0.1421839421)
(1953.731622 0.3781428992 -0.7494634417)
(1953.732949 0.5754285013 -0.768384458)
(1953.803503 1.443823886 0.8097801574)
(1954.196429 2.978965389 0.4111220024)
(1954.698077 1.894695874 -0.1522197409)
(1952.907736 1.971056765 0.7740682439)
(1950.544293 2.700808955 2.50577776)
(1950.128812 3.468319205 2.014620602)
(1951.316091 4.069232563 1.699924001)
(1952.429311 3.241442118 2.324542269)
(1952.45271 2.337697711 2.415076376)
(1952.612034 1.574363105 3.712167547)
(1953.004483 0.7813829076 0.2012002814)
(1951.085123 -0.3817998732 -0.4815261446)
(1952.447336 0.5898670448 -0.1562572464)
(1951.419266 -0.4333659958 0.3944968703)
(1952.678777 0.3009101305 0.4464712824)
(1952.140242 0.1254565996 0.7457451145)
(1952.593972 -0.1118891555 2.068552781)
(1951.815998 0.2960683348 2.163451052)
(1953.586306 1.465290919 0.7406083956)
(1953.163599 1.047986546 1.210027343)
(1952.247678 1.746890181 1.735772557)
(1950.938047 0.7813583709 2.004220729)
(1949.481148 1.130762188 1.60464999)
(1948.973809 3.398398008 1.066057325)
(1951.515595 2.121909684 2.058132621)
(1953.062208 1.999252724 2.513888426)
(1952.579028 1.57350882 3.10542785)
(1950.461599 2.358908982 1.458465613)
(1951.038724 2.35959726 0.4298346913)
(1951.504983 2.434530667 1.46975867)
(1950.994065 0.4051075063 1.193707079)
(1952.20602 1.605153514 0.3978838786)
(1952.22007 0.718639805 0.8317709686)
(1953.387867 1.903337186 -0.8946212781)
(1951.247978 -0.1952823785 3.631076378)
(1951.232895 0.756987771 2.982365025)
(1952.623769 2.282492356 3.887531353)
(1952.151377 2.478814116 2.346243216)
(1950.499124 3.245099917 3.601180032)
(1950.63602 3.864559681 2.754667024)
(1949.094736 2.455607823 0.676770854)
(1949.566411 1.376869628 1.344949968)
(1949.477558 2.329735164 3.257802999)
(1949.726703 2.19800313 3.269732347)
(1950.083686 2.820429999 1.826357052)
(1951.358007 2.926326892 2.227211448)
(1951.006439 0.7806978253 1.410352237)
(1951.207427 -0.8476581864 2.755287714)
(1951.778414 0.7706685222 3.419103232)
(1951.318847 1.804333069 2.916802773)
(1951.075746 0.6358249008 1.657738243)
(1950.859358 1.11885117 1.365464985)
(1951.11572 1.41982897 3.023696489)
(1951.451801 0.1726735926 3.891167725)
(1950.271131 1.997086973 -2.818114492)
(1949.689305 2.187999534 -1.600409299)
(1948.605302 2.188445064 -1.312817638)
(1948.614497 2.390302918 -0.2325252504)
(1947.458112 1.05085784 -1.252359866)
(1948.214938 1.343363877 -0.494402047)
(1950.241682 0.9540205779 -2.033278787)
(1950.795297 1.670089018 -0.7001995672)
(1949.505979 1.808181641 -1.498895197)
(1949.256086 2.072678967 0.2928678251)
(1949.055506 1.112544512 0.4053187921)
(1949.520253 -0.1752684733 1.378716181)
(1948.165874 -1.162554916 0.2147282919)
(1948.322531 1.041241732 -0.7316930868)
(1948.641364 -1.32647824 -2.803115434)
(1950.039872 -0.09434125218 -3.756704551)
(1951.020599 2.230758459 -3.542991836)
(1950.554787 1.459417615 -1.633373089)
(1950.969262 2.105216401 -0.4586490348)
(1950.166202 2.28497358 0.02980338517)
(1951.100735 0.214885534 -0.4590196031)
(1951.239385 -0.6560836749 2.270907716)
(1950.322948 1.907638029 3.348972123)
(1949.846095 2.418366981 0.6233314896)
(1950.940761 2.127418389 0.9084516977)
(1949.798439 4.417518579 2.025441383)
(1949.982094 2.851309105 0.9902533954)
(1949.66673 1.104257365 1.733261294)
(1950.700317 -0.2428237098 0.1508013015)
(1948.921164 0.6483113156 -0.8117901131)
(1947.523099 1.845966113 -2.910845812)
(1947.435279 4.064086006 -2.385229801)
(1949.419858 2.938628351 -1.446545767)
(1950.430955 0.8400734646 -1.332342327)
(1950.664918 -0.9232832445 -1.175904965)
(1950.723797 -2.567247765 -0.1488678002)
(1950.317491 0.1717366214 0.8367635523)
(1951.188958 -1.169346285 -0.5215084557)
(1952.135918 -0.8031355789 0.4924443289)
(1951.529449 0.837394407 0.1150621206)
(1949.6026 3.092043794 1.620563716)
(1948.597393 1.804275931 2.004919765)
(1948.371587 1.331194846 1.937928828)
(1950.177806 1.963340866 0.7711786868)
(1951.089421 1.788032578 0.1250829489)
(1952.706967 2.906895536 0.8525329263)
(1953.33351 2.005199824 1.230761665)
(1954.037023 0.6514546314 1.091547859)
(1953.172394 0.2320501339 0.8491969513)
(1953.655495 2.070417456 0.9753083861)
(1952.669486 1.643980858 0.4219508493)
(1951.87902 1.351023603 -1.36180784)
(1951.285546 1.009741467 -2.509389771)
(1952.774605 1.049799251 -0.7411663187)
(1949.524349 2.10048766 -0.4540114006)
(1949.975707 3.060373921 0.1281333051)
(1951.501314 0.2102918742 1.366065507)
(1950.837061 1.930220236 2.57702462)
(1950.093212 0.8401417864 2.015318689)
(1950.599441 1.537822736 1.772495774)
(1952.088357 4.650020206 4.652899671)
(1951.274235 4.730543999 4.496153548)
(1951.735407 2.776031525 2.593822253)
(1950.195372 2.293964982 3.202876224)
(1951.05962 1.633878319 1.928639667)
(1951.569284 0.8469535155 1.770089147)
(1950.423218 -0.3698402932 0.2616104571)
(1949.395404 -0.04846860194 0.0317285546)
(1950.15254 1.624687999 0.7178567671)
(1948.413147 -0.02775605681 -0.4814166905)
(1950.039963 0.3859220526 -1.293724609)
(1949.78723 0.4852097748 -1.95539964)
(1950.999107 1.162114497 -2.21127132)
(1951.802219 2.104502813 -2.859693874)
(1951.754776 1.336250085 -0.8290350521)
(1952.506552 2.190141457 1.800139646)
(1951.902409 2.205132286 -0.004074059704)
(1952.306685 2.737301761 1.399564362)
(1952.474853 4.451294856 1.20320516)
(1952.976841 3.823429952 2.496750123)
(1952.430796 0.7303831836 2.024408865)
(1953.150986 -0.1353783697 0.8246663931)
(1951.359034 1.181028645 -0.02855809619)
(1952.069224 0.6418031128 -1.76365104)
(1950.031164 -0.08257192694 -3.832820754)
(1949.008999 -1.1243887 -1.899292207)
(1949.333459 -2.349983043 0.3813765544)
(1947.596386 -1.952081721 2.199027233)
(1948.669502 -0.2027702528 1.182292202)
(1949.863147 0.8230264741 2.003909696)
(1951.843599 1.080367263 2.976107003)
(1951.931123 0.09747204515 1.015698317)
(1950.497682 0.3922000688 -0.9114505445)
(1948.664129 2.957398799 -1.327499608)
(1948.536337 3.51347922 -1.637273245)
(1950.723261 4.014299904 -3.420202618)
(1952.080288 5.838463328 -1.763090267)
(1952.594919 4.500743843 -0.642585818)
(1952.154223 2.542654329 0.710478435)
(1952.590027 2.481670024 1.288807229)
(1949.691309 2.05631005 -0.4236038651)
(1950.743267 1.922575342 0.4571624926)
(1949.543364 1.94512371 2.022196054)
(1948.000517 -0.09004513858 2.195784381)
(1948.288956 0.3697144561 -0.1933059451)
(1949.271506 0.3185262439 -0.7646186951)
(1949.252345 3.517169154 -1.241166698)
(1948.654151 3.441521161 -1.250462724)
(1947.861411 1.03228643 -1.820803624)
(1949.828322 1.568879161 -1.27853869)
(1950.07596 0.9562674382 -1.459106088)
(1950.274062 0.4694497837 -0.3557783404)
(1950.071096 -0.9064421248 1.313432682)
(1949.909142 0.7303929846 0.7361728887)
(1951.095213 0.2336486494 0.9182847469)
(1950.12328 0.02981672166 0.3192366773)
(1949.592063 -1.965308609 1.353506013)
(1951.363772 -0.281209438 2.548674158)
(1950.184856 1.677909431 0.6009425165)
(1948.980121 1.657313442 -0.2920592459)
(1947.885089 -1.179385981 -0.07469706656)
(1947.64948 -2.224864693 -0.03257418965)
(1948.847584 -1.066087352 0.1800836943)
(1948.166308 0.7997605378 -0.3852147128)
(1949.059506 1.581262547 0.3472038314)
(1949.661463 1.671414213 0.8747936975)
(1950.681464 -0.3911701956 2.045274331)
(1950.296696 -2.754596124 1.430810609)
(1949.61869 0.2664867197 2.117062621)
(1950.198801 0.902361292 2.150666955)
(1950.117018 2.386689568 2.748862331)
(1950.294197 3.005101547 2.655717916)
(1949.372337 1.850551195 2.069802592)
(1949.960095 -0.4418298929 2.427411168)
(1951.238305 -0.6738452472 0.5148973901)
(1952.047278 -0.4475260424 -0.1116694988)
(1952.574098 0.9325883649 -0.5192888693)
(1951.231382 0.7012107557 -0.3999213813)
(1951.02288 0.1964963257 -1.539129276)
(1950.586502 -0.5991675457 -1.763572339)
(1951.487232 2.150520408 -0.5327448759)
(1952.131889 -0.2176663791 -1.342544871)
(1951.221779 -0.4437147072 -1.519636304)
(1952.267964 0.7436285608 -3.048823417)
(1951.312504 -0.1224642326 -2.540714902)
(1951.299094 -0.5482129595 -1.554512275)
(1950.179747 0.1987257567 -1.253805416)
(1950.542885 3.893744083 0.07381227754)
(1950.935186 0.9996363272 -0.1722423476)
(1948.852499 0.2095537215 -0.04322678015)
(1949.579804 -3.157294969 1.088345792)
(1949.486645 -2.460105648 1.765692771)
(1950.658154 -1.106969739 -0.06435018869)
(1949.817177 -2.29048206 1.371038226)
(1949.316984 -2.329682925 0.5083607791)
(1951.067749 -0.8459098341 -0.6809792865)
(1950.360733 -1.013042721 -1.329594197)
(1952.201255 0.2189783827 -0.9365032428)
(1952.997738 1.228196241 -1.435703636)
(1952.28566 1.469997969 -0.6457398267)
(1951.949319 -0.02494032827 1.931847498)
(1951.508204 0.6908865318 2.37386032)
(1954.210393 -0.2875685024 1.446773587)
(1954.759274 -1.065320549 1.422229719)
(1954.927238 -1.981709116 -0.2627273014)
(1954.144978 -0.9262994758 1.209526465)
(1951.718729 -0.8653764096 0.6057148989)
(1951.170613 -1.949402737 1.01151982)
(1949.88473 -1.931775898 1.73513657)
(1949.643171 -1.347743512 1.540247559)
(1949.021985 2.062282198 1.638035403)
(1948.96776 1.836102457 3.251240105)
(1949.768034 2.628442916 4.272315492)
(1949.202216 0.4150318521 2.558557767)
(1951.138869 -0.6422637893 0.5430459858)
(1951.699724 -2.335105659 3.348171628)
(1953.067915 -0.9944253687 2.913716328)
(1951.618546 -0.160687646 3.694421435)
(1952.94143 -0.5838884531 2.10517745)
(1952.00668 -1.110199835 1.156065599)
(1952.995082 -1.625908596 0.316913581)
(1952.836111 -2.400510818 1.112127628)
(1951.646412 -2.168532217 1.568072998)
(1951.551921 -2.65497518 0.407145944)
(1951.064546 1.307646389 -1.063799021)
(1952.042833 -0.3156169078 -0.8939453917)
(1951.641157 1.343584848 0.9421774726)
(1950.300604 3.191044707 2.032689158)
(1948.967651 2.728471456 2.081350972)
(1950.482894 2.781840144 2.84934285)
(1950.258337 3.249625598 3.894553113)
(1950.090449 2.034720082 2.326953819)
(1950.198509 -0.1958040193 1.37142769)
(1951.45155 -0.4652703354 -0.9183521229)
(1950.940144 -0.9208287467 0.4754801704)
(1950.368801 -0.1948469624 -0.4807685038)
(1953.595546 -0.7632298958 0.33688865)
(1954.724519 1.916823173 -0.152474871)
(1952.987432 2.722333369 1.953628436)
(1954.242804 2.09497816 0.8215178098)
(1948.634287 2.820035001 4.065687968)
(1949.544988 3.265130791 3.895953152)
(1949.866946 1.423503801 2.747422952)
(1949.047082 2.776383877 1.841965091)
(1947.757891 0.3025057546 2.587966732)
(1948.189779 0.7419461842 3.054272519)
(1950.059463 2.382529893 2.312661044)
(1951.482496 1.955759397 1.289373316)
(1953.894881 1.036495871 1.786880231)
(1952.069546 1.275641327 2.636556583)
(1951.488079 1.451063184 2.498704485)
(1951.527879 0.604085772 1.736489256)
(1950.810178 0.2196525723 3.528291648)
(1950.538594 -1.108563891 3.12999082)
(1951.667728 -2.049629818 2.027415115)
(1952.030253 0.2596432069 2.773153255)
(1949.938655 1.765854349 2.682870102)
(1949.308539 0.9455248656 1.841381775)
(1949.689221 1.07424077 1.090946099)
(1948.088978 0.7617650296 2.210603806)
(1952.195999 2.024806494 3.477543257)
(1949.913259 1.344421573 1.862314355)
(1950.259139 2.881104689 0.8056666906)
(1950.720454 0.9624741437 -0.2549533261)
(1951.670937 1.787387905 0.342106003)
(1951.860802 2.371044483 1.375664025)
(1952.044775 2.470152848 -0.1829657316)
(1951.042635 2.735156145 -1.063467048)
(1950.034698 0.01568854569 0.6204990157)
(1951.132738 0.2976575672 -0.8129202759)
(1948.892432 -0.6192037146 -1.112472572)
(1949.504439 0.5424636266 -1.109755218)
(1950.406354 1.125125469 -0.1434915534)
(1949.409945 2.486561296 -0.8025566625)
(1948.918755 3.076016656 1.993818813)
(1949.342672 1.318785109 3.371438444)
(1951.196039 1.185568748 1.760627787)
(1951.772921 1.148330464 2.243802488)
(1951.062703 1.498104947 4.205499626)
(1952.827428 2.727587992 3.648514073)
(1951.53579 0.3108732098 -0.3788848571)
(1951.988182 0.439198844 0.6940471069)
(1952.311757 -1.012208916 1.031214155)
(1950.505127 0.1987684108 0.6816382402)
(1949.419384 1.399030936 1.012925955)
(1949.820829 1.621584795 0.1331034462)
(1949.464957 0.7847689649 1.274345277)
(1950.292646 0.618182005 1.64062814)
(1949.911078 2.77111309 2.323652127)
(1949.030854 4.211314217 1.281119707)
(1949.939603 2.873452734 -0.08309771728)
(1949.864661 0.5559804907 1.217546755)
(1950.445191 -0.5263136352 -0.06710335837)
(1951.377916 -0.6861160078 1.132450282)
(1953.399173 -1.190438832 1.176237943)
(1953.365405 0.3954515933 1.304311179)
(1952.461324 0.7348992261 1.441773357)
(1950.964192 -0.2067736854 1.017731605)
(1949.782583 -0.5940668614 -0.4088374096)
(1950.062507 -2.183420861 -0.1348873225)
(1951.095344 1.924968949 1.817845649)
(1949.828334 1.286878223 1.16087601)
(1949.260968 -0.8554706415 2.270983457)
(1950.469418 -0.3100931231 1.57446887)
(1950.325019 -0.6830167739 2.16407876)
(1951.026047 -0.02902135553 2.814244801)
(1949.954777 -0.5132541829 0.6450520353)
(1950.338591 0.8019967193 0.6299392502)
(1950.109749 0.1021163075 1.028162132)
(1951.978872 -0.9858696824 -1.038695659)
(1952.297926 -0.06992614631 -0.2971544358)
(1951.955982 1.640809676 1.365281469)
(1950.557563 3.518876104 2.061160519)
(1949.091056 3.96917684 2.817514028)
(1948.819451 2.36662751 1.768881263)
(1950.132086 1.723336507 1.169641975)
(1952.387008 -0.9394440193 2.322277053)
(1952.699612 -1.701285422 3.045151187)
(1953.622346 -2.425973366 1.938773329)
(1953.408332 0.4755844783 0.8244845606)
(1949.726477 0.6863671041 1.808742782)
(1949.788176 1.78076273 2.372624979)
(1948.597737 1.24277423 1.533181258)
(1950.343885 0.8559727449 2.77488065)
(1950.891933 0.5062929971 0.7916260268)
(1951.987351 -0.004983252294 1.443163541)
(1951.797623 1.349005679 0.9367100979)
(1952.258919 1.533594245 0.698638514)
(1953.286716 0.127863199 1.173317129)
(1952.107454 -0.04349159152 2.321423071)
(1951.253316 -1.450719135 2.46422857)
(1951.189149 -1.032964785 1.933242584)
(1950.001825 -0.5196448982 1.768293982)
(1951.267963 -1.2012497 1.81166334)
(1950.310051 0.4254979863 0.785150893)
(1950.113885 0.7013900339 -0.7141839249)
(1948.995537 1.12285314 -0.4716984072)
(1947.940327 2.786412806 0.4534668192)
(1948.555058 2.103318039 2.134754842)
(1949.21851 1.864421297 0.7159242889)
(1950.617325 2.866979643 0.9288639909)
(1951.991537 1.23444372 1.369545179)
(1951.158734 4.457002171 1.221452962)
(1950.612174 3.911854027 2.089512398)
(1949.287915 4.686295359 3.811693049)
(1949.110682 3.088125896 2.779550253)
(1951.152548 2.586127421 3.77565254)
(1951.300063 1.008418531 2.124494979)
(1950.234731 0.4708573607 2.161955992)
(1950.94274 -2.101784193 -0.3473230515)
(1952.442914 -2.434119798 -1.598620764)
(1951.034932 -0.2289434458 -2.051871839)
(1950.831434 0.06280605064 -0.3576127094)
(1949.995288 2.304932379 -0.633681583)
(1950.410869 -0.02155047712 0.09158575003)
(1950.537945 -1.224979291 0.7296721816)
(1950.184843 -0.6011474542 1.113207114)
(1950.339583 0.1804146565 4.013592372)
(1949.612934 0.8509974869 2.388753904)
(1950.112115 2.680763443 2.091963306)
(1951.856872 0.1043455968 -0.8725599038)
(1950.963896 1.334979679 -2.279550613)
(1950.328064 0.7832484066 -1.977292664)
(1950.307957 0.4532053891 -0.9577664924)
(1950.343504 0.4050369779 0.3418858519)
(1951.141904 1.733301206 -0.9836193322)
(1948.27636 0.03956774192 1.322094236)
(1947.780668 -1.136265439 1.408278477)
(1947.93918 0.2628587103 0.5136061139)
(1949.790686 1.432404491 1.375331566)
(1949.086335 0.9838342481 2.274781341)
(1949.642375 -1.034353723 0.163337006)
(1951.032153 -0.4167802673 -0.1086799375)
(1951.439907 1.695380368 1.343725352)
(1950.893586 2.886761267 1.484667581)
(1952.355726 3.846496272 0.6561731003)
(1952.733865 2.997716274 0.2121884237)
(1952.986034 1.302556181 -1.015086502)
(1953.042454 1.472236521 -1.495966009)
(1953.547961 1.570730004 -1.266010356)
(1949.605312 1.615095918 2.571245256)
(1949.424022 1.747288619 2.278154951)
(1949.419121 0.4217799571 2.473940906)
(1950.773784 0.3142008467 0.1945153778)
(1949.793403 -0.5794682123 1.789212806)
(1949.281104 1.213113035 2.606096862)
(1950.522966 3.326446806 1.49150819)
(1951.32187 5.159408279 -1.269707668)
(1953.395496 4.284658921 0.7942455933)
(1953.685925 1.138735009 1.585815606)
(1952.614007 1.895894836 2.087874022)
(1952.673704 -0.3337737481 2.488989572)
(1951.300821 -0.9552569169 2.364485615)
(1950.463771 -1.461090361 1.150734605)
(1952.236287 -1.559345339 -0.403581215)
(1951.70274 -0.05534797925 -0.3218933987)
(1951.636745 1.06869056 -0.4148154931)
(1950.71955 2.131444529 -0.7985184792)
(1951.788449 2.59795123 -0.06436272868)
(1950.741727 1.114837752 -0.07035158879)
(1950.358679 -1.175575629 -0.3737523617)
(1948.375776 0.8313639309 -1.686339849)
(1947.319426 1.937566482 -2.3860457)
(1948.775192 1.178988192 -1.902674626)
(1948.509686 -0.1491390393 -0.8871161479)
(1948.94132 1.472814732 -0.73278459)
(1949.764191 1.295109499 0.3788090227)
(1949.373108 -0.08224447605 -0.8637823477)
(1950.795991 1.692392206 -0.6466956147)
(1951.437286 2.006168434 -0.7646093303)
(1951.286623 -0.6159056235 -1.919524936)
(1951.00915 -0.4480861745 -0.4087136256)
(1951.186892 0.2338331518 -0.2967083539)
(1951.826258 2.278813336 -1.400959313)
(1951.193544 2.139749773 -1.29473432)
(1950.859567 1.410620529 2.352160431)
(1951.945432 0.8096378578 2.014666611)
(1950.595686 1.456963931 -0.01202203154)
(1950.469423 1.280953078 -0.1503045975)
(1950.54166 0.2313430819 -1.049832474)
(1953.598063 1.127886146 0.48284448)
(1954.88459 0.8848546177 3.159390417)
(1955.205625 0.9001472354 4.332195732)
(1955.196749 2.599531821 3.173943773)
(1954.672665 0.6178432949 0.8338424644)
(1952.807605 -1.357077785 -0.2407952551)
(1951.506641 -1.389339508 -1.204586497)
(1951.389053 -0.209716821 -1.273521517)
(1950.129816 -0.6920577186 -0.482418512)
(1950.772559 0.4181216209 0.7923426873)
(1951.510936 0.9713124689 0.6070485376)
(1953.130728 0.2453912912 0.9033615646)
(1951.970098 0.5555947295 0.2030198047)
(1950.40765 2.005630355 0.9989106709)
(1949.360064 1.176308611 -0.3959507523)
(1950.456691 0.5451341327 0.3150233409)
(1949.674999 1.171031518 1.668209917)
(1950.093488 0.7683717175 -0.1184845147)
(1950.180787 -0.2271847391 -0.02814621788)
(1952.050444 -0.1375380871 -0.6022572288)
(1951.797375 1.129346129 1.007545979)
(1951.497542 1.86978546 0.5650410904)
(1952.616716 -0.2119126363 1.136972527)
(1951.076015 0.4529158842 1.535184697)
(1951.429462 1.36157156 1.99816165)
(1950.924796 1.507832837 3.498433246)
(1951.046314 0.4821574764 1.83144438)
(1952.331149 -0.2676785467 0.8369506364)
(1952.846494 0.3218387678 -0.5195634536)
(1949.947602 -1.151995653 -0.4582247936)
(1948.008479 -1.479358312 -0.6550700321)
(1949.542936 0.6447746864 -1.182203434)
(1950.19099 -1.009959126 0.1489794513)
(1950.186704 -2.440972956 1.275826433)
(1949.772291 -0.8856383977 2.555423004)
(1949.31926 1.292419057 1.74823578)
(1949.772221 -0.6370451077 0.5588526486)
(1950.578914 -0.991342641 0.9228820901)
(1952.193669 0.7212215268 1.7437211)
(1951.858714 0.473014755 2.12717366)
(1950.343313 2.588937191 -0.1549673343)
(1950.127967 2.485228901 0.3107508979)
(1950.742009 0.5613928324 1.076785968)
(1950.922812 -0.9505647994 1.57403178)
(1950.211845 -1.777056458 2.534922968)
(1948.143394 -0.3725223792 1.64801891)
(1949.014613 0.2344532305 2.993094895)
(1949.392398 0.1142691669 1.384055206)
(1949.872505 0.6419854932 0.6409422354)
(1949.55375 0.5277726794 0.1485864779)
(1951.23954 -0.01386940715 1.367562922)
(1952.055951 -0.5421894037 0.6116804775)
(1950.416561 0.4869839882 0.2394497922)
(1949.606823 1.739614006 0.4087231554)
(1950.117086 0.7981456371 0.05672992257)
(1950.776412 -0.6694708799 -0.1402350426)
(1949.845592 0.06698755086 -0.6194293419)
(1949.25754 -0.8209616101 -0.1610701849)
(1949.442631 0.2326123285 0.5100727575)
(1950.297488 0.4991449838 0.82517214)
(1950.928893 -2.522504986 -0.2932144299)
(1951.129415 -2.12116556 -1.137583772)
(1951.886728 0.6853482587 -0.8378515124)
(1950.129278 0.8421835947 0.1026348731)
(1948.815343 -0.4328671557 0.3284651902)
(1948.910872 -0.400432832 0.4247760458)
(1948.318531 -1.321185769 -0.559680633)
(1950.554841 -0.8780367314 0.08953268406)
(1952.088857 0.5759378222 2.304492295)
(1953.07791 2.144846822 0.2464452758)
(1953.927695 3.649819057 0.9716114539)
(1952.089132 3.974069753 1.003964163)
(1950.875085 3.429768993 0.09854847481)
(1950.713264 2.346361501 -1.507859278)
(1950.233897 1.533898539 -0.8751344867)
(1949.659682 1.918542184 1.181587382)
(1949.327324 1.236523786 -0.4383746761)
(1949.803273 2.340988367 -0.1520878403)
(1948.836137 -0.1492072555 0.4178889305)
(1949.772665 0.3121101785 0.09576778294)
(1949.012717 -0.8806071863 0.5042252045)
(1948.26151 0.4180378272 1.594465688)
(1949.072313 -1.517217673 0.4238832824)
(1948.647209 0.7171965242 -0.3973281826)
(1950.934295 2.465755429 -0.3400568847)
(1952.667054 3.964501716 -0.2695556264)
(1952.598355 3.237507723 -0.2533500309)
(1951.189832 3.816648445 0.8825676467)
(1949.98636 3.446950426 0.6282357025)
(1951.931689 0.6092940254 -0.03121694559)
(1951.468029 1.505473005 1.783745814)
(1950.991998 -0.152308322 1.753524658)
(1949.888662 0.8959653179 -0.1061209084)
(1951.114073 1.899407573 0.6657021143)
(1949.628413 2.1563208 1.371519676)
(1949.476923 0.5451867177 0.4775643584)
(1947.983581 0.1151023112 0.7074407477)
(1946.784336 -0.3514411225 -0.8815250684)
(1946.790981 0.02992248014 0.03725647554)
(1948.261099 -1.928443439 -0.3406866508)
(1949.67359 1.238886052 0.7484853256)
(1950.177425 0.8544988697 1.259028908)
(1950.87768 0.9522589628 0.6953929896)
(1951.988054 -0.8599841221 -0.2638660666)
(1953.35584 1.144635186 0.4522046923)
(1951.751809 2.05552807 0.3517893851)
(1952.117146 1.510852753 1.512295794)
(1952.25171 1.528556719 1.863970941)
(1951.557259 0.9515655198 1.808158271)
(1948.864319 3.429597018 2.243094309)
(1949.316049 3.031934785 0.3600606331)
(1949.418159 1.91820628 -1.187496003)
(1949.993468 1.884739111 -1.447940691)
(1950.253571 0.469624072 -1.046675785)
(1950.808903 1.62458302 -0.7806273695)
(1951.097831 2.310747449 -0.2633095244)
(1950.300396 2.225355648 -0.1917946634)
(1949.325674 1.722285112 1.743245184)
(1948.752058 0.3686219083 2.513374594)
(1949.602715 2.127610763 3.474901123)
(1950.791809 0.956784951 0.5789911779)
(1950.462013 1.257960589 -1.008886693)
(1949.213411 1.590439641 -0.59152285)
(1948.835078 3.513366766 0.9174090939)
(1949.260772 2.988853801 1.986943105)
(1950.905763 1.325024547 1.567677976)
(1951.252311 1.869419108 2.531139177)
(1950.277191 2.393911683 -0.5512650153)
(1950.23537 2.92980015 0.7074082884)
(1952.086329 2.516903861 2.146165473)
(1951.007296 1.322728112 0.1400256953)
(1952.025346 0.9628505646 0.4753567125)
(1950.902239 -1.074158141 2.361570925)
(1950.787661 1.234554678 3.125520834)
(1949.766453 1.811220974 3.970654395)
(1949.818716 0.6547238196 2.226350276)
(1950.069688 -1.558941168 3.048441278)
(1949.511321 -1.543592532 -1.124342935)
(1952.202748 -2.558694665 -1.427530781)
(1950.167665 -0.877556433 0.2818121533)
(1948.212946 0.9462496156 0.2303927134)
(1949.120116 1.011818026 -0.3937488448)
(1949.144647 1.95548261 -0.4723263952)
(1948.819807 2.278944602 0.125206668)