/*--------------------------------*- C++ -*----------------------------------*\
| =========                 |                                                 |
| \\      /  F ield         | OpenFOAM: The Open Source CFD Toolbox           |
|  \\    /   O peration     | Version:  v1706                                 |
|   \\  /    A nd           | Web:      www.OpenFOAM.com                      |
|    \\/     M anipulation  |                                                 |
\*---------------------------------------------------------------------------*/
FoamFile
{
    version     2.0;
    format      ascii;
    class       volScalarField;
    location    "0.02";
    object      variableHardSphereMeanFreePath_O2;
}
// * * * * * * * * * * * * * * * * * * * * * * * * * * * * * * * * * * * * * //

dimensions      [0 1 0 0 0 0 0];


internalField   nonuniform List<scalar> 
5120
(
0.06299371107
0.0630710545
0.06286111857
0.0627385533
0.06243991504
0.06261020472
0.06293058062
0.06325257631
0.06314253216
0.06353813276
0.06369553647
0.06347351985
0.06315532115
0.06302085619
0.06302713764
0.06299828056
0.06312477912
0.06283082308
0.06279594761
0.06278567008
0.0629003113
0.06289023898
0.06273431175
0.06277106026
0.06292727497
0.06275964493
0.06239606868
0.06273094865
0.06279382879
0.06280568461
0.06262438105
0.06280406073
0.06277635963
0.06269193331
0.06265040501
0.06271877276
0.0629015887
0.0630660071
0.0630257271
0.06293464687
0.06289922728
0.06274247561
0.06290546986
0.06282555255
0.06241465034
0.06275698886
0.06256287393
0.06258344891
0.06250163262
0.06267840493
0.06291918504
0.06283041019
0.06252515295
0.06252515496
0.06252108036
0.06264318335
0.06270960468
0.06276244875
0.0625431303
0.06260480448
0.06302817033
0.06245874973
0.06245597619
0.06234516428
0.06224078347
0.06205723959
0.06221498305
0.06267566146
0.06257702274
0.06300255388
0.06222717455
0.06232802075
0.06229378739
0.06250421246
0.06309952485
0.06307079906
0.06309978334
0.06305558294
0.06278434868
0.06274041282
0.06312150146
0.06356786317
0.06336797089
0.06322541976
0.06316584365
0.06317270144
0.06288754742
0.06282491245
0.06263879426
0.06277923873
0.06267961398
0.06263617002
0.06265652959
0.06304007745
0.06292189185
0.06283829931
0.06303297942
0.06287303157
0.06302417456
0.06295021696
0.06302417422
0.06284165801
0.06291031792
0.06340696098
0.06360344343
0.06338928682
0.06350745761
0.06297976875
0.06255063553
0.06246166615
0.06224531611
0.06263197014
0.06247968758
0.06259139013
0.06293044598
0.06288802336
0.06275740761
0.06283426381
0.06300285187
0.06285492866
0.06342881873
0.06304380657
0.06299866209
0.06255143163
0.06257508567
0.06263980964
0.06245078827
0.06256579114
0.06283925169
0.06258318822
0.06296579006
0.06283648716
0.06284929266
0.06279177097
0.062905699
0.06285688802
0.06284780768
0.06286510376
0.06320439789
0.06328945713
0.06290331793
0.06291660231
0.06315391145
0.06318212117
0.06303799244
0.06271984131
0.06241859363
0.0625545657
0.06251446709
0.06277244824
0.06282643389
0.06326702433
0.06330368629
0.0631677167
0.06312149328
0.06299430527
0.0630521388
0.06268322446
0.06297018156
0.06287799251
0.06266638063
0.06274140681
0.06271185179
0.06266106284
0.06260544883
0.06277423676
0.06271546894
0.06273423853
0.06271642985
0.06269193694
0.06274056353
0.06250479335
0.06222324089
0.0622262061
0.0620661499
0.06256406869
0.062258547
0.0623789084
0.06272250732
0.0626367684
0.06260345193
0.06238657584
0.06246386081
0.06275919491
0.06292088108
0.06275044108
0.0632607042
0.06329932373
0.06309321758
0.06326059429
0.06282642131
0.06289177441
0.06259538072
0.0624406333
0.0624027257
0.06226051978
0.06235412259
0.06234835537
0.06258303801
0.06271418538
0.06273520781
0.06306001055
0.06318037524
0.0634072475
0.06346955356
0.06345256705
0.06344373829
0.06294760223
0.06286270011
0.06265059514
0.06244353677
0.06221263155
0.06251634741
0.06290020646
0.06295040672
0.06262625239
0.06273679735
0.06269668439
0.06258844744
0.06270688293
0.06305491372
0.06321321878
0.06276413387
0.06264499564
0.06264910816
0.06250562432
0.06249175351
0.0629149568
0.06295740931
0.06330931795
0.06311474996
0.06348966764
0.06337104046
0.06310550238
0.06323314103
0.0633773861
0.06332321273
0.06349901457
0.0634604043
0.06310406401
0.06261630379
0.062556778
0.06286727854
0.06295861759
0.0629787071
0.06308846094
0.06311796911
0.06310841945
0.06317165931
0.06292102863
0.0628949004
0.0629681295
0.06313614581
0.06334618713
0.06323045735
0.06327440302
0.06312119839
0.06322681786
0.06261082605
0.06243220029
0.06284281154
0.06315200852
0.06294457356
0.06275244809
0.06264220794
0.06275729158
0.06278961286
0.06283766598
0.06279390301
0.06268071523
0.06245099539
0.06256367575
0.06227611749
0.06236542405
0.06218878814
0.06241560612
0.06277623167
0.06287119168
0.06298429968
0.06310751821
0.06296336695
0.06318147235
0.06322735778
0.06282371118
0.06300048846
0.06330618123
0.06312562639
0.06297910944
0.0629863538
0.06293782664
0.06268225649
0.06273727686
0.06279600628
0.06275587138
0.06309064951
0.06321257586
0.06295229066
0.0627954615
0.0628122714
0.06259678335
0.06253604039
0.06231852669
0.06240310751
0.06251151559
0.06253610066
0.06267995676
0.06258155186
0.06265931189
0.06287776166
0.06284208679
0.06318089174
0.06285997597
0.06278533344
0.06276046602
0.06277910918
0.06278299354
0.06302058594
0.06281913662
0.06279721786
0.06281189583
0.06333414887
0.0633648851
0.06343778199
0.06332360875
0.06282058766
0.0627749924
0.0629193041
0.06310455855
0.0627724045
0.06260627213
0.06293196865
0.06288379861
0.06282534584
0.06310148827
0.06333800695
0.06317947479
0.06303621362
0.06325641867
0.06324576961
0.06350072112
0.06185221655
0.0616802989
0.06158879177
0.06193337122
0.06245974481
0.06245781473
0.06248040889
0.06210275719
0.0624192003
0.06269530246
0.0623461122
0.06249361312
0.06226248856
0.06213153009
0.06199933917
0.06188653389
0.06211027353
0.06192849616
0.0617827877
0.06201647102
0.06290007151
0.06310828733
0.06308676503
0.06300746709
0.06315715338
0.06323517948
0.06308841518
0.06283333539
0.06284033327
0.06242652449
0.06233793934
0.06253935702
0.06286013385
0.06312408413
0.06288180877
0.06306933779
0.06281977076
0.06296917154
0.06301513789
0.06302839871
0.06322701667
0.06303483747
0.06286555583
0.0629233865
0.0630860546
0.06267835714
0.06286490418
0.06302495044
0.06351110422
0.06325296702
0.06360801097
0.06376753166
0.06342798685
0.06310217085
0.06343787901
0.06356194454
0.06326850193
0.06321523638
0.06360404565
0.06331493157
0.06261114879
0.06254627434
0.06268442399
0.06290028864
0.06298359052
0.06266380525
0.06257257778
0.0623408727
0.06258965393
0.06308491741
0.06319541194
0.06320702346
0.06309794273
0.06314232549
0.06314053901
0.06327816681
0.06353494311
0.06339679545
0.06295072627
0.06280161518
0.06264551989
0.06277913969
0.06318025906
0.06302839925
0.06269043755
0.06268888739
0.06279317958
0.06278425973
0.0625215961
0.06291694801
0.06272842959
0.06243610524
0.06249765306
0.06205824717
0.06226859168
0.06242683311
0.06226975877
0.06223178934
0.06234338009
0.06221527146
0.0621732958
0.06220517488
0.06173397814
0.06169139593
0.06204312661
0.0621124694
0.06241501123
0.06249866027
0.06270642417
0.06266761896
0.06248002175
0.06229894011
0.06228952843
0.06284216007
0.06275101436
0.06283910558
0.06314232705
0.06304794312
0.06263351085
0.06239377202
0.0622610484
0.06231662178
0.06226201152
0.06244965422
0.06232982158
0.06225173381
0.06245387905
0.06249350349
0.06245774026
0.06242587716
0.06262594589
0.06290752278
0.06304499628
0.06288416914
0.06282380366
0.06300497813
0.06294765144
0.06266598788
0.06267600602
0.06251130982
0.06245797847
0.06249288227
0.06210986575
0.06213346384
0.06243916477
0.06243080671
0.06256705009
0.06277317042
0.06292817399
0.06261338702
0.06235363114
0.06231364988
0.0622975621
0.06251710964
0.06232483156
0.06212533608
0.06204901581
0.06205902018
0.06212135257
0.06256385004
0.063346441
0.06316466899
0.0630420281
0.06350859306
0.06335828545
0.06343426812
0.06297742212
0.06306652947
0.06306187552
0.06328817291
0.06330259626
0.06324673802
0.06301033386
0.06331167021
0.06339517934
0.06343413686
0.06318371383
0.06300833831
0.06286689291
0.0626544808
0.06283534279
0.062603894
0.06225360555
0.06227982377
0.06242026298
0.06245579236
0.06258479514
0.06274434887
0.06270101766
0.06304512272
0.06340979899
0.06338372361
0.06316478913
0.06269940454
0.06251580454
0.06279106071
0.06298718774
0.06290785389
0.06310113772
0.06295125116
0.063210395
0.06337322166
0.06311080854
0.0629604631
0.06314532914
0.06297711817
0.06291567985
0.0627153653
0.06281529645
0.06293949767
0.06311663869
0.06294566573
0.06296789563
0.06295163962
0.06280467317
0.06314364693
0.06320239029
0.06302231407
0.06302825563
0.06326774892
0.06310845984
0.06286043184
0.06275338575
0.06269813405
0.06286118198
0.06272695114
0.06271407377
0.06260960264
0.06294459735
0.06266522913
0.06299725031
0.06251292714
0.06285642281
0.06283720427
0.06299518402
0.0631794475
0.06337942102
0.06347810871
0.063344859
0.06324824508
0.06274077641
0.0627232771
0.06276821244
0.0629384118
0.06284237858
0.0628279518
0.0628593957
0.06267143278
0.06286137413
0.06285815362
0.06252768879
0.06253205257
0.06279338034
0.06298348591
0.06312854194
0.06316669878
0.06289506797
0.06293716809
0.06281460202
0.06251776773
0.06319363703
0.06289264664
0.06275997611
0.06300915275
0.06287463098
0.06271293692
0.06264117718
0.06270223197
0.06274751318
0.06295134453
0.06314955581
0.06304182334
0.06292665333
0.06327051058
0.0634090833
0.06317838665
0.06315010083
0.06295639199
0.06302653657
0.06331230938
0.06228973362
0.06238825643
0.0626837412
0.06281151776
0.0629839462
0.06284502278
0.06295820611
0.06253089558
0.06241770624
0.06265334575
0.06267598358
0.06275513753
0.06273240222
0.06240854485
0.06241149257
0.06278782472
0.06265254208
0.0627596911
0.06245000014
0.06214773229
0.06254877043
0.06242630604
0.06257536793
0.06308185956
0.06287930929
0.06268740132
0.06233148824
0.06236069389
0.06273585787
0.06304095461
0.06302567779
0.06293206486
0.06308834375
0.06279285647
0.06305120109
0.06318536046
0.06358087404
0.06321414009
0.0628699816
0.06289057801
0.06268805368
0.0628228375
0.06306225228
0.06301175403
0.06297849329
0.06310188868
0.06324923934
0.06324549581
0.0631067906
0.06302748327
0.06295539462
0.06283530769
0.06285164258
0.06285251163
0.0629572873
0.06270638541
0.06258749368
0.06222187752
0.06251949156
0.06246229521
0.06289781394
0.06293347974
0.06273759887
0.06239503645
0.06264455031
0.06277327364
0.06290136247
0.06286991146
0.06302091122
0.06311575913
0.06296089263
0.06304412717
0.06270910596
0.06262249303
0.06252268233
0.0628402985
0.06274039751
0.06289785883
0.06289278571
0.06295958205
0.06307364993
0.06351718782
0.06339289823
0.06336611577
0.06334165261
0.06305020426
0.06333890185
0.06339475146
0.0632322185
0.06290616893
0.06280603797
0.06305476779
0.06325595262
0.06305336036
0.06304312787
0.06298921899
0.06288622888
0.06275764512
0.06270343467
0.0627560729
0.06300233107
0.06287422746
0.06299912858
0.06326173881
0.06307801502
0.06312055701
0.06313279524
0.06328031002
0.06301992577
0.06265512669
0.06259936927
0.06273508671
0.06288373554
0.06282204767
0.06277410047
0.06237183555
0.06250914454
0.06288787425
0.06300971813
0.06302675148
0.06320038816
0.06300777075
0.06267713555
0.06251038082
0.06244240508
0.06257769992
0.06248697206
0.06255832431
0.06275558109
0.06302039224
0.06310174449
0.06309976169
0.06295288776
0.06310177896
0.06303905752
0.06310799417
0.06291722764
0.06287378918
0.06281552547
0.06315725918
0.06315156376
0.06308639914
0.06352709333
0.06350424914
0.06341867178
0.06311301752
0.06279196839
0.06275721697
0.06247860815
0.06249641903
0.06267322868
0.06311801717
0.06311589952
0.06299844098
0.06290744809
0.06315224658
0.06308211058
0.06344905432
0.0633366693
0.06295894883
0.06286159094
0.06304975385
0.06275360977
0.06272186367
0.06272240143
0.06275995804
0.06275998242
0.062416675
0.06261222523
0.06238828006
0.06244835031
0.06255470173
0.06215599166
0.06250426717
0.06272382984
0.06249343618
0.06258560616
0.06249704503
0.06256064832
0.06275749222
0.06219017095
0.06221801093
0.06215081371
0.06200885696
0.06211010821
0.06227097201
0.06214310325
0.06213262393
0.06184275763
0.06205651009
0.06204390314
0.06196634857
0.06185216969
0.06172328828
0.06180531417
0.06200917129
0.06219690075
0.06213927042
0.0624591633
0.06233676278
0.0621623514
0.06218037203
0.06223420783
0.06232946823
0.06222375385
0.06256080144
0.0626790165
0.06276657171
0.0629711793
0.06288298002
0.06274079638
0.06285879217
0.06299030925
0.06275986682
0.06243285845
0.06207562438
0.06190456957
0.06236658605
0.06211092083
0.06236654521
0.06295734975
0.06313075938
0.06311851555
0.06310929779
0.06279773291
0.06267271067
0.06242567946
0.06221461755
0.06212287303
0.06208625522
0.06219254021
0.0623193743
0.06253111423
0.06251640762
0.06272948994
0.06277814423
0.06278709994
0.06265958365
0.06275345858
0.06271094168
0.06254842706
0.0625967421
0.06275581928
0.06285232369
0.06287674453
0.06346389668
0.06343524018
0.06333410394
0.06340193557
0.06313417918
0.06296412726
0.06323563483
0.06296146793
0.06291214481
0.06270792842
0.06238640239
0.06214587986
0.06216739193
0.06233858456
0.06241460759
0.06277483955
0.06319983378
0.06277427861
0.06281029521
0.06275632728
0.06278694383
0.06263453953
0.06231890162
0.06213163549
0.06261011133
0.06236151295
0.06240600342
0.06266403356
0.06243032094
0.06270512339
0.06262668072
0.06274129567
0.06314509726
0.06335187269
0.06327516826
0.06216880395
0.06242947658
0.06224911135
0.06256433785
0.06267001084
0.06269276985
0.06262719914
0.06248873336
0.06240374709
0.06259280916
0.06293309153
0.06278789373
0.06273223646
0.06272598288
0.06255196457
0.06249806301
0.06263824312
0.06219138109
0.06202842446
0.06219798441
0.06282224527
0.06278513948
0.06294320476
0.06275400194
0.06261663542
0.0624720226
0.06241690494
0.06266923225
0.06282904487
0.06316595954
0.06279633639
0.06292407133
0.06292089436
0.06267918814
0.06273480829
0.06245415173
0.06269115997
0.0627786483
0.0628542303
0.06279180077
0.06270782912
0.06309097415
0.06262934056
0.06264969441
0.06294791506
0.06289408182
0.06285973574
0.06317312534
0.0631623284
0.0632554942
0.06301010347
0.06316266787
0.06324460698
0.06316315315
0.06303278271
0.06325682449
0.06311744802
0.06311679096
0.06292520159
0.06295523595
0.06294610263
0.06305393781
0.06256696125
0.06223211321
0.0623093577
0.06228615676
0.06234613975
0.06222885464
0.06245042012
0.06216657765
0.06248404994
0.06253349212
0.06266798905
0.06294423157
0.06278433312
0.0628867125
0.06267331673
0.06297845906
0.06327624649
0.06304143328
0.06344311339
0.06312755487
0.06266830533
0.06260094038
0.06270284215
0.06287779419
0.06320101826
0.06306504867
0.06275513944
0.06282262507
0.06317167193
0.06307109402
0.0630459289
0.06268067308
0.06275429471
0.06278155492
0.0628833361
0.06335032528
0.06338862037
0.06356841178
0.06259030989
0.06297656545
0.06311254029
0.06335705909
0.06317445932
0.06324931856
0.06295299626
0.06233360251
0.06261166644
0.06280472656
0.06303581559
0.06315626614
0.06288756251
0.06299324768
0.0629761846
0.06285798321
0.06281007726
0.06283453754
0.06294905488
0.0628671282
0.06287473534
0.06301218936
0.06284075635
0.06298165976
0.06310060418
0.06339393818
0.06345284721
0.06355586669
0.06349015532
0.06371831498
0.06356290777
0.06362864802
0.06337832006
0.06307869205
0.06307766036
0.06311311623
0.06333491247
0.06311407563
0.06303366812
0.06294291373
0.06324355566
0.06318871298
0.06323522861
0.06321815241
0.06297602956
0.06281842825
0.06285797789
0.06244251028
0.06271110262
0.06241223446
0.06229960213
0.06244727133
0.06258699685
0.06261517566
0.06266664566
0.06280379925
0.06308926505
0.06350030392
0.06333100577
0.06319056672
0.06250874779
0.06277213037
0.06286675272
0.06282509611
0.06311379191
0.06327498081
0.06322490685
0.06301959881
0.06307134958
0.06246675896
0.06267020593
0.06286615478
0.06307548424
0.06296814542
0.06298949026
0.06305089419
0.06306841987
0.06297230516
0.0625756669
0.06240676319
0.06346153297
0.06327267504
0.06305561283
0.06303992008
0.06279995637
0.06276395109
0.06267668612
0.06252811631
0.06264196725
0.0629391533
0.06305182558
0.06307723033
0.06309590311
0.06336655004
0.06381566006
0.06381751038
0.06350009727
0.06318320717
0.06331270931
0.06340767261
0.06211336126
0.06199599137
0.06257799413
0.06266683925
0.06260816956
0.0622372266
0.06267980799
0.06289903383
0.0627437651
0.06278751099
0.0628657566
0.06296336119
0.06304346646
0.06294134655
0.06284515638
0.06259676188
0.06262867774
0.06266364952
0.06259553486
0.06243820402
0.06258884795
0.06260891428
0.06249700507
0.06249648004
0.06251928631
0.06258747308
0.06239005443
0.06222950763
0.0622399896
0.06218760451
0.0623101818
0.06234067343
0.06241638061
0.0625263567
0.06270584166
0.0627155801
0.06299385337
0.06271816402
0.0625101562
0.06255062827
0.06272385766
0.06305522998
0.06336190388
0.06286971586
0.06281267987
0.06283399813
0.06309100353
0.06327899118
0.06323999917
0.06297109015
0.06267158936
0.06255657064
0.06233771993
0.06254748669
0.06286581917
0.06316103299
0.06305755767
0.0627650147
0.06259777438
0.06241560266
0.06302662926
0.06298129235
0.0624508998
0.06253559362
0.06245495168
0.0623953072
0.06220142572
0.06210645692
0.06224176349
0.06231324546
0.06265852225
0.0625551095
0.06237547622
0.06270665111
0.06271068695
0.06284034669
0.06285093901
0.06294134175
0.06288429523
0.06306830155
0.06262736743
0.06257187264
0.06226459699
0.06209171296
0.06198862935
0.06198036456
0.06198191114
0.06184366378
0.06216011851
0.06234318193
0.06274417117
0.06265919442
0.0626080384
0.06228604027
0.0622746721
0.06231595182
0.06276020346
0.06274315718
0.0628990452
0.06309988511
0.06288502585
0.06303042237
0.06256233825
0.06295998072
0.06251480683
0.06239538189
0.06259013516
0.06251118198
0.06258844857
0.06248775557
0.06235537993
0.06270310304
0.06290092457
0.06305312389
0.0627444031
0.06291199018
0.06272338487
0.06268505997
0.06265438782
0.06259292873
0.06292178101
0.06254193886
0.06281622946
0.06301346032
0.0630919368
0.06322797849
0.0631301427
0.06280476674
0.06280238048
0.06265833189
0.06256079312
0.06207749886
0.06221950036
0.062660299
0.06268821088
0.06272150775
0.06264893964
0.06271843679
0.06295829386
0.06289352973
0.06335329113
0.06302130565
0.06273984736
0.06249945273
0.06259078591
0.06290212699
0.06345893807
0.06352143273
0.06292909668
0.06311675917
0.06339088105
0.06346326103
0.06359034796
0.06321996606
0.06319299608
0.06346050119
0.06342867144
0.06341228563
0.0635335279
0.06344144168
0.06364485183
0.06356203741
0.06397464425
0.06429834898
0.06390223717
0.06354226518
0.06329505678
0.06284587814
0.06278495996
0.06258952267
0.06247651795
0.06280305473
0.06247500294
0.06243789906
0.06265281624
0.06251134011
0.06255977765
0.06303095226
0.06307390945
0.06334911297
0.06259852694
0.06263923841
0.06282697546
0.06315630354
0.06317860231
0.06321560366
0.06322580943
0.06345532238
0.0633859558
0.06325757019
0.06300985425
0.06278278111
0.06282266869
0.06282744678
0.06287039794
0.06259351841
0.06278245596
0.06249939817
0.06239875125
0.06243373561
0.06283363525
0.06326780113
0.06318046161
0.06300066221
0.06290064618
0.06292044481
0.06284949658
0.06303496429
0.06273156396
0.06241425487
0.0624809968
0.06268684031
0.06304501426
0.06326698056
0.06311278565
0.06310454832
0.06266736756
0.06250907839
0.06244695339
0.06255149975
0.06318437089
0.06333105313
0.06319108893
0.06319515204
0.06322515098
0.06290537241
0.06297626466
0.06295273819
0.06329523615
0.06322575431
0.06286323447
0.06283122965
0.06270271887
0.06244836864
0.06254178871
0.06287928989
0.06296655957
0.06312929171
0.06334363689
0.06348326338
0.06307507885
0.06289218278
0.06311261917
0.06319585172
0.0631059972
0.06332089759
0.06348509153
0.06338995181
0.06303504241
0.06312438742
0.06308081227
0.06318332168
0.06382965156
0.06373015739
0.06345828904
0.06346978531
0.06335074385
0.06365926329
0.06320434117
0.06296775573
0.06238971453
0.06238548016
0.06223852344
0.06252522669
0.06240684128
0.06248126266
0.06249918
0.06249778576
0.0627664966
0.06292213814
0.06326279183
0.06334581578
0.06307572323
0.0627873155
0.06247545082
0.06246301639
0.06254218758
0.06272350667
0.06268125784
0.0630836756
0.06245943051
0.06234443334
0.06272186992
0.06288325468
0.06276704509
0.06280107799
0.06261086004
0.06307623245
0.063087091
0.0632307962
0.06306824623
0.06308223737
0.062723466
0.06234534428
0.06222869551
0.0621811652
0.06190566121
0.06203806794
0.06234927947
0.06260500671
0.06243650082
0.06237270074
0.06293046079
0.06252661817
0.06238258578
0.06280989069
0.0628807053
0.06311283975
0.06329632336
0.06305426859
0.06331097267
0.06298436361
0.06293833066
0.0631504
0.0626569556
0.06239260543
0.06289277881
0.06264952052
0.06259956094
0.0623948131
0.06275457607
0.06300129786
0.06322425758
0.06279238545
0.06283871309
0.06287324337
0.06297734766
0.0628431016
0.06248658231
0.0628725425
0.06233559446
0.06220676968
0.06244054082
0.0624853396
0.06248739984
0.06224433993
0.06216220341
0.06245798695
0.06229514567
0.06256804535
0.0628282176
0.06275690866
0.06226827358
0.06274803491
0.06289864558
0.06260363522
0.06278648462
0.06220438428
0.0624265348
0.0622986465
0.06251780318
0.06280077924
0.06281455181
0.06253342706
0.06222144658
0.06231892951
0.0625564805
0.06247351087
0.06284026097
0.06291936471
0.06285405906
0.06282724248
0.0628338021
0.06292561042
0.06308092206
0.06327628891
0.06346600052
0.06322767091
0.06352448271
0.0637564091
0.06330120866
0.06320886346
0.06310675883
0.06287047009
0.06280832101
0.0629082422
0.06265425851
0.06275679783
0.06313037725
0.06298293455
0.06304585807
0.06289643879
0.06299311392
0.06290933489
0.06261194435
0.06236572982
0.06241961583
0.06233825314
0.06232800826
0.06193287775
0.06185787594
0.06179316901
0.06233210851
0.0621151738
0.06234824003
0.06246103365
0.06294646535
0.06298566769
0.06284117397
0.06252256907
0.06289964908
0.06280540024
0.06276124585
0.06264384132
0.0631840493
0.06316600366
0.0635921878
0.06368683301
0.06367596435
0.06332638554
0.06305874859
0.06301787871
0.06327558624
0.06328228194
0.06346384753
0.06323241415
0.06313825321
0.06321206452
0.06278026255
0.06282731714
0.06307367817
0.06310396549
0.06325688814
0.06293658287
0.06261946781
0.06278292203
0.06287965248
0.06273307102
0.06256560382
0.06272198428
0.06311005532
0.06294002873
0.06277607365
0.06306218451
0.06354175103
0.06332448178
0.06358987377
0.06323081523
0.0630234253
0.06280869204
0.06339117442
0.06362491974
0.06369284887
0.06360231169
0.0632649668
0.06305923001
0.06304419391
0.06327001257
0.063453066
0.06331714057
0.06367888606
0.06364710971
0.06373256339
0.06348294344
0.0632143161
0.06280638038
0.06261764922
0.06272498637
0.0629294881
0.0632826453
0.06244550301
0.06241819874
0.06288451228
0.06271862069
0.06304322318
0.06316555081
0.06332963702
0.0633689737
0.0631177931
0.06312479178
0.06310930505
0.06291380629
0.06266228114
0.06251845651
0.0624721222
0.06278159371
0.06277461851
0.0626575056
0.06270161623
0.06272105751
0.06308102348
0.0628551165
0.06300324595
0.06293862906
0.06269617438
0.06302481592
0.06312666809
0.06318324854
0.0633900468
0.06323502655
0.06302487258
0.06315919766
0.06331406745
0.06349604047
0.06356646605
0.06359399796
0.06315149794
0.06300758849
0.0627290555
0.06274659574
0.06302036543
0.06324116139
0.06295663638
0.0629282563
0.06275889633
0.06250642112
0.06262476584
0.06257874186
0.06274727207
0.06309573966
0.06326838126
0.06307836496
0.06298818985
0.06309682532
0.06307278608
0.06325454013
0.06338068538
0.06304981176
0.06272829682
0.06294151557
0.06255472233
0.06234785772
0.06272542159
0.06290118262
0.06305562008
0.06301229223
0.06302793252
0.06299001679
0.06268035557
0.0628782156
0.06291751066
0.06283774212
0.06304275921
0.06266459196
0.06253269985
0.06297383635
0.06315597991
0.06318674981
0.06316659794
0.06279177816
0.06305403458
0.06288275113
0.06264370897
0.06298734537
0.06309221713
0.0629764971
0.06314614469
0.06306918297
0.06284505349
0.06276376781
0.06282754065
0.06220852225
0.06235341651
0.06240144834
0.0628960093
0.0624648864
0.06242920191
0.06253580874
0.06267337765
0.06295732062
0.06230813255
0.06241047118
0.0627163671
0.06231334806
0.06208277116
0.06244869319
0.06204664896
0.06184825277
0.06232240699
0.06262054579
0.06276002047
0.06278389387
0.06256047842
0.0629401559
0.06297224147
0.06297934726
0.06247183128
0.0623189997
0.0622956756
0.06236954923
0.06216515223
0.06217081906
0.06186719322
0.06206207797
0.06181157614
0.06210818463
0.0624368606
0.06276827832
0.06261953808
0.06299388139
0.06287756209
0.0627501282
0.0627439824
0.06311391187
0.06269506031
0.06258608552
0.0623919983
0.06234481763
0.06205491847
0.06205542782
0.06240376
0.06244877048
0.06252902043
0.06261617289
0.06246597434
0.06252051528
0.06239800881
0.06181746156
0.06184604022
0.06173915915
0.06155459522
0.06174913824
0.0619306197
0.06204487483
0.06192912572
0.06215808313
0.0622812621
0.06204033574
0.06220840703
0.06228927589
0.06275249229
0.06302036299
0.06274222254
0.06299016047
0.0626217346
0.06231439731
0.06247611382
0.06249865622
0.06260487283
0.06282621165
0.06268983172
0.06241855356
0.06280108586
0.06265852954
0.06303297197
0.06292001164
0.0627416307
0.06259104463
0.06249985509
0.06255449629
0.06312068459
0.06303990123
0.06311209262
0.06294951808
0.06303193949
0.06321266737
0.06313396119
0.06280047888
0.062837225
0.0627155826
0.0625222013
0.06268397869
0.06273543941
0.06271321715
0.06287648869
0.06303470317
0.0628847457
0.06327496869
0.06326492846
0.06327113558
0.0632287377
0.06301901263
0.06284141153
0.06295089063
0.06292209197
0.06281605843
0.06278688313
0.06297734605
0.06293629277
0.06350928304
0.06370790739
0.06332307191
0.06319670104
0.06310105724
0.06335165391
0.06339768411
0.06316169067
0.06325214481
0.06338788436
0.06333739072
0.06211190743
0.06231706837
0.06263739804
0.06269292953
0.06263185778
0.06297359603
0.06299030597
0.06319490644
0.0632469436
0.06306654547
0.06304508825
0.06318550557
0.06287900872
0.06284751454
0.06269416404
0.06299085088
0.0630091324
0.06295906613
0.06244711497
0.06230856962
0.06278486198
0.06294858678
0.06295995031
0.06299990493
0.06304887319
0.06306565785
0.06278545785
0.06239705367
0.06226659168
0.06262990968
0.06299356864
0.06301193113
0.06271070903
0.06264594479
0.06249770291
0.06277808138
0.06258942507
0.06246402344
0.06241718095
0.06287201264
0.06286663441
0.06289454091
0.06326629731
0.06327437164
0.0633015361
0.06319883753
0.06315696259
0.06327779995
0.06315398016
0.06319653523
0.0631384221
0.06320165417
0.06328520239
0.0631850933
0.06317977903
0.06263560989
0.06279082846
0.06296905193
0.06259286673
0.06263903136
0.06329663768
0.0629198455
0.06307602954
0.06323098995
0.06320073572
0.06336944924
0.06340138709
0.06333062664
0.06352505409
0.06318144513
0.06321592755
0.06301720674
0.0630766526
0.06298520013
0.06309536898
0.06335085981
0.06320850349
0.06289837745
0.06334591589
0.06334411604
0.06240928864
0.06256895075
0.06245181045
0.06263119128
0.06240070155
0.06234161708
0.06235080339
0.06255466073
0.06263969368
0.06264773251
0.06269759443
0.06303043183
0.06285842608
0.06293995271
0.06266851868
0.06278913684
0.06246909395
0.06238188909
0.06261552873
0.0625104492
0.06302158341
0.06324418142
0.06331872643
0.06329236114
0.06310386429
0.06303228077
0.06260447921
0.06263438379
0.06295483249
0.06290124702
0.06303848022
0.06289185028
0.06279372279
0.06264990381
0.06255392686
0.06250925524
0.06263418824
0.06263085055
0.06281629443
0.06293947745
0.06294095693
0.0624875983
0.06278288139
0.06262881702
0.06279168258
0.06338870731
0.06330846943
0.06312286777
0.06316761207
0.06301705384
0.06318151035
0.06300771452
0.06293926293
0.06317052428
0.0632419812
0.06312827998
0.06339300051
0.06347856175
0.06349872335
0.06359676946
0.06253735007
0.06313796486
0.06319632816
0.06328109752
0.06286542089
0.06321625702
0.0629228654
0.06292414475
0.06279269654
0.0627197259
0.06270059252
0.06297458041
0.06301175542
0.06280308379
0.06298150644
0.06290461273
0.06276623765
0.06298150812
0.06288841958
0.06258377024
0.06303961441
0.06280608305
0.06308042505
0.06293758941
0.06279515092
0.06283269862
0.0632793126
0.06332040165
0.063085308
0.06338159578
0.06339998682
0.0630942552
0.06280561368
0.06278946521
0.06251647787
0.06274182419
0.06243327983
0.0623967756
0.06229378585
0.0628791138
0.0622622602
0.06220234232
0.06213912973
0.06233153808
0.06275485943
0.06281342226
0.06263196922
0.06288645048
0.06274405087
0.06307254516
0.06318960316
0.06323259224
0.06308351387
0.06291932866
0.06269147749
0.06272824868
0.06286907873
0.06292259021
0.06271375639
0.06263706294
0.06345408558
0.0637708682
0.06345542267
0.06315858915
0.06332121567
0.06298551117
0.06303469427
0.06311499309
0.06324738882
0.06325885436
0.06327974441
0.06343430769
0.06340745852
0.06346107073
0.06350197241
0.06328130457
0.06337825826
0.06369162556
0.06346825045
0.06356792314
0.06310883342
0.06269952881
0.06285409293
0.06281795703
0.06288599607
0.06302329146
0.06311459543
0.06304718192
0.06304727593
0.06276428347
0.06288066035
0.0628261772
0.06247570104
0.06276533134
0.06272276713
0.06292891148
0.06290116148
0.06320184322
0.06304109521
0.0629927157
0.06265608618
0.06264506068
0.06284141179
0.06268077998
0.06299442481
0.06301039751
0.0633447578
0.0632786744
0.06303993504
0.0630401823
0.06262749667
0.06251066853
0.06268735668
0.0627148537
0.06304665253
0.06310297196
0.06324714267
0.06347851289
0.06319867133
0.06281261199
0.06242865626
0.0625557539
0.06248299078
0.06296535421
0.06301919211
0.06311506837
0.06292312651
0.06289407176
0.0630328738
0.06293511984
0.06305621283
0.06304269015
0.06308666628
0.06330591519
0.06342936104
0.06301340471
0.06283840382
0.0627988968
0.06245299425
0.06273942016
0.06316426626
0.06338718826
0.06319786536
0.06258592831
0.06271063799
0.06266632209
0.06303777703
0.06310990829
0.06313442532
0.06315552766
0.06275498232
0.06279535706
0.06269219062
0.06247699386
0.06252207071
0.06285437623
0.0627987216
0.06269848909
0.06275899668
0.06279642629
0.06308062263
0.06310106561
0.06312536858
0.06320752317
0.06306965688
0.06278929863
0.06253879038
0.06306583526
0.06281575836
0.0627310236
0.06282891227
0.06320808895
0.06329941962
0.06359377253
0.06334997198