/*--------------------------------*- C++ -*----------------------------------*\
| =========                 |                                                 |
| \\      /  F ield         | OpenFOAM: The Open Source CFD Toolbox           |
|  \\    /   O peration     | Version:  v1706                                 |
|   \\  /    A nd           | Web:      www.OpenFOAM.com                      |
|    \\/     M anipulation  |                                                 |
\*---------------------------------------------------------------------------*/
FoamFile
{
    version     2.0;
    format      ascii;
    class       volScalarField;
    location    "0.02";
    object      vibrationalT_N2;
}
// * * * * * * * * * * * * * * * * * * * * * * * * * * * * * * * * * * * * * //

dimensions      [0 0 0 1 0 0 0];


internalField   nonuniform List<scalar> 
5120
(
325.1072222
325.1397254
321.0286843
320.9925325
316.3534344
310.986058
311.0290684
311.0498128
311.1429298
316.4745192
297.1651714
304.9137521
304.903297
316.5109827
311.1388541
316.4793232
311.2184542
316.4455972
311.1147536
321.0619987
311.2407254
321.227889
321.1483115
316.4653823
311.2125489
311.3285322
316.6406171
329.1510583
316.5163805
329.121023
321.0907776
316.4481719
286.9596119
316.5435046
0
0
270.9543959
297.1226093
304.9371842
286.908177
311.276903
297.2658043
297.2794158
311.2771307
311.1817966
297.1443967
0
286.9393316
311.1979055
304.8917582
316.5105133
304.8628275
297.1310739
304.8591322
304.7859982
311.147346
286.8737007
297.2179703
321.2120264
316.5927789
0
0
0
0
0
297.2250196
311.2247017
316.5489095
297.2190068
321.2355211
311.2526649
311.2665448
316.619986
305.1043963
287.0543206
297.3381131
305.0623714
304.9217055
0
0
286.9674396
297.2053285
297.1487361
297.2302043
304.9777829
297.2866925
297.3347786
305.0744335
297.3606339
287.0809317
297.3324864
297.201496
297.2643501
286.9279447
297.1896918
271.0082711
0
287.0043949
286.9907467
297.2331083
321.2931374
325.4121592
321.2494585
321.3156125
328.9950119
325.3158661
311.3291027
297.3827598
287.1563845
271.0784976
0
304.9997487
311.3227141
325.3182226
316.6168044
297.2513706
311.3077761
329.166216
316.680631
321.2945947
297.3423861
0
271.0810105
304.9989833
297.3194672
0
271.0586657
316.6649247
316.6623276
321.3968074
321.4262079
305.0102471
304.9812785
316.6059665
316.6316552
325.4073051
325.4457894
287.0401548
316.6262325
297.3983237
0
0
0
297.3992641
287.1288979
305.1812898
311.5156799
311.4884459
311.5067134
297.3966519
316.7740089
316.8277789
311.4300589
0
0
0
0
0
287.0182458
0
325.4074295
311.3391452
305.0124348
297.3378004
287.0818064
297.2584305
297.277545
297.3396763
0
287.055
0
0
287.0223156
305.0456045
311.3421131
316.6146836
297.1841024
311.2268603
297.2230497
316.5331681
0
0
0
0
0
0
0
0
0
297.3403016
311.4966014
311.4077278
287.0739357
0
0
0
0
0
297.2963638
270.9976563
304.8606537
316.3793318
311.0767844
304.7657479
316.4755736
286.9340234
305.0141852
305.0429754
311.3638126
311.3517042
304.9750523
0
0
286.8907391
304.9621681
304.9927523
297.1614491
304.9261737
316.5721871
304.9452547
287.0474305
297.3683546
311.3344658
311.3433688
311.2766753
304.95431
325.2796765
329.0553423
321.2006502
304.9556195
316.5707758
325.3176024
321.2230445
321.1895208
297.1590713
286.9457999
286.9533326
270.968604
287.0159205
311.3565011
316.5173194
311.2074397
286.9110687
304.9528915
297.2611305
297.2657004
0
297.3279028
297.2839894
297.3081207
305.0332288
316.5511422
311.2314054
304.8869702
311.11645
311.1732927
321.1147646
321.1350323
321.1124734
321.1169353
0
286.8860209
297.1683771
286.898252
311.2024452
311.2697314
311.2781553
286.9238932
297.1997353
0
0
270.8722008
304.7706193
311.0805109
316.4480549
286.8852507
297.1789284
0
0
0
0
0
305.0841974
329.2619446
321.3105083
321.3001815
311.3585573
311.3675835
304.9163666
332.4677229
338.4315513
325.3107816
304.8766358
0
0
287.1248072
297.334466
286.9685995
297.1455331
0
0
0
0
0
271.030556
286.966763
311.1713656
316.4234892
316.3968453
316.4514492
297.2492946
0
0
287.0258047
0
297.1794458
297.1142511
286.8736045
297.1689977
270.9396826
286.9370151
286.8834215
286.9202282
286.908177
304.8408815
304.8040976
311.139873
286.9211926
0
0
0
0
0
0
0
0
270.9829952
286.936243
286.9782679
286.987457
297.2050178
304.9716668
304.9635872
311.2671138
297.2369463
286.8932431
0
0
0
0
0
0
286.8932431
286.9238932
287.0129174
311.2997977
304.9920965
287.0504386
297.3030218
304.9950478
286.921482
297.0952762
297.1595882
304.8956764
316.5154417
321.2104528
321.1636516
286.9271729
0
0
0
0
0
0
0
0
286.840146
286.8353431
297.1460497
0
271.0483683
0
0
0
0
0
270.9560314
316.5157937
321.1872229
321.2058536
311.2530061
287.0223156
297.2606112
271.0112927
305.0056534
297.2394362
286.9505316
297.3373836
297.2747391
297.3138453
311.1800956
321.1609936
304.9290076
297.2040855
286.9313215
297.1079587
286.8529269
297.0618002
286.8735083
297.1078556
0
0
0
0
0
287.0257078
297.3286319
287.0716043
297.288564
304.933041
311.2581249
311.2403844
311.211527
311.2081209
297.2218056
297.1906234
304.8561981
311.0675272
311.1182597
316.4861207
321.1013821
305.025894
297.2606112
286.9718863
304.9949385
305.0088251
297.2288562
287.020862
297.2348716
305.0063096
297.237465
316.6186897
304.9596576
321.2899804
316.5699525
329.048745
335.5894853
321.1673974
325.2219012
316.4652652
329.0018493
304.9778921
305.0208596
286.9788481
297.2327972
286.9491796
286.9577762
297.2291673
286.9569068
0
321.0772872
325.2432892
335.5140561
321.0521322
316.4649138
270.9291924
0
0
0
305.0025915
286.9501453
0
0
286.940683
297.2062609
286.881785
286.9478276
286.9636704
297.2465961
311.1297995
0
286.9384629
297.2724531
311.2762199
297.3252989
297.3230077
297.2872124
297.2299969
297.303438
271.02252
271.0726931
297.2996926
286.9958758
270.9867887
270.9160449
286.8969033
286.9138643
297.1513194
304.8814217
270.9405427
0
0
0
0
0
0
0
0
0
0
0
0
271.0061131
305.0563427
325.6021721
316.7722304
316.7237853
316.7288742
0
0
297.23176
287.0111739
0
0
0
0
0
0
286.9672463
304.9473273
316.6753157
305.1822815
305.1374768
297.3891303
297.3301945
287.0387969
297.2647656
304.9681725
304.9416554
304.9294436
0
0
0
286.891028
286.9230251
286.8880429
286.8466796
297.1039367
270.9221449
286.8833252
270.9173335
270.8854891
0
271.0239023
287.0327846
286.9745934
270.9591307
270.9538795
0
0
297.1307642
286.8896799
286.8334223
270.8908928
270.8930376
286.9222535
286.9954887
311.1912111
304.8276369
286.8181579
270.8952684
270.9170758
297.1526629
286.8974813
0
0
0
0
270.9479413
286.9211926
321.3316607
316.5933675
304.999202
311.2298145
270.9259261
270.967398
0
0
0
270.9542238
297.2129956
297.2069861
286.9748834
270.9712745
0
0
0
0
271.0370391
286.9883278
316.4836594
325.2634569
328.9293856
325.192629
325.1615399
304.7743007
297.1115689
297.1254993
297.2076077
304.9784383
321.2453371
332.4303217
321.0288045
321.1483115
329.0774297
325.2451445
329.046969
335.5582621
329.0188237
325.3404339
297.0879587
270.9201686
0
0
0
286.9367256
311.2253833
311.1118134
311.1702321
270.9748934
0
297.1796527
311.2324281
321.1599063
286.9017204
0
0
0
0
286.8101942
0
0
0
0
0
0
0
286.9519804
311.246069
304.8771796
304.8601103
311.1711389
270.845567
0
0
286.9646368
304.9536553
304.9512548
297.2612343
0
287.0484008
271.0525212
0
0
0
0
0
271.0917593
287.0951252
316.6624457
304.9760353
311.1869004
297.2275081
286.9470551
297.1802736
270.9570645
286.9960694
286.9554577
304.986523
286.9751735
297.1973534
304.8992686
304.8927377
297.1244671
304.8604363
304.9120093
304.8928465
316.6718909
316.6970563
305.0837585
311.4418627
316.767844
311.4863787
287.0850138
287.1950438
305.0783824
287.0145642
0
0
286.9338304
297.3369668
311.2569873
304.9963596
316.6112671
304.9146236
316.5464419
311.2229977
270.9479413
270.9804953
287.0043949
297.2081257
304.9960316
325.4860776
332.5059535
335.6155973
325.3588128
325.4112879
329.1492756
329.2182501
316.7039133
316.5812454
321.2012552
335.6893178
335.6792655
338.6531617
335.6416018
332.550082
329.1090691
316.4996041
304.7994359
311.0770103
311.1296863
270.930138
0
0
287.1038795
305.053822
316.6415607
321.250792
316.5161458
0
0
0
0
0
0
0
0
0
0
0
297.2408887
297.2508516
316.57701
297.2259528
286.9425172
286.976914
0
271.0126742
287.0280341
321.3343364
321.3708507
287.1073822
0
0
0
0
0
0
286.829101
311.0971176
325.2329021
332.4796399
335.7445375
332.6667153
344.0062174
341.3726626
332.4955806
335.717245
332.6293022
287.0467514
304.9395833
311.2458416
316.5947801
311.3301296
311.3140467
311.1453076
311.2167506
311.2538023
286.9680195
0
270.9630056
297.2821183
297.3552101
297.2767136
0
0
297.4344026
297.3994731
297.3914283
0
0
0
0
305.0027009
304.9927523
329.1664708
332.6147158
316.6129164
304.9547465
286.9402969
0
0
0
0
0
0
0
0
311.2013102
0
0
0
0
0
0
0
0
305.0836487
316.6284722
321.2505495
325.4007098
321.2358846
311.23311
297.1920728
270.9930842
0
287.0121425
297.3163437
271.1060718
311.228451
316.4192804
325.3163621
321.272502
311.2816852
297.1816188
297.137063
297.1579342
297.1620694
311.2455005
316.532581
316.5841871
311.226065
297.2421338
270.9815297
270.9460483
297.1860689
286.9774943
286.9822332
304.9347855
286.9577762
297.1697216
286.8961327
297.0720952
297.0747726
311.1790751
286.9418415
297.1708593
311.1910976
297.1393352
297.1273574
286.905093
286.9315145
311.0928237
297.1216805
297.2026353
297.2274044
297.2383987
297.2326934
297.2057429
0
0
0
270.9828228
286.9005642
286.8243967
286.8615802
286.807892
286.848025
297.1587612
304.8558721
297.0453382
0
0
270.9271294
0
0
0
0
0
0
0
0
0
0
287.0137893
316.5964284
311.1916649
311.1861064
286.8686016
0
0
0
0
0
0
0
0
0
0
286.8878503
286.9628006
0
0
0
0
0
0
0
0
297.200771
297.2158974
305.0159357
311.1886019
304.8157016
311.1459871
286.8168144
286.8949768
286.8612917
304.8545682
0
0
0
0
270.9050528
304.9260647
270.9682594
0
0
0
0
0
0
0
297.2524087
286.9510145
0
0
0
0
304.9873972
297.2706868
297.2980281
287.1031012
287.0247385
287.0506327
0
0
0
0
0
0
304.6613104
304.6910712
304.7344864
311.0262513
304.8310016
304.8815305
311.2035802
311.293303
305.0171392
311.3211173
305.0112315
311.3187222
311.2630172
311.2958095
311.2183406
311.2117541
297.1949718
297.2403699
297.2476339
0
0
0
0
270.9389945
286.8929542
270.8378665
0
304.9254107
286.890065
286.9440619
286.9119362
297.2337307
0
0
0
0
297.3252989
287.0505356
297.3089532
305.1047258
321.3540477
325.5566992
316.7028491
297.2805591
316.6737804
325.4572584
332.5413805
316.4056066
329.0459543
321.1398603
316.464094
316.5476169
325.3758371
311.2914802
311.3759271
332.7393408
329.1993633
329.2010218
335.7099627
338.6897037
329.2337011
321.3466238
316.7478185
316.8191062
321.3570909
316.660439
305.0834293
321.3259454
321.2831818
329.115554
311.2913663
311.2911385
0
0
0
0
287.0820008
287.0859858
297.3905926
297.3095777
316.5656014
321.1856508
321.1024669
304.8466376
325.3207034
311.2367469
311.1765806
321.1916979
311.2866961
305.1231838
305.0567811
297.288564
325.4819586
329.2785723
321.4328001
316.6941013
311.403264
316.723667
305.1128543
297.3166561
286.9645401
297.1543165
316.4930374
329.1050009
329.0719696
316.5476169
325.4298409
321.2644951
0
297.2666353
311.3904496
311.4461042
311.3857603
305.0193276
316.5224838
325.3391926
329.1495303
321.2675277
321.2059746
304.9355487
297.2551079
0
0
0
271.0456868
287.0544177
286.9911338
0
287.0098179
287.0185365
286.979912
304.9368571
286.9752702
297.2700635
0
270.9948956
0
0
0
287.0250293
0
0
0
0
287.0419977
0
270.9924804
286.9871668
304.8903435
297.1911411
311.1635453
286.8796674
297.1020806
286.9073096
286.9539121
297.2784804
297.2762979
297.2284414
297.2871084
0
0
0
0
0
270.9931705
286.8670624
286.8661967
286.8022335
321.1582151
304.7952087
286.8491783
0
286.9779778
297.3613641
297.3461387
286.9934563
0
297.2642462
311.3803858
311.4309755
316.7523199
321.333485
311.2773584
316.5186104
311.0872878
316.3920571
311.0678658
311.1111349
0
271.133252
325.6128314
321.4286492
311.3619845
286.9697595
297.1959037
286.9872635
286.92235
0
0
0
0
286.8667738
286.8948805
286.9768173
297.308641
316.6124451
305.1003332
287.1015446
0
0
0
0
297.3150945
297.3726334
332.6362074
321.2681343
311.3318411
316.6328342
311.2402707
297.1639305
0
297.2500212
287.0089463
297.2634153
297.2970919
0
0
0
297.165585
304.952455
329.0601644
321.2011342
316.653594
305.0981372
305.0176863
304.9428551
297.231034
286.8770688
297.2062609
287.1067011
316.654066
297.2884601
286.9536224
297.2829499
297.312388
297.2742196
297.188139
297.1857584
270.9096035
270.8934666
286.8641769
297.0217981
286.8754328
286.891317
0
0
0
0
0
0
0
0
0
0
0
0
0
0
0
0
270.9240354
311.2122083
311.2178863
286.9535258
305.0288495
321.2128738
325.3749669
325.3199591
304.8791374
297.130248
0
0
0
0
0
0
0
0
286.9556509
297.3683546
0
0
0
286.979912
305.0043411
286.9148284
297.1886566
286.9464758
297.2099906
316.5664245
311.2304963
311.1770341
316.4952652
304.82156
304.8327384
297.1607254
297.1852409
286.9244719
311.1326287
316.3246521
316.4429058
316.4642112
304.896656
0
0
0
0
0
0
0
0
0
0
0
270.9401986
286.9293918
297.2200434
297.2155864
286.8836141
304.9130985
297.1766522
0
271.0398924
305.1112064
287.1220805
287.0583975
287.0484979
286.9755603
0
286.9281376
304.9069993
311.1815698
304.9351126
297.2752587
297.2955317
297.2122702
297.153593
297.1301447
271.0591851
287.0595624
287.1374714
305.0962707
305.0583155
311.2688209
304.9691552
311.3142747
297.347911
287.1062145
305.0440708
325.4343254
321.2993313
311.1746532
321.1072888
335.5896171
311.2714387
316.6954015
305.1114261
297.3524987
297.3991596
311.4016619
311.3838162
321.3804748
311.2977466
311.3103982
332.6030002
325.4297163
321.3209608
325.4502767
311.3109682
271.0599641
0
287.0439379
287.0437438
287.07413
271.1155326
287.0962923
287.0801543
297.337071
316.6294152
297.320925
297.3575046
305.0874895
321.2419435
325.3865295
321.2550355
311.3229423
305.0054347
297.2762979
286.9921982
304.9950478
325.4886991
297.392264
305.220549
311.4300589
297.2896039
311.3358353
325.3606762
325.4470358
332.5804942
329.166216
321.3295933
332.6069048
297.4127483
287.104074
297.3288403
305.0992352
305.1282404
316.7359766
321.3472322
321.2931374
321.2610989
321.2831818
329.0919106
335.739766
341.4502104
338.7515684
335.7827388
338.7237261
311.3463373
311.3237408
311.2347011
304.8909964
316.5665421
321.2051275
325.453518
304.990785
311.180209
316.5999606
321.3292285
329.2165906
329.230508
325.5393075
311.3951398
297.3426988
297.2405775
286.9426138
287.0252232
297.3148863
0
0
0
286.9115506
297.1776868
297.2002532
286.9644435
0
0
0
0
0
287.0019744
305.0235956
311.3485067
325.3916286
304.9539827
311.2683657
297.2146537
270.9274732
271.0073216
270.9642974
0
0
271.0214834
0
0
0
0
0
287.1174071
305.0711432
316.5388057
304.9624956
304.9121182
286.9015277
297.190934
286.981943
0
0
0
297.2849251
305.0191087
311.3869039
305.081564
297.3265487
311.3430264
305.0843071
311.2844183
311.3703263
286.9187817
0
0
0
0
0
0
0
0
0
311.1355714
304.853047
270.9132104
270.882745
311.1692119
311.2084615
297.1345846
297.0699328
304.8399042
297.1684805
297.3270695
297.3955026
297.4516784
287.1560919
305.1098882
311.2927334
316.5397454
286.9498556
311.2063045
311.1545947
311.4412895
305.1537595
297.4095071
287.1087445
297.2685051
297.2811828
0
0
0
0
271.0256303
316.7028491
316.6841751
316.6315373
311.2490256
297.285237
297.3617814
316.9023932
311.4594069
316.7619176
325.5418092
305.0463713
271.0641195
0
0
0
0
0
0
0
0
0
286.9652166
286.9921015
305.0633581
311.3809575
311.3011653
321.1966576
316.65442
325.5618313
311.1022036
286.958839
286.928427
316.6007848
305.0484529
297.3216539
271.0810972
0
0
0
0
0
0
297.3036461
316.651234
297.2547965
286.9920047
286.9237967
286.9282341
304.9340223
311.2987721
316.544327
316.5288234
304.9755984
297.237465
305.0475764
325.4941926
311.3614133
297.3027097
316.6671678
316.761088
311.4467921
316.7719932
311.370212
311.3308142
304.9550739
304.9752707
316.6592587
311.2599451
304.9857581
286.9480208
297.1577275
304.8763095
316.4356521
321.1303259
321.0931873
311.1745398
316.4844798
316.4693646
286.8715839
270.8722008
286.8362075
297.1885531
286.9133823
286.9432896
297.2955317
271.0269264
286.9929724
286.9914241
286.9693728
0
0
0
0
270.7802986
311.0093552
304.7758167
304.81017
297.0433841
286.8474484
0
0
0
286.8585031
286.9046112
286.9194567
286.841491
297.0299161
0
0
287.0354027
271.0458598
297.2284414
297.2724531
297.2372575
286.9737232
304.9655522
325.3961066
297.2099906
304.9482
316.4759251
0
0
270.9925667
286.9590322
286.9181067
0
0
286.9865863
286.9289094
297.2648694
287.0245447
287.0473335
287.0565531
287.0795712
297.3379046
287.1193542
0
0
0
270.9651586
297.2391249
297.2897078
297.2631037
287.0195054
0
297.3194672
287.0803486
305.0344332
305.039361
311.3863321
316.6952833
311.331727
286.9680195
0
0
0
0
0
0
297.3940399
287.0746158
297.2820143
297.288668
271.0096524
305.0590828
297.2768175
297.2922036
287.045199
297.3372794
325.4228664
332.6252641
332.6183616
325.5090557
325.4684829
321.2687409
316.663272
311.2779276
321.1924236
332.4889699
329.179725
332.7254801
321.407295
297.3921595
0
271.0251983
297.2685051
297.2940756
311.3005955
316.6369612
0
0
0
311.430861
311.3159852
332.5853061
321.2392774
329.1581903
316.6245823
325.3574463
321.1719897
316.5912486
325.402203
341.4200433
325.3742212
325.3832964
311.2836211
305.1422065
287.1499482
0
305.0285211
316.6397915
311.3115383
304.9606399
0
0
270.9614555
304.9402376
311.1596927
311.1604858
316.4797919
316.6447454
311.2784969
311.3012792
338.6906482
305.1199966
316.7507798
311.5138403
321.4802164
321.4172988
304.9559469
286.9872635
286.9481173
270.9979151
0
0
0
316.5321112
329.184697
325.4197534
305.1023098
287.0276464
271.062388
0
0
287.0178582
286.9384629
297.2072969
286.9953919
297.2448318
287.0261924
286.9998445
287.0020712
297.2360127
316.6034933
332.4738103
325.4046917
311.3654123
305.0519591
287.0573296
297.2653888
0
0
0
0
0
0
271.0219153
297.1951789
286.9601917
287.0751016
297.2932436
287.0277433
297.2507478
0
0
0
0
0
0
0
0
0
0
287.0599508
305.1230739
316.867379
311.5039552
311.5550335
297.4145258
287.0558736
287.0140799
297.301149
287.074713
0
0
0
0
0
297.4322049
297.3647026
287.0913329
297.3096818
271.0481088
0
0
0
0
0
0
297.3074963
297.3130125
311.2881768
304.9450365
297.212063
297.2578075
305.0381564
316.6770873
311.3384603
297.3091614
287.0703415
0
0
0
0
0
270.9996407
286.9629939
304.9912222
305.0167015
270.999123
287.0227033
271.0644659
0
0
0
0
0
0
0
0
0
0
0
297.3038542
287.0354027
297.3356122
297.4150487
287.1372765
304.9836821
297.4282285
297.4426724
305.0532741
287.0135955
287.0332694
287.0662623
287.0881245
287.0459752
287.0207651
271.0265808
0
297.3671024
287.0363724
287.1060199
0
0
0
271.1012997
287.1308461
287.1190622
316.7426074
311.4239874
271.0980902
0
0
0
0
0
270.9936018
304.9207248
304.9213786
311.1639986
297.1055866
286.8956511
286.9331549
271.0253711
297.3077044
271.0628209
0
297.3759736
0
0
297.1346878
286.8907391
304.8617406
297.1184814
304.7981352
286.801754
0
270.8752863
304.9413282
286.9815562
297.3072881
0
271.0276177
305.028959
287.0574267
271.0274449
0
0
297.2028425
270.9061689
286.9620276
297.2415113
297.2336269
270.9834262
0
0
287.0268709
297.2633115
321.3698764
325.5371812
311.3850741
304.9521277
287.0291974
286.9685995
286.9919079
297.1427438
286.9571
286.9701461
0
271.0804039
305.1315387
311.3775276
287.0990156
0
0
0
270.9717915
311.2319736
297.2469074
287.0375361
297.3215498
287.096195
0
0
0
0
0
0
297.3419692
287.1497532
271.1414224
271.1505532
297.3023975
311.368612
297.223257
286.9719829
287.0016839
0
0
0
0
0
0
305.1003332
316.7043862
305.0518496
305.0450567
287.0632519
0
0
0
0
0
0
0
0
305.006419
287.0184396
297.2664275
287.0142736
297.2997966
287.0358875
311.3565011
271.0700946
0
0
0
0
287.0975566
305.1268112
311.3404008
311.2223161
316.6218716
311.2876073
316.5933675
287.0250293
0
0
0
0
0
287.0554853
311.370212
297.2821183
287.0357905
297.2988603
287.0784051
287.0999882
297.2346642
0
0
311.35159
316.6587866
305.0392515
305.0074033
329.0458274
316.5310544
297.2706868
287.0232848
270.9870474
305.0275359
305.0546988
325.5041837
311.3790138
311.2301554
286.9603849
297.2525125
286.9470551
321.222439
325.3475107
329.1853345
329.1351456
343.9200706
335.5857946
332.4385999
311.18191
304.9627139
316.7086433
329.234723
325.5393075
325.532304
321.3624479
305.0268792
311.3550163
316.6423863
316.5778335
304.9081972
311.2366333
316.5431522
321.1472248
325.3785719
316.544327
286.9580661
286.9745934
0
0
0
0
305.1551903
335.8108927
325.4698551
311.3190643
316.6314194
305.0269886
297.2540697
304.9003573
304.9777829
311.2297009
0
0
0
0
0
0
0
286.9894888
297.2847171
297.2720375
0
0
0
0
0
0
0
0
0
0
0
0
0
0
0
287.0365663
286.9628006
297.2414075
286.9825234
297.234353
304.9547465
286.9727564
297.222635
297.3182178
271.030556
0
0
0
0
0
271.0803172
0
0
0
0
0
0
270.9987779
297.2329009
311.2206122
297.3016692
271.0224336
0
271.0175965
297.2701674
271.0636866
0
0
0
287.0010062
0
0
297.2009781
297.2959478
316.5690116
329.0665106
316.5164978
304.8629362
297.1725143
297.2168301
0
270.9176771
286.8812075
286.8195015
297.0654029
316.3012545
311.0449633
321.1393775
316.4626887
297.226886
0
0
286.8090431
297.1252929
286.924279
0
0
0
0
0
287.0126268
316.5830104
325.4444184
321.2722593
311.2310645
297.2475301
297.1238478
297.0900197
286.8807262
0
311.4061253
304.9870694
271.1048569
0
0
0
286.9997477
297.1345846
286.8635036
297.1632067
286.92534
0
0
0
304.9465637
311.2863544
311.3340093
297.341865
305.0043411
305.1012116
0
0
0
0
0
0
0
0
0
0
0
0
0
0
0
0
297.3045826
286.9713062
287.0098179
270.9811849
316.5685412
325.2937994
311.1483652
304.8710898
297.2227387
287.0132081
297.3225911
297.3336325
311.3251096
297.2426527
0
0
297.3460345
305.0986862
305.0034663
286.9960694
286.9270764
321.2617054
321.3398102
321.2549143
287.0256109
287.0363724
304.9627139
311.2600589
311.28271
297.3087451
311.3794712
332.6110704
329.2449439
338.7765958
305.0092626
304.972868
305.0325718
311.3711263
329.2111022
338.7583304
325.4325813
305.066099
305.136707
287.0916246
297.3487451
311.3771846
305.152659
297.416199
316.7072242
338.8076062
341.6102124
329.3208271
321.4260858
271.1113658
297.385266
287.1115668
297.2747391
287.0431618
297.3093695
297.3705461
287.0579121
297.337071
287.0461692
297.3141576
311.411391
311.371012
305.0417706
297.4049077
297.3758692
0
287.0535441
287.0523795
0
0
0
0
0
0
0
0
271.0254575
287.0040076
311.3965127
311.4371634
297.170549
270.8736578
297.1034211
297.1426405
270.9374465
0
0
0
297.1916587
304.8901258
311.1442886
304.8829447
286.8888132
286.8833252
286.8753366
0
0
0
270.9070275
297.1471862
0
0
0
0
286.9496625
297.2186958
304.9241029
311.2168642
297.2251233
286.9554577
270.9622305
297.2191104
286.953236
297.168584
286.8185418
286.8635998
297.1755142
297.1432603
270.9704992
0
297.3182178
304.9703564
297.2633115
271.0386819
0
0
0
270.9399406
286.8083716
297.1380958
297.08631
297.0931116
297.130248
286.9505316
297.2520973
311.2614242
311.2819129
316.6163331
297.2364276
297.3137412
316.7533861
311.350448
304.9999673
297.2905397
305.1058241
316.684057
311.3547878
321.3372556
311.3957119
325.4005854
304.9519095
325.3558315
329.0981372
321.3517351
316.6642164
311.283735
321.3385937
311.4174594
321.4320676
305.1495778
0
0
0
287.0716043
311.3723836
311.5520394
329.4563614
321.4955109
329.2913698
332.6776752
325.5283028
297.3578175
287.0420947
287.034336
287.0657767
297.3274861
287.0505356
287.0410277
297.3151986
271.0782376
311.2839627
304.9789845
311.2473198
305.0002953
316.7084068
311.3529604
304.9446002
321.2314019
297.1777903
286.8730272
297.0539792
270.9546542
270.9792886
287.0882217
311.3380038
305.0493294
321.3244864
316.587953
332.5431985
316.6232858
335.6741085
332.45607
311.2594901
321.272866
321.2537018
304.9605308
286.9885213
0
0
0
0
297.3329032
316.7259154
311.3216876
287.0616013
297.313533
297.274947
305.0333382
311.2549397
316.5818337
270.9762722
297.1262219
311.1823637
297.2006674
297.2236718
271.0216561
286.9617377
286.9457999
271.0201013
0
0
0
0
0
0
0
0
0
271.076678
0
311.2584662
311.3273913
271.0424002
0
0
297.1857584
286.9780745
297.2856528
0
270.9789438
316.5971348
311.1380617
316.4075929
316.4410337
311.1521027
286.9483105
271.031766
0
286.979235
316.5408026
0
0
286.8347668
297.1311772
304.835561
304.8828359
311.1444018
311.1322892
325.2571451
325.3239287
311.1587863
316.558312
311.2078938
304.9946105
286.9691795
0
0
287.1151681
287.0422887
0
0
0
0
297.3231118
304.9622772
286.8667738
270.8613201
0
0
270.8807728
270.8890914
0
0
270.9397686
270.9350386
286.8904502
0
0
0
0
0
0
0
0
0
0
0
0
0
0
0
0
0
0
0
270.9175912
286.9118398
286.8527347
297.0579923
0
0
0
0
0
0
0
0
0
0
0
0
0
0
0
0
0
297.3097859
287.0797656
297.2363239
270.9853229
297.2687129
297.3277986
287.0287127
0
0
0
271.085344
297.4004136
305.1619051
305.136927
311.4383095
311.4790302
316.8007014
321.3952225
305.1309889
297.4269729
287.1584328
287.1145841
287.0373422
305.0083876
305.18691
311.436705
311.4165433
316.7055687
305.023705
311.3239689
0
0
0
0
0
0
0
0
0
287.0877356
287.063349
287.0923052
305.0911114
287.1349379
304.8750045
297.0544937
304.7894652
311.0663985
297.0744637
304.9163666
297.2524087
297.2436903
286.986683
297.2694401
287.0312333
297.2517858
286.9090445
297.1463596
297.1977677
311.244932
311.2581249
311.2822545
316.4930374
316.4395127
304.9707932
297.1453265
0
0
286.9389455
286.945993
286.9089481
297.1419174
297.0977503
286.8801487
325.2225191
329.0236393
321.2114212
316.5611334
329.0451932
329.0845421
321.1250171
311.0950836
304.8793549
297.2340418
297.1303512
286.9398143
286.9939402
286.9839743
297.133552
286.9256294
304.9214876
311.2676828
304.9509275
297.2750509
0
0
286.8878503
0
0
0
0
0
286.918396
286.8516773
325.5111797
297.3131166
297.2498136
287.0068157
271.0197558
0
0
0
0
0
0
0
0
0
0
270.9439835
297.1852409
297.1737556
311.3015072
325.3635337
0
304.9246479
287.0044917
287.0459752
286.9887148
297.260092
287.00914
0
0
0
0
0
0
0
286.9559407
286.9843613
297.3393636
287.0585916
297.2427564
0
0
0
0
0
0
0
0
0
0
286.9901661
297.3159273
297.1878285
311.2362923
311.1510833
270.8705726
0
0
0
0
0
0
0
0
271.0128469
297.2649733
286.9929724
297.3293611
287.0399608
297.2793118
0
271.0019705
286.9098156
297.225538
287.0083652
304.8839238
311.0258006
304.8523951
304.8595669
286.9072132
286.8798599
297.244728
287.1196463
305.0970393
305.0270981
297.157314
286.9006606
297.2297895
297.2679857
287.0270648
297.2584305
286.9640569
270.9537934
0
270.8554111
297.1432603
287.0128206
286.9989733
270.9764445
297.2555232
297.2601958
0
0
0
0
0
0
286.9619309
297.1768591
286.9333479
286.9432896
297.2008746
304.9074349
311.1912111
297.2143428
297.2180739
297.1517328
286.9864895
297.2740117
271.0232976
0
0
0
0
270.9404567
297.2186958
286.9344094
0
297.3017733
297.3147822
297.3652242
0
0
0
0
0
0
287.1087445
287.1284108
297.2819104
0
0
270.9460483
297.2478415
286.9696628
286.9325759
311.1479122
297.1783076
0
0
0
286.8311175
297.0846614
297.142124
286.9149248
297.1342748
286.9088517
297.1923834
270.8754577
0
0
321.2238922
321.2401257
311.2731462
287.0049759
0
0
287.1101069
287.0706329
287.0612129
287.0441319
0
271.0428326
286.9543951
286.8777425
270.9643835
0
286.9436757
286.8392814
297.1628966
321.1495191
0
0
0
0
286.8503317
286.7389439
0
0
0
0
0
0
0
0
286.8567724
297.1284929
297.2097834
297.3271737
297.2527201
270.9808401
0
0
0
0
0
0
0
0
0
287.114
297.319259
316.67567
316.606791
305.0031382
271.0785842
0
0
0
0
0
286.9628006
297.3289444
286.986296
305.0288495
305.0834293
316.6782685
321.2896161
311.2987721
316.6414427
297.2287525
0
0
0
0
0
0
0
0
270.9384785
0
325.3128897
329.0255404
335.8081026
332.7244342
311.3473649
311.4093304
305.1345076
287.098432
286.9892953
0
0
0
0
0
270.992998
297.2250196
311.2233385
304.9378385
304.9966875
321.1506059
304.7827483
0
0
0
297.2060537
286.943193
297.1959037
316.6063199
286.9236038
311.1822503
321.1356358
329.1458379
335.7848626
338.6965859
341.4255259
335.7160532
329.1230582
325.3506152
325.2348803
311.0656084
316.5381009
325.3706168
329.1020773
329.0663837
325.3085498
325.2094225
321.139981
321.1689683
332.5239857
343.9689485
338.6763489
325.459877
341.4260742
329.1151725
316.5990186
297.2305155
297.303542
311.2922777
311.35593
325.4008343
297.2197324
286.892569
286.884673
297.2732844
316.6018446
316.6274112
316.5084015
311.2730323
297.247115
297.3046866
297.3300903
305.0439613
304.9447093
311.1937071
316.5130947
304.893173
321.1893999
316.5772453
304.9463455
304.99953
321.1561616
321.3496661
321.3570909
305.0900138
287.0250293
0
0
0
0
0
0
0
0
0
0
0
0
0
286.9027803
316.5455019
0
270.9340068
297.1557635
297.2193178
270.9168181
297.2301006
304.962823
311.2022182
316.6329521
311.3583288
311.3951398
311.4093304
297.3752429
287.044908
286.986683
297.2307229
286.9797185
297.1740659
270.9184503
0
0
0
0
286.8919911
286.939042
286.9554577
297.1407812
311.174313
304.8906699
286.869756
286.868313
270.785075
0
0
0
0
0
0
0
0
0
0
0
0
0
0
0
0
0
286.9092372
271.0261487
0
0
0
0
0
0
0
0
0
0
0
0
0
0
0
0
0
0
0
0
0
0
0
297.1715834
297.1498727
297.100637
297.1219901
0
0
0
0
0
0
0
0
0
0
0
0
0
0
0
0
0
0
0
0
0
0
311.3007094
305.0794795
297.3296736
271.0694018
0
287.0386029
287.0695644
287.0597566
0
0
0
0
0
0
0
0
0
0
271.0947077
305.050206
0
0
286.9777844
297.2147573
287.0552912
297.2495022
311.2710973
316.5069937
321.1733193
316.5362217
316.4827217
316.5819514
305.0175769
311.235383
297.188139
286.9773976
286.9202282
297.262896
271.0870776
0
0
0
0
0
0
0
0
0
0
0
271.0447353
0
0
0
271.0129332
305.0321339
287.0715071
297.2938676
271.037212
0
0
0
286.9111651
286.8869837
270.9266997
0
0
0
0
271.0233839
0
0
0
0
286.9560373
270.9349527
0
0
0
0
287.015533
287.0097211
0
271.0400653
287.0348208
286.9986829
287.0192147
297.25625
287.029876
297.2219093
311.1781679
0
0
0
0
0
0
0
0
297.2077113
0
0
0
0
0
0
0
287.0263863
297.3118675
287.0515061
271.1254326
287.1930896
297.5830974
311.5972194
311.4864935
311.3802715
287.0544177
0
0
0
297.344575
0
0
0
287.004879
311.3110822
316.5577242
297.2618574
286.9891986
287.0001349
270.9723946
286.8583108
286.9023949
297.0764205
297.1037304
286.9439654
297.1945577
297.2823262
287.0025553
297.300941
271.0322846
287.0663594
311.3673549
311.3950254
297.3026056
0
0
0
0
0
0
0
0
0
0
0
0
0
0
0
0
271.0214834
0
0
297.2003567
297.2176593
304.9357668
297.1563837
297.1364434
286.8907391
0
286.978558