# Cf ()          
# Time           	patch            	min              	max              	average          
0.003            	object	7.9190109075e-07	2.6534217627e-04	1.0633239505e-04
