/*--------------------------------*- C++ -*----------------------------------*\
| =========                 |                                                 |
| \\      /  F ield         | OpenFOAM: The Open Source CFD Toolbox           |
|  \\    /   O peration     | Version:  v1706                                 |
|   \\  /    A nd           | Web:      www.OpenFOAM.com                      |
|    \\/     M anipulation  |                                                 |
\*---------------------------------------------------------------------------*/
FoamFile
{
    version     2.0;
    format      ascii;
    class       volScalarField;
    location    "0.55";
    object      dsmcRhoNMean_Ar1;
}
// * * * * * * * * * * * * * * * * * * * * * * * * * * * * * * * * * * * * * //

dimensions      [0 -3 0 0 0 0 0];


internalField   nonuniform List<scalar> 
1000
(
96.045
95.437
94.612
92.916
93.844
93.428
92.893
92.34
92.314
92.756
91.652
91.04
90.421
89.308
88.994
88.684
89.421
89.104
87.613
87.048
86.759
86.1
85.723
85.313
84.597
84.698
83.363
82.534
81.932
81.361
80.82
81.191
79.727
79.101
78.843
80.062
78.533
77.712
78.151
77.429
76.644
75.919
75.66
74.458
74.909
75.588
75.371
73.813
73.089
73.089
72.173
71.507
70.811
70.943
70.779
69.619
69.077
67.853
67.56
67.268
66.961
66.161
65.49
66.041
65.275
65.237
64.415
64.589
64.658
63.486
62.014
61.976
61.135
60.778
60.695
60.594
60.472
59.993
59.908
57.988
58.521
58.09
57.623
56.9
55.674
55.98
55.198
54.378
53.999
53.596
53.353
52.33
51.926
51.607
50.766
50.009
49.393
49.559
49.454
48.719
48.231
47.838
47.974
46.853
45.976
45.289
44.644
44.294
44.4
43.646
43.263
43.379
42.613
41.863
41.352
41.42
40.803
40.887
39.998
39.275
38.741
38.304
37.236
37.573
36.846
35.713
35.4
35.222
35.029
34.226
33.209
33.33
32.981
32.039
31.621
31.54
30.924
30.087
30.065
29.694
29.024
29.17
28.305
27.487
27.152
26.819
26.21
25.777
25.811
24.789
24.4
23.463
23.372
22.399
22.981
22.179
21.929
21.158
21.417
20.637
20.022
19.523
19.221
18.765
18.622
17.77
17.289
17.017
16.766
15.846
15.727
14.936
14.834
14.078
13.594
13.312
12.849
11.848
11.335
10.867
10.498
9.783
9.527
9.086
8.914
8.213
7.814
7.262
6.671
6.417
5.99
5.36
4.759
4.379
3.927
3.538
3.13
2.622
2.104
1.506
95.112
95.654
95.126
94.754
94.03
93.398
93.01
92.776
92.942
92.008
91.168
90.669
90.253
89.517
88.898
89.137
88.475
88.95
87.735
87.367
86.024
86.209
85.348
84.799
84.217
84.07
83.931
83.001
81.855
81.418
81.012
80.346
80.731
79.987
79.936
79.376
78.446
78.516
78.919
77.737
77.046
76.142
75.482
74.54
74.506
73.644
73.867
73.344
72.884
72.633
71.907
72.046
70.764
70.009
69.974
69.771
69.203
67.775
67.989
67.197
67.112
66.573
66.213
65.918
65.587
65.547
64.3
64.198
64.365
63.707
62.596
62.04
61.506
60.954
61.188
60.379
59.798
59.488
59.271
58.14
58.336
58.133
57.29
56.183
56.27
55.571
55.686
54.67
53.776
53.548
52.803
52.134
51.857
51.192
50.335
49.731
50.018
49.503
49.36
48.348
47.87
47.754
47.14
47.067
45.631
45.383
44.806
44.653
44.728
44.227
43.456
43.143
42.845
42.241
41.548
41.247
41.037
40.21
39.898
39.149
38.82
38.16
37.727
36.918
36.44
35.961
35.446
35.211
34.446
34.077
33.461
33.201
32.411
32.324
31.459
31.55
30.61
30.287
29.886
29.612
29.272
28.862
28.127
27.803
27.529
26.615
26.095
25.489
24.975
24.672
24.098
23.421
22.828
22.771
22.531
22.597
22.043
21.612
21.063
20.388
19.972
19.683
19.135
18.713
18.502
17.941
17.431
16.669
16.183
16.007
15.738
14.968
14.769
13.854
13.514
12.9
12.433
12.031
11.32
10.903
10.661
9.908
9.406
8.849
8.807
8.261
7.775
7.016
6.85
6.439
5.881
5.453
4.825
4.486
4.166
3.588
3.028
2.592
2.01
1.446
96.047
95.3
94.8
93.519
94
92.806
92.645
92.718
92.317
91.58
90.544
89.958
89.659
89.61
89.113
89.562
89.581
88.217
87.751
87.261
86.955
86.19
86.012
85.47
84.388
83.354
83.795
82.883
82.481
81.96
81.57
80.935
80.323
79.911
79.166
79.235
79.109
79.083
78.035
77.361
77.169
75.956
75.107
74.864
74.645
74.46
73.753
73.908
72.939
72.904
72.156
73.005
70.999
71.227
69.839
69.401
68.571
69.067
67.95
67.586
67.555
67.391
66.181
65.211
64.995
65.092
64.341
64.21
63.539
63.253
62.744
61.782
61.778
61.084
60.876
60.283
59.98
59.004
59.603
58.443
57.765
57.531
57.153
56.662
55.987
55.78
54.786
54.246
54.043
53.387
52.862
52.328
51.386
51.384
50.91
49.595
49.926
49.205
48.768
48.114
48.149
47.248
47.313
46.534
45.693
46.085
45.235
45.59
44.814
44.446
44.017
43.208
42.928
42.339
42.111
41.414
40.613
39.888
39.328
38.709
38.419
38.276
37.521
37.298
36.935
36.434
35.761
35.116
34.347
33.466
33.542
32.902
32.662
32.457
32.001
31.779
30.923
30.564
29.954
29.383
29.044
28.997
28.383
27.951
27.223
27.053
26.455
25.733
25.444
24.57
24.425
23.781
23.171
22.574
22.358
22.024
21.654
21.451
20.834
20.933
20.35
20.034
18.724
18.868
18.626
18.2
17.474
16.837
15.978
15.664
15.339
15.111
14.446
14.063
13.75
13.141
12.504
11.97
11.542
11.093
10.297
9.947
9.306
9.113
8.762
8.14
7.649
7.107
6.836
6.217
5.74
5.271
4.859
4.402
3.79
3.451
3.088
2.483
1.941
1.262
95.394
95.253
94.373
93.995
92.9
93.138
93.329
92.332
91.566
90.921
91.077
89.673
90.429
89.387
89.269
89.139
89.05
87.718
87.395
87.341
87.004
86.055
85.865
85.991
84.71
84.048
83.734
83.254
82.045
81.508
81.119
80.877
80.924
79.331
79.989
79.33
78.072
78.397
78.094
77.136
77.01
76.154
75.429
75.474
75.121
74.395
74.34
72.817
72.6
72.607
72.057
71.409
71.101
70.699
70.089
69.463
69.903
68.996
68.613
68.304
67.71
66.853
66.099
65.897
65.171
65.039
63.807
63.882
63.668
62.789
62.482
62.183
61.16
60.677
60.335
59.935
60.551
59.129
58.92
58.223
57.368
57.48
57.216
56.536
55.822
55.465
55.774
54.091
54.442
53.29
53.025
52.895
52.655
51.766
50.636
50.008
49.556
49.967
49.095
48.436
48.165
47.671
47.35
46.538
45.853
45.737
45.92
45.129
44.914
44.383
43.843
43.239
42.709
42.294
42.225
41.281
40.326
40.292
39.287
39.211
38.582
38.457
37.699
37.164
37.204
36.775
35.795
35.428
34.398
34.006
33.526
33.061
32.912
32.627
32.381
31.572
30.898
30.487
29.962
29.194
29.291
28.88
28.484
27.954
27.977
27.09
26.339
26.012
25.202
24.573
24.155
23.616
23.362
22.831
22.389
21.586
21.841
21.203
21.175
21.025
20.128
19.901
19.395
18.992
18.655
17.875
17.099
17.205
16.256
15.786
15.145
15.436
14.702
14.202
13.714
13.277
12.681
12.217
11.468
11.311
10.657
10.012
9.552
9.036
8.469
7.918
7.47
7.044
6.704
6.237
5.654
5.256
4.897
4.487
4
3.525
2.973
2.502
1.921
1.288
96.445
94.806
94.854
93.507
93.31
93.407
93.301
92.378
92.379
91.531
90.675
89.806
90.057
90.146
89.724
89.534
89.638
88.417
87.194
87.115
87.298
85.812
85.025
84.884
84.669
84.339
84.093
83.367
81.616
80.666
81.123
80.56
80.76
79.261
79.745
79.127
77.894
77.878
77.581
76.66
76.387
76.735
75.754
75.712
74.986
74.092
73.804
73.393
72.255
72.653
72.196
70.432
70.854
70.994
70.509
70.595
69.255
68.851
68.491
68.018
67.404
67.112
66.253
65.406
64.73
64.623
63.86
64.519
63.891
62.632
62.253
62.236
62.041
60.992
60.119
59.942
59.586
58.899
59.518
58.883
58.174
57.853
56.568
56.571
55.433
55.451
55.119
54.396
53.702
53.394
53.635
53.253
51.998
51.44
51.063
50.226
49.844
49.916
49.451
48.345
48.438
48.442
47.855
46.875
46.215
45.789
45.417
44.98
44.807
44.054
44.251
43.434
42.307
42.208
42.199
41.814
40.892
40.626
39.655
39
38.275
38.114
37.688
37.176
37.372
36.526
35.972
35.653
34.557
34.091
34.278
33.613
32.911
32.395
32.551
31.185
30.375
29.759
29.889
29.863
29.095
29.205
28.319
27.77
27.429
26.892
26.37
25.713
25.61
25.084
24.471
24.052
23.202
22.545
22.005
22.036
21.691
21.123
20.866
20.696
20.08
20.259
19.657
19.008
18.409
18.091
17.111
16.952
16.457
15.81
15.474
14.797
14.738
14.074
13.601
13.073
12.728
12.13
11.479
11.035
10.456
10.051
9.506
9.088
8.645
8.007
7.618
6.854
6.677
6.307
5.56
5.275
4.847
4.507
3.968
3.554
3.113
2.569
1.972
1.381
)
;

boundaryField
{
    bottom
    {
        type            calculated;
        value           nonuniform List<scalar> 
200
(
96.045
95.437
94.612
92.916
93.844
93.428
92.893
92.34
92.314
92.756
91.652
91.04
90.421
89.308
88.994
88.684
89.421
89.104
87.613
87.048
86.759
86.1
85.723
85.313
84.597
84.698
83.363
82.534
81.932
81.361
80.82
81.191
79.727
79.101
78.843
80.062
78.533
77.712
78.151
77.429
76.644
75.919
75.66
74.458
74.909
75.588
75.371
73.813
73.089
73.089
72.173
71.507
70.811
70.943
70.779
69.619
69.077
67.853
67.56
67.268
66.961
66.161
65.49
66.041
65.275
65.237
64.415
64.589
64.658
63.486
62.014
61.976
61.135
60.778
60.695
60.594
60.472
59.993
59.908
57.988
58.521
58.09
57.623
56.9
55.674
55.98
55.198
54.378
53.999
53.596
53.353
52.33
51.926
51.607
50.766
50.009
49.393
49.559
49.454
48.719
48.231
47.838
47.974
46.853
45.976
45.289
44.644
44.294
44.4
43.646
43.263
43.379
42.613
41.863
41.352
41.42
40.803
40.887
39.998
39.275
38.741
38.304
37.236
37.573
36.846
35.713
35.4
35.222
35.029
34.226
33.209
33.33
32.981
32.039
31.621
31.54
30.924
30.087
30.065
29.694
29.024
29.17
28.305
27.487
27.152
26.819
26.21
25.777
25.811
24.789
24.4
23.463
23.372
22.399
22.981
22.179
21.929
21.158
21.417
20.637
20.022
19.523
19.221
18.765
18.622
17.77
17.289
17.017
16.766
15.846
15.727
14.936
14.834
14.078
13.594
13.312
12.849
11.848
11.335
10.867
10.498
9.783
9.527
9.086
8.914
8.213
7.814
7.262
6.671
6.417
5.99
5.36
4.759
4.379
3.927
3.538
3.13
2.622
2.104
1.506
)
;
    }
    top
    {
        type            calculated;
        value           nonuniform List<scalar> 
200
(
96.445
94.806
94.854
93.507
93.31
93.407
93.301
92.378
92.379
91.531
90.675
89.806
90.057
90.146
89.724
89.534
89.638
88.417
87.194
87.115
87.298
85.812
85.025
84.884
84.669
84.339
84.093
83.367
81.616
80.666
81.123
80.56
80.76
79.261
79.745
79.127
77.894
77.878
77.581
76.66
76.387
76.735
75.754
75.712
74.986
74.092
73.804
73.393
72.255
72.653
72.196
70.432
70.854
70.994
70.509
70.595
69.255
68.851
68.491
68.018
67.404
67.112
66.253
65.406
64.73
64.623
63.86
64.519
63.891
62.632
62.253
62.236
62.041
60.992
60.119
59.942
59.586
58.899
59.518
58.883
58.174
57.853
56.568
56.571
55.433
55.451
55.119
54.396
53.702
53.394
53.635
53.253
51.998
51.44
51.063
50.226
49.844
49.916
49.451
48.345
48.438
48.442
47.855
46.875
46.215
45.789
45.417
44.98
44.807
44.054
44.251
43.434
42.307
42.208
42.199
41.814
40.892
40.626
39.655
39
38.275
38.114
37.688
37.176
37.372
36.526
35.972
35.653
34.557
34.091
34.278
33.613
32.911
32.395
32.551
31.185
30.375
29.759
29.889
29.863
29.095
29.205
28.319
27.77
27.429
26.892
26.37
25.713
25.61
25.084
24.471
24.052
23.202
22.545
22.005
22.036
21.691
21.123
20.866
20.696
20.08
20.259
19.657
19.008
18.409
18.091
17.111
16.952
16.457
15.81
15.474
14.797
14.738
14.074
13.601
13.073
12.728
12.13
11.479
11.035
10.456
10.051
9.506
9.088
8.645
8.007
7.618
6.854
6.677
6.307
5.56
5.275
4.847
4.507
3.968
3.554
3.113
2.569
1.972
1.381
)
;
    }
    inlet
    {
        type            calculated;
        value           nonuniform List<scalar> 5(96.045 95.112 96.047 95.394 96.445);
    }
    outlet
    {
        type            calculated;
        value           nonuniform List<scalar> 5(1.506 1.446 1.262 1.288 1.381);
    }
    back
    {
        type            symmetry;
    }
    front
    {
        type            symmetry;
    }
}


// ************************************************************************* //
