/*--------------------------------*- C++ -*----------------------------------*\
| =========                 |                                                 |
| \\      /  F ield         | OpenFOAM: The Open Source CFD Toolbox           |
|  \\    /   O peration     | Version:  v1706                                 |
|   \\  /    A nd           | Web:      www.OpenFOAM.com                      |
|    \\/     M anipulation  |                                                 |
\*---------------------------------------------------------------------------*/
FoamFile
{
    version     2.0;
    format      ascii;
    class       volScalarField;
    location    "0.55";
    object      dsmcRhoNMean_mixture;
}
// * * * * * * * * * * * * * * * * * * * * * * * * * * * * * * * * * * * * * //

dimensions      [0 -3 0 0 0 0 0];


internalField   nonuniform List<scalar> 
1000
(
97.513
97.449
97.239
96.178
97.439
97.522
97.462
97.769
98.212
98.885
98.13
97.929
98.07
97.152
97.209
97.622
98.489
98.61
97.757
97.581
97.361
97.271
97.376
97.725
97.877
98.311
97.487
96.874
96.929
97.12
96.924
97.379
96.282
96.504
96.665
98.357
97.135
96.84
97.939
98.151
97.53
97.079
97.524
96.937
98.254
99.112
99.276
98.179
97.851
98.631
98.044
98.316
97.732
97.727
98.128
97.351
97.609
96.853
96.881
97.092
97.737
96.892
96.96
97.941
97.789
97.881
97.443
98.108
98.386
97.957
97.167
97.432
97.9
97.606
97.669
98.82
98.744
98.714
98.305
96.587
98.015
97.503
97.905
97.6
97.714
97.928
97.409
97.24
97.533
97.76
98.287
97.879
97.572
97.503
98.142
97.461
97.341
97.751
98.712
98.143
97.399
97.57
98.759
97.343
97.241
96.709
97.39
97.54
97.405
96.724
96.994
97.782
96.852
96.904
96.809
97.19
97.47
97.921
98.431
97.993
97.191
96.966
96.584
97.031
96.696
96.726
96.274
96.298
96.463
96.252
96.154
96.94
97.012
96.079
95.793
95.887
96.227
95.465
96.042
96.259
96.576
96.744
95.437
95.621
95.382
95.573
96.023
96.351
96.957
97.447
96.733
95.64
96.855
96.244
96.891
97.317
97.799
96.219
96.913
97.579
97.124
97.327
96.945
97.431
97.869
97.058
96.563
97.259
97.832
97.489
97.396
96.967
97.285
96.792
96.66
96.703
97.509
97.331
95.843
96.14
96.768
96.665
96.111
96.51
97.519
97.217
97.59
95.874
96.882
97.696
97.383
96.882
96.206
97.294
96.933
96.67
97.744
96.436
97.132
96.948
96.547
97.763
97.745
97.866
97.792
97.58
97.743
98.017
98.593
98.107
97.654
97.58
97.682
97.518
97.251
97.877
97.248
98.484
97.815
97.881
96.93
97.706
97.303
97.191
97.388
97.733
98.175
97.646
97.418
97.177
96.971
96.916
97.865
97.363
97.669
97.751
97.114
97.891
98.637
97.973
97.867
97.401
97.226
97.004
97.341
97.211
97.791
97.687
97.384
98.057
97.455
97.775
97.433
96.757
97.855
97.555
97.311
97.046
97.648
96.915
97.771
97.707
97.866
97.866
97.965
97.668
96.795
97.768
98.043
98.384
97.635
97.444
98.004
97.708
97.882
98.017
97.862
97.817
97.743
96.867
98.012
98.87
97.612
97.191
98.016
97.511
98.116
97.659
97.67
97.905
98.013
97.818
97.952
97.82
97.696
97.502
97.639
97.61
97.404
97.608
97.362
97.633
97.767
97.902
96.87
97.463
96.808
96.691
96.911
97.302
97.019
96.683
97.6
97.098
97.207
97.421
97.166
97.028
97.23
97
96.935
96.841
97.034
96.673
96.651
96.56
96.064
95.989
96.103
96.374
96.374
97.105
96.182
96.774
95.957
96.452
96.446
96.269
95.661
96.731
95.968
95.637
95.737
96.212
96.271
96.075
95.846
95.842
95.865
96.619
96.942
96.148
95.817
95.747
95.919
97.299
96.941
97.143
96.382
96.57
96.522
97.385
97.542
97.329
97.321
97.26
96.333
97.153
97.516
97.536
97.336
97.298
96.42
95.895
96.499
96.351
96.6
97.502
96.066
95.816
96.366
96.537
96.715
96.666
98.336
97.542
96.85
96.289
97.55
95.883
96.842
97.687
96.84
96.941
97.321
96.981
97.322
97.515
96.982
97.05
97.564
97.314
97.388
96.718
97.782
96.968
97.409
97.711
97.847
97.578
97.009
96.684
97.06
97.522
97.464
98.333
98.864
98.071
98.045
98.076
98.179
97.984
98.02
98.348
97.774
96.912
98.057
97.391
97.736
97.291
97.442
97.406
97.208
97.265
96.706
97.152
98.064
98.315
97.631
97.869
97.642
97.085
96.52
97.119
97.258
97.936
98.025
98.13
98.087
97.919
97.414
99.224
97.793
98.478
97.307
96.718
97.063
98.243
97.533
97.382
98.561
98.342
97.643
97.421
97.385
97.605
97.511
97.512
97.579
97.804
97.754
97.375
97.694
97.942
97.964
98.021
98.139
97.998
98.627
97.563
97.647
98.237
98.123
97.714
97.458
97.562
96.526
97.137
97.742
97.528
97.565
97.583
97.441
97.205
97.371
96.904
97.809
97.471
97.492
97.126
97.271
96.833
96.788
97.012
96.849
97.649
97.011
97.381
97.575
97.618
97.24
97.187
97.762
97.592
97.036
97.004
96.909
96.879
97.456
97.271
97.218
97.066
96.796
96.229
96.914
96.608
96.436
96.159
95.826
96.111
96.929
96.618
96.125
96.742
96.083
96.556
96.303
96.185
96.418
96.788
96.116
95.665
95.855
96.702
96.667
96.813
96.516
96.349
96.529
96.289
96.581
96.922
96.446
96.256
97.005
96.581
96.771
96.918
96.242
97.115
97.808
97.033
96.26
97.418
96.549
97.27
96.578
96.843
96.421
96.692
96.251
96.89
97.074
97.449
97.471
97.18
96.785
96.918
96.46
96.867
96.554
96.611
97
97.604
97.526
97.426
97.072
96.78
96.722
96.257
96.402
97.227
96.349
96.557
96.658
97.212
97.031
97.199
96.701
96.647
96.919
97.317
97.015
97.129
96.411
97.266
97.933
97.404
97.077
96.931
97.322
96.547
97.866
97.438
97.414
97.855
98.324
97.646
97.897
98.02
98.459
97.944
98.164
98.532
97.588
97.558
98.012
97.826
96.991
96.73
97.052
97.227
97.617
96.481
97.79
97.259
96.878
97.494
97.917
97.511
97.522
97.368
97.083
97.871
97.329
97.671
98.289
97.118
97.692
97.885
97.461
97.293
97.859
98.104
97.514
96.762
98.31
97.94
97.881
98.308
98.28
97.829
97.43
97.939
97.319
98.148
97.051
97.953
97.862
97.425
97.898
97.982
97.334
97.181
97.737
97.746
98.852
97.866
98.12
97.121
96.769
97.541
97.401
97.534
97.339
97.224
98.058
97.012
97.98
97.515
97.814
98.06
98.854
98.204
97.538
96.899
97.422
97.697
97.713
97.228
97.407
97.491
96.992
96.991
96.523
97.207
97.614
97.229
96.961
97.389
96.907
96.974
97.405
96.688
97.68
96.983
96.593
97.137
96.998
97.175
97.605
97.286
97.111
95.637
97.07
97.654
96.256
96.302
96.6
96.693
96.078
95.677
96.336
96.08
96.384
96.283
96.804
96.631
96.335
95.229
95.867
96.431
97.023
96.271
97.47
97.189
96.515
96.562
96.689
96.335
96.739
96.464
96.296
96.724
97.34
96.289
97.607
96.932
97.062
97.087
98.068
97.25
96.742
96.617
97.674
97.52
96.106
97.361
97.128
96.695
96.201
97.539
97.41
97.419
96.985
97.36
97.354
97.132
96.621
97.048
96.558
97.348
97.229
97.295
97.617
97.146
95.749
96.743
96.615
97.501
96.691
97.16
97.056
96.686
96.34
96.744
96.862
96.86
96.857
96.577
97.922
96.877
97.554
96.684
96.971
97.565
97.832
97.699
98.003
97.336
96.936
96.694
97.275
97.902
98.298
98.337
99.073
98.159
97.461
97.855
98.681
97.783
97.302
97.483
97.807
98.062
98.03
97.941
96.528
96.059
97.325
96.993
97.5
96.576
97.673
97.303
96.619
97.023
97.76
96.988
97.344
97.688
97.385
98.391
98.154
97.533
97.826
97.569
96.701
97.879
97.979
96.509
97.827
97.963
98.111
98.61
97.614
97.615
97.656
98.161
97.485
98.014
97.857
97.491
97.252
97.991
97.352
98.51
97.812
97.394
97.701
98.045
98.745
97.757
97.641
97.838
97.561
97.744
98.265
97.911
97.441
97.966
97.35
97.458
97.124
97.26
97.534
97.843
96.936
96.975
97.86
98.436
97.54
97.268
97.744
97.22
96.814
98.009
97.965
97.194
98.135
98.411
97.799
97.774
97.206
97.042
97.128
97.258
97.677
97.563
97.799
97.166
97.025
98.039
97.041
97.644
97.71
97.206
98.081
96.921
96.94
97.661
97.099
97.257
97.485
97.518
97.157
96.481
96.146
96.991
96.642
96.986
96.281
95.261
96.321
95.736
95.725
95.619
95.707
95.459
95.763
96.302
96.568
95.889
96.309
96.035
96.247
96.35
96.85
96.577
97.087
96.665
96.248
96.171
96.595
96.975
97.301
96.918
96.334
97.821
97.086
97.958
97.563
96.723
97.517
97.488
96.673
96.854
96.926
97.329
96.904
97.435
97.675
96.393
95.707
95.951
97.295
96.698
96.572
97.293
96.547
96.355
96.914
97.182
98.205
97.042
96.576
96.779
97.105
96.737
96.172
96.57
96.633
97.512
97.082
96.535
96.704
96.85
97.134
97.441
)
;

boundaryField
{
    bottom
    {
        type            calculated;
        value           nonuniform List<scalar> 
200
(
97.513
97.449
97.239
96.178
97.439
97.522
97.462
97.769
98.212
98.885
98.13
97.929
98.07
97.152
97.209
97.622
98.489
98.61
97.757
97.581
97.361
97.271
97.376
97.725
97.877
98.311
97.487
96.874
96.929
97.12
96.924
97.379
96.282
96.504
96.665
98.357
97.135
96.84
97.939
98.151
97.53
97.079
97.524
96.937
98.254
99.112
99.276
98.179
97.851
98.631
98.044
98.316
97.732
97.727
98.128
97.351
97.609
96.853
96.881
97.092
97.737
96.892
96.96
97.941
97.789
97.881
97.443
98.108
98.386
97.957
97.167
97.432
97.9
97.606
97.669
98.82
98.744
98.714
98.305
96.587
98.015
97.503
97.905
97.6
97.714
97.928
97.409
97.24
97.533
97.76
98.287
97.879
97.572
97.503
98.142
97.461
97.341
97.751
98.712
98.143
97.399
97.57
98.759
97.343
97.241
96.709
97.39
97.54
97.405
96.724
96.994
97.782
96.852
96.904
96.809
97.19
97.47
97.921
98.431
97.993
97.191
96.966
96.584
97.031
96.696
96.726
96.274
96.298
96.463
96.252
96.154
96.94
97.012
96.079
95.793
95.887
96.227
95.465
96.042
96.259
96.576
96.744
95.437
95.621
95.382
95.573
96.023
96.351
96.957
97.447
96.733
95.64
96.855
96.244
96.891
97.317
97.799
96.219
96.913
97.579
97.124
97.327
96.945
97.431
97.869
97.058
96.563
97.259
97.832
97.489
97.396
96.967
97.285
96.792
96.66
96.703
97.509
97.331
95.843
96.14
96.768
96.665
96.111
96.51
97.519
97.217
97.59
95.874
96.882
97.696
97.383
96.882
96.206
97.294
96.933
96.67
97.744
96.436
97.132
96.948
)
;
    }
    top
    {
        type            calculated;
        value           nonuniform List<scalar> 
200
(
97.922
96.877
97.554
96.684
96.971
97.565
97.832
97.699
98.003
97.336
96.936
96.694
97.275
97.902
98.298
98.337
99.073
98.159
97.461
97.855
98.681
97.783
97.302
97.483
97.807
98.062
98.03
97.941
96.528
96.059
97.325
96.993
97.5
96.576
97.673
97.303
96.619
97.023
97.76
96.988
97.344
97.688
97.385
98.391
98.154
97.533
97.826
97.569
96.701
97.879
97.979
96.509
97.827
97.963
98.111
98.61
97.614
97.615
97.656
98.161
97.485
98.014
97.857
97.491
97.252
97.991
97.352
98.51
97.812
97.394
97.701
98.045
98.745
97.757
97.641
97.838
97.561
97.744
98.265
97.911
97.441
97.966
97.35
97.458
97.124
97.26
97.534
97.843
96.936
96.975
97.86
98.436
97.54
97.268
97.744
97.22
96.814
98.009
97.965
97.194
98.135
98.411
97.799
97.774
97.206
97.042
97.128
97.258
97.677
97.563
97.799
97.166
97.025
98.039
97.041
97.644
97.71
97.206
98.081
96.921
96.94
97.661
97.099
97.257
97.485
97.518
97.157
96.481
96.146
96.991
96.642
96.986
96.281
95.261
96.321
95.736
95.725
95.619
95.707
95.459
95.763
96.302
96.568
95.889
96.309
96.035
96.247
96.35
96.85
96.577
97.087
96.665
96.248
96.171
96.595
96.975
97.301
96.918
96.334
97.821
97.086
97.958
97.563
96.723
97.517
97.488
96.673
96.854
96.926
97.329
96.904
97.435
97.675
96.393
95.707
95.951
97.295
96.698
96.572
97.293
96.547
96.355
96.914
97.182
98.205
97.042
96.576
96.779
97.105
96.737
96.172
96.57
96.633
97.512
97.082
96.535
96.704
96.85
97.134
97.441
)
;
    }
    inlet
    {
        type            calculated;
        value           nonuniform List<scalar> 5(97.513 96.547 97.564 96.919 97.922);
    }
    outlet
    {
        type            calculated;
        value           nonuniform List<scalar> 5(96.948 97.05 96.647 96.577 97.441);
    }
    back
    {
        type            symmetry;
    }
    front
    {
        type            symmetry;
    }
}


// ************************************************************************* //
