/*--------------------------------*- C++ -*----------------------------------*\
| =========                 |                                                 |
| \\      /  F ield         | OpenFOAM: The Open Source CFD Toolbox           |
|  \\    /   O peration     | Version:  v1706                                 |
|   \\  /    A nd           | Web:      www.OpenFOAM.com                      |
|    \\/     M anipulation  |                                                 |
\*---------------------------------------------------------------------------*/
FoamFile
{
    version     2.0;
    format      ascii;
    class       volScalarField;
    location    "0.55";
    object      Ma_mixture;
}
// * * * * * * * * * * * * * * * * * * * * * * * * * * * * * * * * * * * * * //

dimensions      [0 0 0 0 0 0 0];


internalField   nonuniform List<scalar> 
1000
(
0.004826321419
0.004020339083
0.002712551239
0.007082049378
0.005850364567
0.005656547707
0.005510197352
0.003284063376
0.002789196546
0.004506141651
0.001931199878
0.003412106081
0.003175567918
0.001500063794
0.002634049864
0.00393705484
0.00417493463
0.004792442945
0.00167729226
0.002286617699
0.003368892902
0.004622013074
0.003803002187
0.003307053163
0.00572008896
0.003710682076
0.004594026727
0.0057047493
0.003087265025
0.002574374519
0.001153335661
0.001779761056
0.002227877411
0.006311984907
0.002850314288
0.002763194
0.001945450856
0.00675415661
0.004099747254
0.001797758018
0.00185608442
0.002380917371
0.004558796977
0.001727899317
0.005575119263
0.005360743248
0.006680778238
0.003438465293
0.002504252414
0.003098545753
0.00388421155
0.001087781511
0.003373626182
0.002947783194
0.00406544405
0.005749896349
0.005303956472
0.001023894151
0.00358620384
0.00374873699
0.002872478711
0.004347146982
0.002100148625
0.006639565816
0.00581932097
0.004483971182
0.00227252676
0.002630223657
0.003757185054
0.005031942678
0.004426177057
0.003441467021
0.003301062931
0.004593824105
0.003417753767
0.003628473246
0.002165081391
0.003438139773
0.00388462324
0.002834254069
0.002337440288
0.003972668806
0.004084649395
0.003422214958
0.002527231468
0.004214009904
0.004310327058
0.004491608887
0.004959782125
0.005097570082
0.002265585235
0.003302268474
0.002783486411
0.006013215513
0.003650509133
0.006025112824
0.004853846808
0.005420797763
0.003021237007
0.005898999793
0.004907219793
0.004158681826
0.0006580460029
0.004595302853
0.004973484263
0.006935844868
0.00463879545
0.002437920058
0.003824514992
0.006179188775
0.009348496827
0.006169460207
0.002584590892
0.004654962279
0.003845689282
0.00586344916
0.00416941716
0.004054027545
0.004715164273
0.003020721874
0.004659384606
0.006350503289
0.004199535721
0.002862378591
0.005072729132
0.003987588633
0.003566758219
0.003206489191
0.004746567702
0.002843321075
0.003794454628
0.003094272257
0.005222593047
0.004793051983
0.003467272474
0.005816910349
0.004068677164
0.002961915614
0.004479557956
0.002442660257
0.004637067494
0.004278609302
0.004796707982
0.004645118829
0.002464021242
0.002316100759
0.00300050118
0.002527180962
0.002436250776
0.005928231607
0.001176916765
0.003695517004
0.008139678381
0.006079669591
0.005413741747
0.002819364252
0.0008088304355
0.001732174624
0.005015476662
0.004229493692
0.007067976554
0.004886587051
0.0042642585
0.002960217636
0.003950308353
0.002867747
0.003267567715
0.004495251333
0.006143244545
0.004674310843
0.003908328995
0.004970260316
0.003812446628
0.0003284321302
0.005493747596
0.004464138788
0.007094193271
0.005013093796
0.001579281738
0.003152979155
0.002232727779
0.004733814147
0.003826865695
0.004727097034
0.003478461978
0.005804621208
0.004753789299
0.005824493484
0.003805677865
0.004444624242
0.004634000363
0.003274959798
0.008454672674
0.006304620321
0.003398428713
0.005325137497
0.00438577765
0.003627806595
0.0008904386461
0.001924085562
0.004830061793
0.004056021293
0.002982665807
0.003143093886
0.00705229469
0.002306016891
0.002477620531
0.006905900675
0.006683644235
0.002123504571
0.00770805975
0.006676955027
0.003835567137
0.003150483471
0.002394095286
0.004818192616
0.001889375691
0.003434687217
0.005461383824
0.001636987338
0.005274844814
0.003489851158
0.003138142904
0.005392944169
0.001261592968
0.003839153622
0.004723966513
0.00326262374
0.002017202858
0.002966923354
0.005869073796
0.003971774563
0.004052963559
0.002101348143
0.002141080022
0.003778173437
0.005247441184
0.002794537309
0.005822889463
0.002360454069
0.00387013933
0.003928765458
0.003244408913
0.003287684609
0.005926489304
0.004542950213
0.006508867305
0.002101533852
0.002649587937
0.004291047908
0.003247758812
0.005615730481
0.006498504889
0.00339001587
0.000789571677
0.007037043248
0.003821353086
0.006075893852
0.004920887258
0.001501969853
0.004137939624
0.002049277662
0.002370171424
0.003960929496
0.005840444007
0.0009953509309
0.004046909098
0.004521559502
0.00220095542
0.003193972918
0.006753760812
0.0036208682
0.0008858136159
0.002034405395
0.005415811355
0.003426472388
0.002690574795
0.003394500951
0.003580110989
0.004370349048
0.003795301459
0.006246937933
0.00317802431
0.003937374154
0.004239517129
0.008761677161
0.006558051418
0.002736907726
0.002506320363
0.003203658123
0.003905025586
0.00383830102
0.003380839608
0.004741251542
0.007662320272
0.004230894459
0.00568501339
0.003701885422
0.004192106544
0.003367783744
0.004684043751
0.005492004869
0.001851661441
0.005792897342
0.002334914416
0.0008926675505
0.005773978857
0.001617295353
0.003573054628
0.003336618812
0.006549099259
0.004632117274
0.00327773526
0.002419973181
0.006402415221
0.002863933852
0.00344807306
0.001751450891
0.003546621092
0.00152427044
0.007407745163
0.003183462456
0.00537808518
0.005163722467
0.005132729764
0.008176320964
0.005664187808
0.005576097424
0.003932756904
0.005803367375
0.003224851981
0.002119999131
0.003277375491
0.0011517846
0.003569194742
0.003052979271
0.003350236409
0.003813892297
0.004627543868
0.003922693437
0.002530422039
0.003761402313
0.003096955755
0.003662185157
0.004456571021
0.003905014881
0.005056031128
0.003402306244
0.00478725765
0.002179541808
0.003421056641
0.003616338193
0.001909334967
0.005147170686
0.00385367813
0.002405808573
0.002301662838
0.002805207492
0.004602902946
0.002160718864
0.008256081472
0.003553608311
0.005436835952
0.004999100875
0.00596425253
0.002301702293
0.001964684302
0.003439930692
0.004619795808
0.0089960919
0.005247411503
0.006081779013
0.004573470096
0.004954847045
0.002742230145
0.001727026815
0.003916400464
0.002789380519
0.004321862829
0.0012016241
0.005940964095
0.006862391774
0.002704066766
0.003809194581
0.004466134715
0.002872122523
0.00461468349
0.004469627532
0.005422332484
0.005265559894
0.001629751084
0.006460862397
0.002719992342
0.004035335363
0.005561861229
0.004951148922
0.006972810231
0.003090831652
0.003067879987
0.003594511662
0.004081662688
0.003657174036
0.007348554387
0.002972037422
0.003843012928
0.00355831858
0.004075248871
0.008449689591
0.001975003488
0.005401617814
0.00444227913
0.004187612242
0.001227153437
0.001807019026
0.003887146118
0.003005010145
0.00378384733
0.002960212726
0.00604333722
0.004521750351
0.00433047535
0.002147678653
0.004596948996
0.003124847776
0.004647000591
0.003530471696
0.006305993742
0.001550293205
0.002643751928
0.003003361622
0.005484529515
0.00317138299
0.003961708689
0.004947943067
0.002026466832
0.005368162882
0.002416898639
0.002188262147
0.004244696188
0.004532810955
0.004163532775
0.003757344871
0.002389289272
0.002993592829
0.001964368152
0.003431648627
0.004490542238
0.004403353868
0.004847229796
0.006867779792
0.005420513329
0.003607291234
0.003599274288
0.001200393941
0.002144343382
0.006189425611
0.004456303045
0.002228237934
0.003523505985
0.004751367342
0.003995741096
0.00230704942
0.002690334309
0.0005786882517
0.003524360224
0.002343211042
0.003138205015
0.006195519888
0.00215589372
0.003523692602
0.004705958352
0.004823131982
0.005164577045
0.003707270868
0.003537327281
0.004785205168
0.005013559844
0.002519412592
0.005490650442
0.002975663244
0.003124518648
0.007576003718
0.008185549367
0.002865709258
0.005206146515
0.003455271645
0.002752566494
0.004411641715
0.003020479355
0.003651756638
0.006748446385
0.004336757191
0.001632214703
0.003352963257
0.006054335395
0.001700427137
0.002159918296
0.002184570761
0.005968926221
0.005659783734
0.003426280236
0.002542795693
0.00510412626
0.00133153272
0.00277109615
0.004391956606
0.0024424318
0.002971890339
0.005344680597
0.002182485957
0.004793751012
0.001908730146
0.001264515951
0.00405110927
0.004988468957
0.006610143721
0.004421186506
0.005593719016
0.003537010156
0.004681726827
0.004943885813
0.006549234144
0.002489061866
0.007288611229
0.003409475517
0.0007551540418
0.001319903512
0.006104215818
0.007055066268
0.004609102813
0.006825342521
0.002682254264
0.004399231942
0.002644195437
0.003340989132
0.005048659171
0.002220481668
0.006042425339
0.003555694347
0.006404177582
0.003956068184
0.002963902064
0.004249686662
0.003397930912
0.00183436415
0.00260919597
0.002222388243
0.003415433048
0.002662578971
0.005932288036
0.003995458654
0.003397875062
0.005624465118
0.003061348439
0.00597040398
0.003765543224
0.0007202992247
0.004304629548
0.003024885653
0.001850061283
0.003668788197
0.00252610792
0.00588667218
0.004734825172
0.007553459497
0.00496118017
0.002985857979
0.005470599807
0.005221540048
0.00734485482
0.005364351684
0.003210062962
0.00585554566
0.005157592759
0.005657232914
0.003313746836
0.002858382039
0.00600337636
0.004306731685
0.006562591434
0.004415778209
0.0005588468964
0.005446000722
0.003452263186
0.002815606559
0.004754119349
0.0009640240572
0.002316305468
0.004187009025
0.003883552316
0.003807711521
0.005107492606
0.002338643831
0.003839148685
0.006076178754
0.002441731208
0.005246818685
0.004248713941
0.004213556501
0.004235617714
0.003772634221
0.00384276357
0.002364950391
0.004274533404
0.004894800312
0.004345982617
0.008226049071
0.00573208266
0.003638332568
0.00165055547
0.001338180136
0.003677312399
0.00333141379
0.002896772421
0.002401846226
0.003950889647
0.001674149098
0.003528019136
0.003087839046
0.00142113354
0.006163844227
0.003304559766
0.002609061035
0.004031853099
0.00360172437
0.005025342296
0.006183401546
0.004680783905
0.002795924937
0.003193122897
0.004831364925
0.002236390394
0.005491693605
0.003062246011
0.004535086155
0.006476708363
0.004351803876
0.004499190462
0.005189796148
0.006379569089
0.004214207284
0.002632362798
0.003256317252
0.000975459997
0.004104124414
0.003886622073
0.007089180368
0.002598078868
0.004881213505
0.005664315549
0.005882431463
0.004426176876
0.002610848412
0.006035651024
0.002514874932
0.00491282131
0.002435476873
0.003706062141
0.005350367776
0.001220154025
0.003247986714
0.002049807339
0.005869670131
0.00327109925
0.004720009274
0.003465878348
0.004296411476
0.004233395991
0.002434972623
0.002600598793
0.001924293889
0.006211901973
0.004519972361
0.004489141473
0.004767082878
0.003593503069
0.003669823652
0.00133283292
0.005994736082
0.003915919885
0.002306522739
0.004868241953
0.003042524939
0.004216165144
0.005055161339
0.003240011201
0.00336739673
0.002013977881
0.004574753691
0.00514513035
0.001770207811
0.00348133028
0.005000489273
0.005394658907
0.003173615643
0.005052147353
0.005513862056
0.005892843672
0.00301167602
0.004741331566
0.002986926182
0.005830944402
0.003715488526
0.004484183469
0.005167406228
0.0055082673
0.001903641583
0.004713434705
0.002044341681
0.002661255249
0.002616411665
0.001746892562
0.003683389348
0.001230272417
0.002487342428
0.001753863194
0.005329627314
0.004186186294
0.002476120937
0.002042073019
0.005602905094
0.0005102216018
0.001700404706
0.003460044805
0.002115453063
0.004473042306
0.005670033035
0.002933303396
0.005077154226
0.004576088213
0.008767222155
0.004903617335
0.003614935804
0.004873801964
0.001078950272
0.005193903676
0.002251702893
0.004059389547
0.001503035441
0.002284082893
0.003296484817
0.002751653973
0.004326067214
0.003888951346
0.003160054801
0.001337128008
0.003178772291
0.003102381646
0.008041108942
0.003801059738
0.002034463611
0.004137307529
0.005243859863
0.005188698047
0.003894528636
0.004840017441
0.00621893641
0.003890299885
0.007264507109
0.005535164835
0.006221131117
0.005416767202
0.002011683936
0.003960998202
0.001922363225
0.005792672947
0.002349936236
0.00443965192
0.001720539582
0.003466028052
0.005389552623
0.002280293346
0.003600011263
0.005781781487
0.003099228712
0.004023582185
0.00180680191
0.004268420455
0.002747829936
0.003354110625
0.004964875173
0.003649277388
0.001592944373
0.002404682449
0.004270481785
0.001194035026
0.004026646839
0.002522700615
0.003808948351
0.002466638239
0.004106645915
0.001687421406
0.002936797625
0.00377977689
0.001325691606
0.004336491476
0.004234242168
0.0009851078793
0.002944288864
0.002952976473
0.003623529337
0.002361051478
0.003596467338
0.001971101806
0.002342667147
0.002087669226
0.002992416584
0.004139211485
0.002290757031
0.003621584843
0.004679367277
0.0007467094687
0.003092520256
0.002529732401
0.003400280469
0.005397425274
0.005318643029
0.003950051497
0.002793648812
0.003860988653
0.003859098051
0.0009483826509
0.00132894359
0.003474855071
0.004709949155
0.0003506356219
0.003889206113
0.001650603357
0.003221049086
0.005149414381
0.004254234526
0.001574341473
0.004231523341
0.002536994603
0.003359029374
0.003214142702
0.002498463464
0.002599605455
0.004182861873
0.004130111049
0.006551183372
0.002813194092
0.005661080059
0.003578370411
0.002698409858
0.004740745642
0.003314533245
0.004637928465
0.004282101919
0.0006602014797
0.001820401905
0.001259158554
0.003056872561
0.00398945894
0.004642308415
0.004266571851
0.002662224555
0.0006999857321
0.002852611903
0.003318081377
0.003377021395
0.003622891594
0.004180730526
0.005355549305
0.003420392079
0.002719102127
0.003440596889
0.00615654706
0.003016549985
0.002875221406
0.004271481884
0.003728437528
0.002935277142
0.002460073304
0.002765092017
0.00278437548
0.002955995346
0.003111316675
0.001779593859
0.006805532839
0.004158442201
0.004226242941
0.004056851757
0.006872696248
0.004476517967
0.001880836329
0.003626718622
0.002121248292
0.003897891995
0.00477956249
0.00559162124
0.003064371698
0.002350645534
0.002849343341
0.003582607702
0.003460223032
0.002925207417
0.007510877344
0.005389863375
0.003089462354
0.003307962218
0.001750935193
0.005678498367
0.002585745886
0.003918020518
0.004883293769
0.0040792473
0.002217102308
0.005260571218
0.002007386649
0.002273060564
0.004861875792
0.003215415837
0.001544271153
0.005296213662
0.003084509751
0.001746481473
0.002775078287
0.002511816925
0.003084366045
0.002489342554
0.003486561669
0.001788552833
0.002422239323
0.006543239052
0.003091477985
0.00118166475
0.002590461752
0.003761887109
0.005267562492
0.004436367765
0.002506995318
0.00406692887
0.004067432875
0.00491751201
0.001587926501
0.002912307134
0.00341397361
0.007452887829
0.004956251862
0.00404070234
0.00572890615
0.0008129267264
0.003280178655
0.002056372491
0.004156313922
0.002203108654
0.001929757142
0.005463406044
0.001423170492
0.001786424535
0.003578522664
0.001560931867
0.003458251007
0.004077334633
0.00405536386
0.003036492155
0.005365750614
0.00631947676
0.00556756938
0.002668331334
0.001470126126
0.002688374568
0.003735149874
0.002545375546
0.004935307692
0.003337168714
0.001228785086
0.004041653356
0.00267896342
0.004602712409
0.00769421348
0.006291434013
0.00143858298
0.006675813401
0.004835157712
0.004577495509
0.00338548418
0.002208826821
0.004616324854
0.002274261115
0.002357050946
0.00416569208
0.005435804901
0.00408948891
0.002608862263
0.00442747466
0.005706017375
0.005123136768
0.00603884776
0.006381307333
0.002752038643
0.004114840387
0.001637352322
0.001362570831
0.004369225683
0.003776703182
0.003601361155
0.004463896828
0.004908788035
)
;

boundaryField
{
    bottom
    {
        type            calculated;
        value           nonuniform List<scalar> 
200
(
0.004826321419
0.004020339083
0.002712551239
0.007082049378
0.005850364567
0.005656547707
0.005510197352
0.003284063376
0.002789196546
0.004506141651
0.001931199878
0.003412106081
0.003175567918
0.001500063794
0.002634049864
0.00393705484
0.00417493463
0.004792442945
0.00167729226
0.002286617699
0.003368892902
0.004622013074
0.003803002187
0.003307053163
0.00572008896
0.003710682076
0.004594026727
0.0057047493
0.003087265025
0.002574374519
0.001153335661
0.001779761056
0.002227877411
0.006311984907
0.002850314288
0.002763194
0.001945450856
0.00675415661
0.004099747254
0.001797758018
0.00185608442
0.002380917371
0.004558796977
0.001727899317
0.005575119263
0.005360743248
0.006680778238
0.003438465293
0.002504252414
0.003098545753
0.00388421155
0.001087781511
0.003373626182
0.002947783194
0.00406544405
0.005749896349
0.005303956472
0.001023894151
0.00358620384
0.00374873699
0.002872478711
0.004347146982
0.002100148625
0.006639565816
0.00581932097
0.004483971182
0.00227252676
0.002630223657
0.003757185054
0.005031942678
0.004426177057
0.003441467021
0.003301062931
0.004593824105
0.003417753767
0.003628473246
0.002165081391
0.003438139773
0.00388462324
0.002834254069
0.002337440288
0.003972668806
0.004084649395
0.003422214958
0.002527231468
0.004214009904
0.004310327058
0.004491608887
0.004959782125
0.005097570082
0.002265585235
0.003302268474
0.002783486411
0.006013215513
0.003650509133
0.006025112824
0.004853846808
0.005420797763
0.003021237007
0.005898999793
0.004907219793
0.004158681826
0.0006580460029
0.004595302853
0.004973484263
0.006935844868
0.00463879545
0.002437920058
0.003824514992
0.006179188775
0.009348496827
0.006169460207
0.002584590892
0.004654962279
0.003845689282
0.00586344916
0.00416941716
0.004054027545
0.004715164273
0.003020721874
0.004659384606
0.006350503289
0.004199535721
0.002862378591
0.005072729132
0.003987588633
0.003566758219
0.003206489191
0.004746567702
0.002843321075
0.003794454628
0.003094272257
0.005222593047
0.004793051983
0.003467272474
0.005816910349
0.004068677164
0.002961915614
0.004479557956
0.002442660257
0.004637067494
0.004278609302
0.004796707982
0.004645118829
0.002464021242
0.002316100759
0.00300050118
0.002527180962
0.002436250776
0.005928231607
0.001176916765
0.003695517004
0.008139678381
0.006079669591
0.005413741747
0.002819364252
0.0008088304355
0.001732174624
0.005015476662
0.004229493692
0.007067976554
0.004886587051
0.0042642585
0.002960217636
0.003950308353
0.002867747
0.003267567715
0.004495251333
0.006143244545
0.004674310843
0.003908328995
0.004970260316
0.003812446628
0.0003284321302
0.005493747596
0.004464138788
0.007094193271
0.005013093796
0.001579281738
0.003152979155
0.002232727779
0.004733814147
0.003826865695
0.004727097034
0.003478461978
0.005804621208
0.004753789299
0.005824493484
0.003805677865
0.004444624242
0.004634000363
0.003274959798
0.008454672674
0.006304620321
0.003398428713
0.005325137497
0.00438577765
0.003627806595
0.0008904386461
0.001924085562
)
;
    }
    top
    {
        type            calculated;
        value           nonuniform List<scalar> 
200
(
0.003623529337
0.002361051478
0.003596467338
0.001971101806
0.002342667147
0.002087669226
0.002992416584
0.004139211485
0.002290757031
0.003621584843
0.004679367277
0.0007467094687
0.003092520256
0.002529732401
0.003400280469
0.005397425274
0.005318643029
0.003950051497
0.002793648812
0.003860988653
0.003859098051
0.0009483826509
0.00132894359
0.003474855071
0.004709949155
0.0003506356219
0.003889206113
0.001650603357
0.003221049086
0.005149414381
0.004254234526
0.001574341473
0.004231523341
0.002536994603
0.003359029374
0.003214142702
0.002498463464
0.002599605455
0.004182861873
0.004130111049
0.006551183372
0.002813194092
0.005661080059
0.003578370411
0.002698409858
0.004740745642
0.003314533245
0.004637928465
0.004282101919
0.0006602014797
0.001820401905
0.001259158554
0.003056872561
0.00398945894
0.004642308415
0.004266571851
0.002662224555
0.0006999857321
0.002852611903
0.003318081377
0.003377021395
0.003622891594
0.004180730526
0.005355549305
0.003420392079
0.002719102127
0.003440596889
0.00615654706
0.003016549985
0.002875221406
0.004271481884
0.003728437528
0.002935277142
0.002460073304
0.002765092017
0.00278437548
0.002955995346
0.003111316675
0.001779593859
0.006805532839
0.004158442201
0.004226242941
0.004056851757
0.006872696248
0.004476517967
0.001880836329
0.003626718622
0.002121248292
0.003897891995
0.00477956249
0.00559162124
0.003064371698
0.002350645534
0.002849343341
0.003582607702
0.003460223032
0.002925207417
0.007510877344
0.005389863375
0.003089462354
0.003307962218
0.001750935193
0.005678498367
0.002585745886
0.003918020518
0.004883293769
0.0040792473
0.002217102308
0.005260571218
0.002007386649
0.002273060564
0.004861875792
0.003215415837
0.001544271153
0.005296213662
0.003084509751
0.001746481473
0.002775078287
0.002511816925
0.003084366045
0.002489342554
0.003486561669
0.001788552833
0.002422239323
0.006543239052
0.003091477985
0.00118166475
0.002590461752
0.003761887109
0.005267562492
0.004436367765
0.002506995318
0.00406692887
0.004067432875
0.00491751201
0.001587926501
0.002912307134
0.00341397361
0.007452887829
0.004956251862
0.00404070234
0.00572890615
0.0008129267264
0.003280178655
0.002056372491
0.004156313922
0.002203108654
0.001929757142
0.005463406044
0.001423170492
0.001786424535
0.003578522664
0.001560931867
0.003458251007
0.004077334633
0.00405536386
0.003036492155
0.005365750614
0.00631947676
0.00556756938
0.002668331334
0.001470126126
0.002688374568
0.003735149874
0.002545375546
0.004935307692
0.003337168714
0.001228785086
0.004041653356
0.00267896342
0.004602712409
0.00769421348
0.006291434013
0.00143858298
0.006675813401
0.004835157712
0.004577495509
0.00338548418
0.002208826821
0.004616324854
0.002274261115
0.002357050946
0.00416569208
0.005435804901
0.00408948891
0.002608862263
0.00442747466
0.005706017375
0.005123136768
0.00603884776
0.006381307333
0.002752038643
0.004114840387
0.001637352322
0.001362570831
0.004369225683
0.003776703182
0.003601361155
0.004463896828
0.004908788035
)
;
    }
    inlet
    {
        type            calculated;
        value           nonuniform List<scalar> 5(0.004826321419 0.004830061793 0.004081662688 0.003772634221 0.003623529337);
    }
    outlet
    {
        type            calculated;
        value           nonuniform List<scalar> 5(0.001924085562 0.003594511662 0.004235617714 0.002952976473 0.004908788035);
    }
    back
    {
        type            symmetry;
    }
    front
    {
        type            symmetry;
    }
}


// ************************************************************************* //
