/*--------------------------------*- C++ -*----------------------------------*\
| =========                 |                                                 |
| \\      /  F ield         | OpenFOAM: The Open Source CFD Toolbox           |
|  \\    /   O peration     | Version:  v1706                                 |
|   \\  /    A nd           | Web:      www.OpenFOAM.com                      |
|    \\/     M anipulation  |                                                 |
\*---------------------------------------------------------------------------*/
FoamFile
{
    version     2.0;
    format      ascii;
    class       volScalarField;
    location    "0.55";
    object      meanCollisionTime_Ar1;
}
// * * * * * * * * * * * * * * * * * * * * * * * * * * * * * * * * * * * * * //

dimensions      [0 0 1 0 0 0 0];


internalField   nonuniform List<scalar> 
1000
(
2.460938112e-05
2.476601115e-05
2.494645806e-05
2.54296013e-05
2.520032957e-05
2.527227874e-05
2.545486912e-05
2.558278982e-05
2.565300443e-05
2.551729048e-05
2.580922839e-05
2.595871737e-05
2.612244951e-05
2.645818899e-05
2.652180896e-05
2.662996646e-05
2.646645657e-05
2.65767955e-05
2.701499337e-05
2.716697672e-05
2.730458514e-05
2.743940448e-05
2.757287593e-05
2.774462119e-05
2.795848912e-05
2.790361795e-05
2.83656965e-05
2.862723328e-05
2.880042975e-05
2.903145754e-05
2.924777127e-05
2.911809419e-05
2.962033927e-05
2.983872686e-05
2.992320026e-05
2.952018765e-05
3.008363558e-05
3.042386691e-05
3.029770132e-05
3.054305947e-05
3.084524356e-05
3.114515392e-05
3.125093334e-05
3.179967213e-05
3.161083053e-05
3.128595072e-05
3.13929023e-05
3.205063995e-05
3.238658706e-05
3.238853643e-05
3.278170814e-05
3.305312979e-05
3.342254917e-05
3.330317725e-05
3.341519564e-05
3.398007206e-05
3.426270618e-05
3.484691887e-05
3.497644207e-05
3.507631454e-05
3.535111807e-05
3.571711903e-05
3.605960894e-05
3.5814526e-05
3.625080033e-05
3.626391606e-05
3.667738472e-05
3.664048294e-05
3.663136831e-05
3.726711328e-05
3.808355399e-05
3.810556093e-05
3.865558783e-05
3.888932625e-05
3.898109686e-05
3.906057457e-05
3.91706264e-05
3.940889244e-05
3.947755768e-05
4.070542202e-05
4.04217702e-05
4.06874451e-05
4.101768939e-05
4.154205346e-05
4.241114767e-05
4.219068949e-05
4.278993445e-05
4.345359177e-05
4.381915786e-05
4.413347066e-05
4.430405564e-05
4.516863551e-05
4.547475201e-05
4.578208264e-05
4.650268187e-05
4.726967036e-05
4.78183459e-05
4.769685213e-05
4.788458616e-05
4.85611594e-05
4.909325797e-05
4.938050963e-05
4.926537634e-05
5.048254069e-05
5.137752119e-05
5.216412619e-05
5.289525061e-05
5.334322947e-05
5.316298976e-05
5.412515282e-05
5.457029271e-05
5.449173188e-05
5.547220419e-05
5.640023089e-05
5.717899565e-05
5.703061574e-05
5.798752243e-05
5.773931883e-05
5.916753957e-05
6.015442939e-05
6.091633669e-05
6.16483396e-05
6.328158889e-05
6.294244405e-05
6.420178676e-05
6.600311603e-05
6.662973079e-05
6.705985539e-05
6.742405299e-05
6.900449232e-05
7.100057875e-05
7.082645904e-05
7.160257211e-05
7.366426263e-05
7.459791933e-05
7.493314368e-05
7.626105696e-05
7.829211187e-05
7.837956929e-05
7.943644768e-05
8.111498205e-05
8.093287496e-05
8.333491249e-05
8.589857834e-05
8.689513256e-05
8.80149994e-05
9.015697591e-05
9.145614515e-05
9.145715049e-05
9.527924451e-05
9.68465516e-05
0.0001004532177
0.0001009647072
0.0001049981552
0.0001027258243
0.0001064039801
0.0001078773193
0.0001117149962
0.0001103675108
0.0001144695156
0.0001182645906
0.0001212708364
0.000122959012
0.0001258698601
0.0001266124571
0.0001331038189
0.0001363785966
0.000139097971
0.0001409654332
0.000148921316
0.0001506068666
0.0001580841468
0.0001595372388
0.0001676118212
0.0001740355306
0.0001777048353
0.0001837971809
0.0001986731147
0.000208119544
0.0002172415404
0.0002247825328
0.000240544532
0.0002473585029
0.0002595544649
0.0002663796585
0.0002867592739
0.0003013796617
0.0003247062512
0.0003523036683
0.0003669365914
0.0003944286368
0.0004399514301
0.0004980168693
0.0005405281964
0.0006015836196
0.0006703106399
0.000757908181
0.0009108543039
0.001135370476
0.001595324872
2.482643103e-05
2.469080656e-05
2.484034961e-05
2.494734179e-05
2.515258349e-05
2.529102194e-05
2.538548699e-05
2.548731892e-05
2.546833684e-05
2.569148619e-05
2.591156834e-05
2.607193114e-05
2.619071483e-05
2.638091287e-05
2.65818183e-05
2.651425888e-05
2.671999419e-05
2.658932677e-05
2.697422025e-05
2.704856337e-05
2.745757992e-05
2.744390274e-05
2.770663226e-05
2.788743546e-05
2.807254983e-05
2.811426138e-05
2.817886619e-05
2.845585072e-05
2.885304701e-05
2.900944409e-05
2.917906683e-05
2.938660363e-05
2.927296208e-05
2.954299375e-05
2.952673052e-05
2.976473668e-05
3.010270028e-05
3.014043492e-05
2.997997293e-05
3.045425422e-05
3.067176381e-05
3.104678669e-05
3.13313127e-05
3.169498156e-05
3.172464071e-05
3.205305046e-05
3.202868316e-05
3.226482581e-05
3.242915542e-05
3.260684325e-05
3.291305373e-05
3.283273049e-05
3.339850152e-05
3.374390116e-05
3.371503073e-05
3.391743739e-05
3.421727445e-05
3.488296826e-05
3.472588955e-05
3.51363057e-05
3.526511176e-05
3.550721066e-05
3.570039246e-05
3.589107391e-05
3.609481322e-05
3.612445831e-05
3.682776509e-05
3.691973207e-05
3.680958945e-05
3.712907055e-05
3.782677774e-05
3.817648794e-05
3.84617188e-05
3.871617731e-05
3.872450633e-05
3.916498166e-05
3.959875878e-05
3.970832776e-05
3.990855648e-05
4.068298709e-05
4.057859037e-05
4.069748466e-05
4.124355475e-05
4.210146807e-05
4.199915061e-05
4.254127182e-05
4.242319531e-05
4.325398406e-05
4.39928996e-05
4.415949117e-05
4.479124818e-05
4.531937357e-05
4.560810197e-05
4.615287067e-05
4.68919593e-05
4.748571416e-05
4.727070727e-05
4.782177543e-05
4.79950717e-05
4.890266012e-05
4.934174091e-05
4.949934218e-05
5.014975962e-05
5.027785955e-05
5.174294313e-05
5.20089227e-05
5.270974579e-05
5.287930609e-05
5.28686e-05
5.342419237e-05
5.431711029e-05
5.478529773e-05
5.51405876e-05
5.599330042e-05
5.683842221e-05
5.721882877e-05
5.757635674e-05
5.859219103e-05
5.925513915e-05
6.034195184e-05
6.095031512e-05
6.189532229e-05
6.249698654e-05
6.385925051e-05
6.472619395e-05
6.562401919e-05
6.640965161e-05
6.701008647e-05
6.846044873e-05
6.918613587e-05
7.050860154e-05
7.104458153e-05
7.273793467e-05
7.298625334e-05
7.512207636e-05
7.48228981e-05
7.713848596e-05
7.801455441e-05
7.898504062e-05
7.964196433e-05
8.077778535e-05
8.180525429e-05
8.379022674e-05
8.479694336e-05
8.563406324e-05
8.873474193e-05
9.03416519e-05
9.259471866e-05
9.421099491e-05
9.560138766e-05
9.773795512e-05
0.0001005647466
0.0001031239506
0.0001032781673
0.0001046838615
0.0001045530469
0.0001071807825
0.0001093434041
0.0001120538245
0.0001158732764
0.0001182912321
0.0001199845625
0.000122990112
0.0001260958004
0.0001278139574
0.0001315326928
0.0001353720072
0.0001416097724
0.0001458376044
0.0001471378503
0.0001501307019
0.0001579035567
0.0001601958746
0.0001705889524
0.0001745101932
0.0001824820132
0.0001897712002
0.0001960238024
0.0002080570287
0.0002166635109
0.0002219644315
0.0002382734327
0.000250839243
0.0002666013895
0.000268514976
0.0002860198793
0.000304095088
0.0003342940358
0.0003451922403
0.0003658986986
0.0004012971679
0.0004347449221
0.0004897048768
0.00052845095
0.0005720382576
0.0006613063737
0.0007876434437
0.0009188758781
0.001192779158
0.001657559239
2.459159488e-05
2.48068762e-05
2.490557534e-05
2.527424494e-05
2.512954229e-05
2.54609663e-05
2.552689659e-05
2.550861103e-05
2.563161192e-05
2.581381416e-05
2.610091978e-05
2.629647657e-05
2.632842764e-05
2.63831651e-05
2.651426811e-05
2.636486472e-05
2.640285344e-05
2.684897284e-05
2.696843213e-05
2.711014887e-05
2.723031638e-05
2.745136481e-05
2.750027842e-05
2.767686978e-05
2.80026332e-05
2.834487931e-05
2.823248745e-05
2.848636038e-05
2.865677388e-05
2.883731333e-05
2.898159177e-05
2.917241238e-05
2.941789224e-05
2.958491491e-05
2.982979073e-05
2.98345583e-05
2.983850756e-05
2.987888055e-05
3.032403314e-05
3.057758006e-05
3.064110778e-05
3.110982156e-05
3.145957936e-05
3.15590892e-05
3.168857163e-05
3.174455371e-05
3.206631383e-05
3.199642685e-05
3.245082936e-05
3.245210459e-05
3.276137204e-05
3.24026854e-05
3.329840891e-05
3.319323468e-05
3.385147314e-05
3.409465095e-05
3.451229258e-05
3.424676299e-05
3.476993854e-05
3.491735375e-05
3.503670608e-05
3.509648284e-05
3.570227016e-05
3.628173952e-05
3.63590819e-05
3.632994377e-05
3.676663954e-05
3.686564089e-05
3.728918407e-05
3.743672611e-05
3.771416493e-05
3.825131536e-05
3.831190408e-05
3.868060832e-05
3.885818451e-05
3.924634173e-05
3.943339854e-05
4.006366073e-05
3.974463154e-05
4.044058644e-05
4.093068048e-05
4.113258846e-05
4.137502612e-05
4.173176617e-05
4.220927215e-05
4.239670005e-05
4.315704811e-05
4.352450295e-05
4.3786738e-05
4.428214487e-05
4.469882415e-05
4.513997762e-05
4.596142491e-05
4.600375318e-05
4.641883915e-05
4.760250824e-05
4.730865914e-05
4.804111701e-05
4.839501123e-05
4.911840008e-05
4.909654147e-05
4.989306469e-05
4.995885303e-05
5.08080669e-05
5.169071576e-05
5.126737254e-05
5.22201941e-05
5.180313322e-05
5.274707064e-05
5.320366149e-05
5.371373242e-05
5.461029122e-05
5.499848829e-05
5.580348696e-05
5.615765206e-05
5.709125524e-05
5.812225074e-05
5.907232866e-05
6.004771784e-05
6.104381857e-05
6.147600004e-05
6.17382651e-05
6.286648334e-05
6.32835577e-05
6.403481284e-05
6.485352363e-05
6.590922568e-05
6.719424752e-05
6.872109058e-05
7.041584431e-05
7.038366983e-05
7.177601657e-05
7.21927091e-05
7.279477355e-05
7.394869997e-05
7.434437598e-05
7.624093826e-05
7.720244395e-05
7.868589041e-05
8.023060488e-05
8.107190921e-05
8.135193576e-05
8.306936119e-05
8.437011181e-05
8.664868872e-05
8.731466073e-05
8.925457761e-05
9.162067535e-05
9.280405171e-05
9.622804621e-05
9.649591874e-05
9.888701602e-05
0.0001016966722
0.0001042748724
0.0001056158383
0.0001071806061
0.0001093915978
0.0001101716219
0.0001131800193
0.0001128943951
0.0001162966931
0.0001177233612
0.0001261088476
0.0001251206996
0.0001271875491
0.0001298221341
0.0001352834521
0.0001400627746
0.000147488965
0.000150359428
0.0001537186371
0.0001567971824
0.0001637967193
0.0001680935361
0.0001715035316
0.0001797829806
0.0001883211623
0.000196936359
0.0002046563629
0.000213228131
0.0002286644268
0.0002371356616
0.0002542889344
0.0002586393762
0.0002695338749
0.000289079245
0.0003100348388
0.0003320431471
0.0003459207729
0.0003789542949
0.0004128756795
0.0004479947466
0.0004866393523
0.0005372613477
0.0006239185582
0.000683523566
0.0007663290914
0.0009477493849
0.001234621326
0.001907773404
2.475039515e-05
2.480688935e-05
2.501150085e-05
2.511184495e-05
2.54342895e-05
2.538806067e-05
2.536009309e-05
2.56324121e-05
2.583496885e-05
2.599209457e-05
2.594513014e-05
2.634554229e-05
2.616252362e-05
2.646315637e-05
2.645915704e-05
2.649503635e-05
2.654502245e-05
2.697492206e-05
2.705520675e-05
2.709398538e-05
2.721357535e-05
2.749587453e-05
2.756340421e-05
2.75144998e-05
2.78956204e-05
2.812922652e-05
2.822845614e-05
2.835640683e-05
2.877543267e-05
2.897437049e-05
2.913205542e-05
2.921893935e-05
2.920911382e-05
2.974783399e-05
2.952428134e-05
2.981736448e-05
3.028329785e-05
3.014969833e-05
3.027233753e-05
3.060452359e-05
3.067402331e-05
3.101473957e-05
3.134625292e-05
3.132260722e-05
3.149606168e-05
3.182751713e-05
3.186259807e-05
3.247818105e-05
3.255658179e-05
3.257434924e-05
3.27888786e-05
3.306993103e-05
3.323154915e-05
3.347438498e-05
3.37167006e-05
3.409498898e-05
3.386951996e-05
3.424992679e-05
3.444579036e-05
3.463944742e-05
3.497473533e-05
3.540068564e-05
3.577432385e-05
3.59207301e-05
3.627733374e-05
3.632799469e-05
3.708356446e-05
3.704341904e-05
3.720721396e-05
3.769092754e-05
3.785561527e-05
3.803942691e-05
3.864746921e-05
3.893131622e-05
3.920541197e-05
3.938578906e-05
3.910726863e-05
4.003798749e-05
4.012931177e-05
4.059577763e-05
4.117772001e-05
4.117284149e-05
4.132425681e-05
4.179013337e-05
4.227395976e-05
4.255505711e-05
4.240186001e-05
4.366167228e-05
4.347369272e-05
4.438727634e-05
4.456605953e-05
4.473277574e-05
4.494663938e-05
4.574772288e-05
4.661422387e-05
4.724008871e-05
4.768604278e-05
4.733703128e-05
4.814608916e-05
4.88525124e-05
4.916891075e-05
4.957801504e-05
4.995611547e-05
5.076667067e-05
5.146784188e-05
5.16766928e-05
5.149574306e-05
5.240467461e-05
5.258218411e-05
5.326511721e-05
5.390931722e-05
5.470058815e-05
5.529669116e-05
5.587724013e-05
5.59431771e-05
5.72555968e-05
5.85443653e-05
5.850311652e-05
6.004637716e-05
6.022584099e-05
6.126900973e-05
6.153840347e-05
6.273872039e-05
6.350878547e-05
6.351576386e-05
6.422230449e-05
6.588748962e-05
6.658957976e-05
6.85326209e-05
6.944364393e-05
7.043043232e-05
7.150862687e-05
7.184056776e-05
7.229623479e-05
7.293998611e-05
7.493306689e-05
7.649012614e-05
7.730075873e-05
7.874834472e-05
8.083338857e-05
8.052495527e-05
8.15869429e-05
8.28621002e-05
8.438093805e-05
8.443497849e-05
8.721107457e-05
8.952812395e-05
9.08073327e-05
9.372154383e-05
9.595854182e-05
9.741416747e-05
9.977123682e-05
0.000101033831
0.000103413142
0.000105390486
0.0001092680865
0.0001081612227
0.0001112420447
0.0001114284096
0.0001124682771
0.0001171115773
0.0001186520821
0.0001218752509
0.0001243237941
0.000126788575
0.0001324158171
0.0001378883549
0.0001372998894
0.0001450905624
0.0001500272821
0.0001557505462
0.0001533178271
0.0001608368354
0.0001662656324
0.0001723107747
0.0001780688646
0.000186331456
0.0001930530016
0.0002055831025
0.0002090816044
0.0002214806192
0.0002357227232
0.0002461285676
0.0002607829238
0.0002784202352
0.0002981075425
0.00031725925
0.0003363098923
0.0003527279813
0.0003792168896
0.0004178779241
0.0004478404339
0.0004843573111
0.0005286419168
0.0005916823275
0.0006715974388
0.0007938913531
0.0009451834777
0.0012323153
0.001850312367
2.452544783e-05
2.491014321e-05
2.491217603e-05
2.526445981e-05
2.530793984e-05
2.531322208e-05
2.537000331e-05
2.559860901e-05
2.561822465e-05
2.581968887e-05
2.60654255e-05
2.629700633e-05
2.626103309e-05
2.621975367e-05
2.635900572e-05
2.63834453e-05
2.637895392e-05
2.675710002e-05
2.713002228e-05
2.714338148e-05
2.709144277e-05
2.754526551e-05
2.779461609e-05
2.784191361e-05
2.792990928e-05
2.801939551e-05
2.8095043e-05
2.834608556e-05
2.893223253e-05
2.926195333e-05
2.908357078e-05
2.931624451e-05
2.920431332e-05
2.978197301e-05
2.962655849e-05
2.988114971e-05
3.032214732e-05
3.030083461e-05
3.044994904e-05
3.081516103e-05
3.092450486e-05
3.080832886e-05
3.123428449e-05
3.12396014e-05
3.153715457e-05
3.195358599e-05
3.203824445e-05
3.220866688e-05
3.269883423e-05
3.252819791e-05
3.271556945e-05
3.353213375e-05
3.327829119e-05
3.335571285e-05
3.354500101e-05
3.352388279e-05
3.41702443e-05
3.433266812e-05
3.453346759e-05
3.472807998e-05
3.514059042e-05
3.522853657e-05
3.569495065e-05
3.624114708e-05
3.653063514e-05
3.659187306e-05
3.702031531e-05
3.673766274e-05
3.704820321e-05
3.777899393e-05
3.802212343e-05
3.797442256e-05
3.812488754e-05
3.872315987e-05
3.934414895e-05
3.946820449e-05
3.968615044e-05
4.016771909e-05
3.980999538e-05
4.025512801e-05
4.069655179e-05
4.084692199e-05
4.176841047e-05
4.172708488e-05
4.258376909e-05
4.265750511e-05
4.288139254e-05
4.343567472e-05
4.401173411e-05
4.422212523e-05
4.409820526e-05
4.447691916e-05
4.546544657e-05
4.587556885e-05
4.634482876e-05
4.695904855e-05
4.736496247e-05
4.733523376e-05
4.783947517e-05
4.89101808e-05
4.880001908e-05
4.88153944e-05
4.949639342e-05
5.048317961e-05
5.11719577e-05
5.16499941e-05
5.20098837e-05
5.24858808e-05
5.284150549e-05
5.365072959e-05
5.351212924e-05
5.445303099e-05
5.582928787e-05
5.588101355e-05
5.589105608e-05
5.648007188e-05
5.773389013e-05
5.823465271e-05
5.962770685e-05
6.052128537e-05
6.162386789e-05
6.198281502e-05
6.266307515e-05
6.359440184e-05
6.334102017e-05
6.460740782e-05
6.555548974e-05
6.612949285e-05
6.834133859e-05
6.92825258e-05
6.904125794e-05
7.04792895e-05
7.178329982e-05
7.287478719e-05
7.252367632e-05
7.566737561e-05
7.752499855e-05
7.908983901e-05
7.888151838e-05
7.908041229e-05
8.092174298e-05
8.085273746e-05
8.323881444e-05
8.500265545e-05
8.592804833e-05
8.776830076e-05
8.96940774e-05
9.187137036e-05
9.229020864e-05
9.425062064e-05
9.646266191e-05
9.813935842e-05
0.0001020494752
0.0001046346919
0.0001071813927
0.0001070246478
0.0001090664117
0.0001120758868
0.0001132733056
0.0001142733673
0.0001174617258
0.0001165670216
0.0001200282446
0.0001246218212
0.0001281516731
0.0001307243949
0.000138162492
0.0001392965564
0.0001435121065
0.0001493535116
0.000152227274
0.0001594416731
0.000160437569
0.0001678629115
0.0001731567738
0.0001806842214
0.0001858362407
0.0001948749125
0.0002058604767
0.0002144857092
0.0002257914496
0.0002349902881
0.0002481978818
0.000258464476
0.000272474954
0.0002948506789
0.0003107241353
0.0003453242734
0.0003549089489
0.0003755436591
0.0004251430318
0.0004479322402
0.0004848546048
0.0005238655889
0.0005984675486
0.0006671129727
0.0007572541316
0.0009155094004
0.001200480498
0.001713320871
)
;

boundaryField
{
    bottom
    {
        type            calculated;
        value           nonuniform List<scalar> 
200
(
2.460938112e-05
2.476601115e-05
2.494645806e-05
2.54296013e-05
2.520032957e-05
2.527227874e-05
2.545486912e-05
2.558278982e-05
2.565300443e-05
2.551729048e-05
2.580922839e-05
2.595871737e-05
2.612244951e-05
2.645818899e-05
2.652180896e-05
2.662996646e-05
2.646645657e-05
2.65767955e-05
2.701499337e-05
2.716697672e-05
2.730458514e-05
2.743940448e-05
2.757287593e-05
2.774462119e-05
2.795848912e-05
2.790361795e-05
2.83656965e-05
2.862723328e-05
2.880042975e-05
2.903145754e-05
2.924777127e-05
2.911809419e-05
2.962033927e-05
2.983872686e-05
2.992320026e-05
2.952018765e-05
3.008363558e-05
3.042386691e-05
3.029770132e-05
3.054305947e-05
3.084524356e-05
3.114515392e-05
3.125093334e-05
3.179967213e-05
3.161083053e-05
3.128595072e-05
3.13929023e-05
3.205063995e-05
3.238658706e-05
3.238853643e-05
3.278170814e-05
3.305312979e-05
3.342254917e-05
3.330317725e-05
3.341519564e-05
3.398007206e-05
3.426270618e-05
3.484691887e-05
3.497644207e-05
3.507631454e-05
3.535111807e-05
3.571711903e-05
3.605960894e-05
3.5814526e-05
3.625080033e-05
3.626391606e-05
3.667738472e-05
3.664048294e-05
3.663136831e-05
3.726711328e-05
3.808355399e-05
3.810556093e-05
3.865558783e-05
3.888932625e-05
3.898109686e-05
3.906057457e-05
3.91706264e-05
3.940889244e-05
3.947755768e-05
4.070542202e-05
4.04217702e-05
4.06874451e-05
4.101768939e-05
4.154205346e-05
4.241114767e-05
4.219068949e-05
4.278993445e-05
4.345359177e-05
4.381915786e-05
4.413347066e-05
4.430405564e-05
4.516863551e-05
4.547475201e-05
4.578208264e-05
4.650268187e-05
4.726967036e-05
4.78183459e-05
4.769685213e-05
4.788458616e-05
4.85611594e-05
4.909325797e-05
4.938050963e-05
4.926537634e-05
5.048254069e-05
5.137752119e-05
5.216412619e-05
5.289525061e-05
5.334322947e-05
5.316298976e-05
5.412515282e-05
5.457029271e-05
5.449173188e-05
5.547220419e-05
5.640023089e-05
5.717899565e-05
5.703061574e-05
5.798752243e-05
5.773931883e-05
5.916753957e-05
6.015442939e-05
6.091633669e-05
6.16483396e-05
6.328158889e-05
6.294244405e-05
6.420178676e-05
6.600311603e-05
6.662973079e-05
6.705985539e-05
6.742405299e-05
6.900449232e-05
7.100057875e-05
7.082645904e-05
7.160257211e-05
7.366426263e-05
7.459791933e-05
7.493314368e-05
7.626105696e-05
7.829211187e-05
7.837956929e-05
7.943644768e-05
8.111498205e-05
8.093287496e-05
8.333491249e-05
8.589857834e-05
8.689513256e-05
8.80149994e-05
9.015697591e-05
9.145614515e-05
9.145715049e-05
9.527924451e-05
9.68465516e-05
0.0001004532177
0.0001009647072
0.0001049981552
0.0001027258243
0.0001064039801
0.0001078773193
0.0001117149962
0.0001103675108
0.0001144695156
0.0001182645906
0.0001212708364
0.000122959012
0.0001258698601
0.0001266124571
0.0001331038189
0.0001363785966
0.000139097971
0.0001409654332
0.000148921316
0.0001506068666
0.0001580841468
0.0001595372388
0.0001676118212
0.0001740355306
0.0001777048353
0.0001837971809
0.0001986731147
0.000208119544
0.0002172415404
0.0002247825328
0.000240544532
0.0002473585029
0.0002595544649
0.0002663796585
0.0002867592739
0.0003013796617
0.0003247062512
0.0003523036683
0.0003669365914
0.0003944286368
0.0004399514301
0.0004980168693
0.0005405281964
0.0006015836196
0.0006703106399
0.000757908181
0.0009108543039
0.001135370476
0.001595324872
)
;
    }
    top
    {
        type            calculated;
        value           nonuniform List<scalar> 
200
(
2.452544783e-05
2.491014321e-05
2.491217603e-05
2.526445981e-05
2.530793984e-05
2.531322208e-05
2.537000331e-05
2.559860901e-05
2.561822465e-05
2.581968887e-05
2.60654255e-05
2.629700633e-05
2.626103309e-05
2.621975367e-05
2.635900572e-05
2.63834453e-05
2.637895392e-05
2.675710002e-05
2.713002228e-05
2.714338148e-05
2.709144277e-05
2.754526551e-05
2.779461609e-05
2.784191361e-05
2.792990928e-05
2.801939551e-05
2.8095043e-05
2.834608556e-05
2.893223253e-05
2.926195333e-05
2.908357078e-05
2.931624451e-05
2.920431332e-05
2.978197301e-05
2.962655849e-05
2.988114971e-05
3.032214732e-05
3.030083461e-05
3.044994904e-05
3.081516103e-05
3.092450486e-05
3.080832886e-05
3.123428449e-05
3.12396014e-05
3.153715457e-05
3.195358599e-05
3.203824445e-05
3.220866688e-05
3.269883423e-05
3.252819791e-05
3.271556945e-05
3.353213375e-05
3.327829119e-05
3.335571285e-05
3.354500101e-05
3.352388279e-05
3.41702443e-05
3.433266812e-05
3.453346759e-05
3.472807998e-05
3.514059042e-05
3.522853657e-05
3.569495065e-05
3.624114708e-05
3.653063514e-05
3.659187306e-05
3.702031531e-05
3.673766274e-05
3.704820321e-05
3.777899393e-05
3.802212343e-05
3.797442256e-05
3.812488754e-05
3.872315987e-05
3.934414895e-05
3.946820449e-05
3.968615044e-05
4.016771909e-05
3.980999538e-05
4.025512801e-05
4.069655179e-05
4.084692199e-05
4.176841047e-05
4.172708488e-05
4.258376909e-05
4.265750511e-05
4.288139254e-05
4.343567472e-05
4.401173411e-05
4.422212523e-05
4.409820526e-05
4.447691916e-05
4.546544657e-05
4.587556885e-05
4.634482876e-05
4.695904855e-05
4.736496247e-05
4.733523376e-05
4.783947517e-05
4.89101808e-05
4.880001908e-05
4.88153944e-05
4.949639342e-05
5.048317961e-05
5.11719577e-05
5.16499941e-05
5.20098837e-05
5.24858808e-05
5.284150549e-05
5.365072959e-05
5.351212924e-05
5.445303099e-05
5.582928787e-05
5.588101355e-05
5.589105608e-05
5.648007188e-05
5.773389013e-05
5.823465271e-05
5.962770685e-05
6.052128537e-05
6.162386789e-05
6.198281502e-05
6.266307515e-05
6.359440184e-05
6.334102017e-05
6.460740782e-05
6.555548974e-05
6.612949285e-05
6.834133859e-05
6.92825258e-05
6.904125794e-05
7.04792895e-05
7.178329982e-05
7.287478719e-05
7.252367632e-05
7.566737561e-05
7.752499855e-05
7.908983901e-05
7.888151838e-05
7.908041229e-05
8.092174298e-05
8.085273746e-05
8.323881444e-05
8.500265545e-05
8.592804833e-05
8.776830076e-05
8.96940774e-05
9.187137036e-05
9.229020864e-05
9.425062064e-05
9.646266191e-05
9.813935842e-05
0.0001020494752
0.0001046346919
0.0001071813927
0.0001070246478
0.0001090664117
0.0001120758868
0.0001132733056
0.0001142733673
0.0001174617258
0.0001165670216
0.0001200282446
0.0001246218212
0.0001281516731
0.0001307243949
0.000138162492
0.0001392965564
0.0001435121065
0.0001493535116
0.000152227274
0.0001594416731
0.000160437569
0.0001678629115
0.0001731567738
0.0001806842214
0.0001858362407
0.0001948749125
0.0002058604767
0.0002144857092
0.0002257914496
0.0002349902881
0.0002481978818
0.000258464476
0.000272474954
0.0002948506789
0.0003107241353
0.0003453242734
0.0003549089489
0.0003755436591
0.0004251430318
0.0004479322402
0.0004848546048
0.0005238655889
0.0005984675486
0.0006671129727
0.0007572541316
0.0009155094004
0.001200480498
0.001713320871
)
;
    }
    inlet
    {
        type            calculated;
        value           nonuniform List<scalar> 5(2.460938112e-05 2.482643103e-05 2.459159488e-05 2.475039515e-05 2.452544783e-05);
    }
    outlet
    {
        type            calculated;
        value           nonuniform List<scalar> 5(0.001595324872 0.001657559239 0.001907773404 0.001850312367 0.001713320871);
    }
    back
    {
        type            symmetry;
    }
    front
    {
        type            symmetry;
    }
}


// ************************************************************************* //
