/*--------------------------------*- C++ -*----------------------------------*\
| =========                 |                                                 |
| \\      /  F ield         | OpenFOAM: The Open Source CFD Toolbox           |
|  \\    /   O peration     | Version:  v1706                                 |
|   \\  /    A nd           | Web:      www.OpenFOAM.com                      |
|    \\/     M anipulation  |                                                 |
\*---------------------------------------------------------------------------*/
FoamFile
{
    version     2.0;
    format      ascii;
    class       volScalarField;
    location    "0.55";
    object      meanCollisionTime_Ar2;
}
// * * * * * * * * * * * * * * * * * * * * * * * * * * * * * * * * * * * * * //

dimensions      [0 0 1 0 0 0 0];


internalField   nonuniform List<scalar> 
1000
(
0.001632862244
0.001177522904
0.0009069955802
0.0007274570149
0.000658981707
0.0005754569657
0.0005176215111
0.0004369029727
0.0004035377891
0.0003870324858
0.0003659256375
0.0003435662911
0.0003090710063
0.0003005048943
0.0002877735354
0.0002659784449
0.0002615094953
0.0002488547956
0.0002333447942
0.0002245800692
0.0002222048661
0.0002112236599
0.0002024516268
0.0001904970647
0.0001785624751
0.0001737917618
0.0001675024168
0.0001647766795
0.000157738947
0.0001502378545
0.0001469369188
0.0001460586137
0.0001421223892
0.0001358036744
0.0001325503788
0.0001291872356
0.0001272749335
0.0001235497369
0.0001196571342
0.0001141106413
0.0001133130284
0.000111727824
0.0001082181984
0.0001053199309
0.0001015242703
0.0001006040605
9.893740147e-05
9.72599462e-05
9.559479239e-05
9.2470966e-05
9.147232098e-05
8.849235246e-05
8.793656187e-05
8.825546103e-05
8.63012025e-05
8.521385636e-05
8.293216619e-05
8.135248336e-05
8.05375776e-05
7.912671682e-05
7.685550695e-05
7.682378704e-05
7.512289776e-05
7.405601881e-05
7.258351758e-05
7.234434041e-05
7.159200171e-05
7.065468151e-05
7.01411407e-05
6.868951146e-05
6.727604098e-05
6.670952415e-05
6.443308741e-05
6.429232533e-05
6.405121865e-05
6.195047375e-05
6.178088251e-05
6.109657405e-05
6.152812569e-05
6.115151454e-05
5.981683124e-05
5.989498927e-05
5.871499954e-05
5.80047273e-05
5.619687602e-05
5.629883117e-05
5.596414453e-05
5.51969681e-05
5.429772919e-05
5.357966066e-05
5.266215276e-05
5.181170177e-05
5.175898885e-05
5.150066139e-05
5.002969494e-05
4.985592949e-05
4.937184079e-05
4.911408228e-05
4.811782361e-05
4.794240562e-05
4.813065197e-05
4.747810726e-05
4.65399615e-05
4.678321806e-05
4.612889977e-05
4.595892467e-05
4.486399898e-05
4.444405155e-05
4.45882199e-05
4.456557514e-05
4.39687891e-05
4.347492964e-05
4.357776018e-05
4.293404383e-05
4.256825627e-05
4.230118886e-05
4.174883348e-05
4.143149981e-05
4.042611972e-05
4.025977399e-05
4.042151371e-05
4.027100928e-05
3.981089388e-05
3.970177819e-05
3.944055802e-05
3.870721766e-05
3.880382893e-05
3.856366487e-05
3.833504745e-05
3.800199497e-05
3.744123276e-05
3.706345076e-05
3.681891303e-05
3.691129692e-05
3.68382299e-05
3.668845954e-05
3.613623249e-05
3.602630788e-05
3.57437705e-05
3.540248607e-05
3.490315756e-05
3.487520035e-05
3.513418623e-05
3.466507143e-05
3.456671999e-05
3.424491517e-05
3.377566741e-05
3.340563468e-05
3.316996288e-05
3.253786219e-05
3.264222475e-05
3.264727134e-05
3.206055148e-05
3.191378683e-05
3.191342152e-05
3.139553554e-05
3.109753538e-05
3.143603734e-05
3.126543014e-05
3.073641834e-05
3.061571728e-05
3.034584614e-05
3.037414524e-05
3.003277303e-05
2.980121373e-05
2.974333115e-05
2.979926368e-05
2.943612309e-05
2.914165352e-05
2.890508689e-05
2.892850395e-05
2.881812611e-05
2.865890574e-05
2.856552531e-05
2.844584883e-05
2.82898592e-05
2.792018568e-05
2.763278621e-05
2.791720012e-05
2.769495097e-05
2.738580786e-05
2.719728981e-05
2.722351594e-05
2.694735592e-05
2.667731761e-05
2.654464638e-05
2.632111937e-05
2.662052555e-05
2.61640069e-05
2.585873937e-05
2.585033216e-05
2.582382717e-05
2.581173411e-05
2.541180361e-05
2.538758797e-05
2.537808501e-05
2.497627419e-05
2.514273146e-05
2.483958366e-05
2.474372125e-05
0.001675328912
0.001126462656
0.0009060823036
0.0007672882313
0.0006292041436
0.0005687148059
0.0004991167891
0.0004523308846
0.0004197238208
0.0003897970787
0.0003645156509
0.0003417090983
0.0003180584232
0.0002951118917
0.0002838327588
0.0002698123638
0.0002680012655
0.0002476868458
0.0002349916902
0.0002243587738
0.0002155551743
0.000205839618
0.0001974396188
0.0001899260015
0.000179384065
0.0001733662722
0.0001665214901
0.00016170182
0.0001520858677
0.0001504430178
0.0001478865714
0.0001422924065
0.0001377311152
0.0001361416427
0.0001331194782
0.0001286555673
0.0001267344223
0.0001223950253
0.0001199519235
0.0001171207293
0.0001136172651
0.0001110078636
0.0001087036606
0.0001054608445
0.000103445393
0.0001002893758
9.900793167e-05
9.736517031e-05
9.678315443e-05
9.312190727e-05
9.238101295e-05
9.191016463e-05
8.8518719e-05
8.805270224e-05
8.465698384e-05
8.493270951e-05
8.409637609e-05
8.0608016e-05
7.981693799e-05
7.946517187e-05
7.717565728e-05
7.593179312e-05
7.470157758e-05
7.406779293e-05
7.306315564e-05
7.359207763e-05
7.278120333e-05
7.050546499e-05
7.034251098e-05
6.826382192e-05
6.756342438e-05
6.674512169e-05
6.474541043e-05
6.435643042e-05
6.446048929e-05
6.283158278e-05
6.207268063e-05
6.160641285e-05
6.149223613e-05
6.099383823e-05
5.960089381e-05
5.803127077e-05
5.857948757e-05
5.768688771e-05
5.659114477e-05
5.641112208e-05
5.575225181e-05
5.496764511e-05
5.391331575e-05
5.336238136e-05
5.229466516e-05
5.167999307e-05
5.129489633e-05
5.076846725e-05
4.998292933e-05
4.956154475e-05
4.966988391e-05
4.91539845e-05
4.92086953e-05
4.810732617e-05
4.774342803e-05
4.728671109e-05
4.663234421e-05
4.644086709e-05
4.611917565e-05
4.544842773e-05
4.543479329e-05
4.538632381e-05
4.538898182e-05
4.457429915e-05
4.412288857e-05
4.416547507e-05
4.316615726e-05
4.309819274e-05
4.247665217e-05
4.202376755e-05
4.205753952e-05
4.151746879e-05
4.121461662e-05
4.085684715e-05
4.067603073e-05
4.020360533e-05
3.976407267e-05
3.949427559e-05
3.921831442e-05
3.896153688e-05
3.892066589e-05
3.884642349e-05
3.827467275e-05
3.785869914e-05
3.751042488e-05
3.692170972e-05
3.699479344e-05
3.664718367e-05
3.661316049e-05
3.638729375e-05
3.587258009e-05
3.577274129e-05
3.585050671e-05
3.51618777e-05
3.536623466e-05
3.529326848e-05
3.491109875e-05
3.454323531e-05
3.434833531e-05
3.391861952e-05
3.379256734e-05
3.347672389e-05
3.329317509e-05
3.278443756e-05
3.242360338e-05
3.244155908e-05
3.226672597e-05
3.229835081e-05
3.21326609e-05
3.160229479e-05
3.151300795e-05
3.123821045e-05
3.13384507e-05
3.100281248e-05
3.086109255e-05
3.038958981e-05
3.01149089e-05
3.003677879e-05
2.993507393e-05
2.973174541e-05
2.988784109e-05
2.932739076e-05
2.902949675e-05
2.900431786e-05
2.894563321e-05
2.868092548e-05
2.890729614e-05
2.878822411e-05
2.845451436e-05
2.829986657e-05
2.806321223e-05
2.764526076e-05
2.785457831e-05
2.77914493e-05
2.754021076e-05
2.725031714e-05
2.701439292e-05
2.686337255e-05
2.640037752e-05
2.643401626e-05
2.651000223e-05
2.644869375e-05
2.602270875e-05
2.637216015e-05
2.59452472e-05
2.562415952e-05
2.565336507e-05
2.55184617e-05
2.530981254e-05
2.525815126e-05
2.503316677e-05
2.489554637e-05
2.488167332e-05
2.47031008e-05
0.001574775316
0.001185150904
0.0009168272665
0.0007421724029
0.0006255028505
0.0005706608254
0.0004976064329
0.0004731317999
0.0004288696483
0.0003962519445
0.0003667321059
0.0003497109113
0.0003186534991
0.0002988868481
0.0002836585507
0.0002695903282
0.0002555091112
0.0002398765475
0.0002296830294
0.0002186560982
0.0002115985809
0.0002013754005
0.0001968689808
0.0001835213523
0.0001772553724
0.0001745742238
0.0001663115066
0.0001626149451
0.0001552699716
0.0001538849319
0.0001492111656
0.0001436944084
0.0001399908306
0.0001360143794
0.0001345661076
0.0001316970293
0.0001244887052
0.0001229599802
0.0001205520056
0.0001151776932
0.0001150548654
0.000111767131
0.0001100720636
0.0001061976694
0.000104460913
0.0001006686651
9.766421642e-05
9.78492158e-05
9.435985987e-05
9.443725878e-05
9.355521536e-05
9.03111377e-05
8.805838425e-05
8.659393188e-05
8.606553444e-05
8.64661577e-05
8.287172676e-05
8.093650949e-05
7.995025339e-05
7.93403612e-05
7.6445616e-05
7.629472563e-05
7.517753816e-05
7.361655688e-05
7.302021859e-05
7.277344407e-05
7.117237408e-05
7.104484384e-05
6.954673972e-05
6.851601293e-05
6.754559653e-05
6.652351478e-05
6.604469577e-05
6.425389371e-05
6.368539805e-05
6.263502014e-05
6.196732225e-05
6.066193282e-05
6.07104102e-05
6.045203332e-05
5.929687229e-05
5.805637817e-05
5.776462305e-05
5.756419773e-05
5.701027607e-05
5.656590448e-05
5.658386423e-05
5.509932753e-05
5.408783669e-05
5.351335705e-05
5.285114755e-05
5.221017303e-05
5.127658266e-05
5.154901897e-05
5.083880459e-05
4.992551558e-05
4.932714114e-05
4.900340724e-05
4.851181701e-05
4.829892725e-05
4.817303171e-05
4.76605402e-05
4.776207546e-05
4.681537365e-05
4.621628054e-05
4.583907996e-05
4.567404442e-05
4.56292924e-05
4.482210167e-05
4.443926766e-05
4.44624016e-05
4.382135914e-05
4.316784927e-05
4.281574882e-05
4.300854373e-05
4.246613176e-05
4.195187711e-05
4.142155718e-05
4.062889513e-05
4.036902771e-05
4.018097519e-05
4.02112089e-05
3.980369303e-05
4.00483378e-05
3.935651416e-05
3.921521211e-05
3.8929418e-05
3.863002987e-05
3.837237474e-05
3.77060975e-05
3.72320178e-05
3.702119619e-05
3.716444603e-05
3.66919901e-05
3.683476438e-05
3.641646389e-05
3.613269446e-05
3.594394578e-05
3.550656833e-05
3.50270496e-05
3.514716131e-05
3.533949501e-05
3.499118376e-05
3.436081792e-05
3.400040732e-05
3.380824747e-05
3.364504685e-05
3.341568231e-05
3.318513454e-05
3.287473875e-05
3.268967397e-05
3.221528901e-05
3.214755279e-05
3.203934376e-05
3.160274994e-05
3.166072352e-05
3.142850464e-05
3.127484068e-05
3.128758737e-05
3.100071477e-05
3.049075689e-05
3.065522259e-05
3.04354659e-05
3.009024242e-05
3.030106813e-05
2.990462429e-05
2.982143693e-05
2.95281963e-05
2.938505637e-05
2.914768484e-05
2.918507779e-05
2.88700395e-05
2.859716221e-05
2.833114351e-05
2.82318442e-05
2.811180968e-05
2.803436564e-05
2.782901763e-05
2.777803128e-05
2.751340403e-05
2.73531807e-05
2.722256229e-05
2.692424888e-05
2.668592867e-05
2.662073719e-05
2.645938828e-05
2.641265718e-05
2.636181248e-05
2.62686322e-05
2.619726474e-05
2.603822453e-05
2.566910235e-05
2.577466639e-05
2.560824633e-05
2.542711594e-05
2.518273175e-05
2.512525002e-05
2.49149067e-05
2.489939818e-05
2.473635215e-05
0.00157794543
0.001155103458
0.0008962095966
0.0007592198391
0.0006713294725
0.0005746128642
0.0005143622732
0.0004659346522
0.0004302561964
0.0003948621032
0.0003809988741
0.0003442681231
0.0003177918121
0.0002935822842
0.0002902898701
0.0002706216755
0.0002551932216
0.0002380157705
0.0002257227784
0.0002219694435
0.0002062666626
0.000198944435
0.000192451152
0.0001888820462
0.00018381547
0.0001755426264
0.0001659089373
0.0001621723863
0.0001582374246
0.0001547988125
0.0001482494551
0.0001445705137
0.0001415450927
0.0001378681716
0.0001330518278
0.0001319086976
0.0001255997185
0.00012353943
0.000119268333
0.0001163616136
0.0001150966481
0.0001114947315
0.0001092587587
0.0001055497264
0.0001064614827
0.000101702413
9.88372768e-05
9.753482659e-05
9.444235371e-05
9.375842914e-05
9.306094564e-05
9.124558684e-05
8.82882258e-05
8.615637554e-05
8.612881639e-05
8.657054438e-05
8.323974057e-05
8.168342593e-05
8.076338382e-05
7.886633338e-05
7.745313885e-05
7.637910367e-05
7.542907382e-05
7.39274852e-05
7.350439611e-05
7.15061435e-05
7.113113105e-05
6.960253798e-05
6.929559142e-05
6.836515255e-05
6.673276283e-05
6.608636684e-05
6.551014623e-05
6.48077002e-05
6.319584517e-05
6.253349798e-05
6.17856836e-05
6.101046368e-05
6.028786169e-05
6.073735648e-05
6.000218648e-05
5.899845915e-05
5.88700908e-05
5.767137446e-05
5.699437987e-05
5.664267191e-05
5.585762331e-05
5.519957615e-05
5.431922361e-05
5.344038442e-05
5.277967616e-05
5.23234604e-05
5.121259328e-05
5.092315774e-05
5.041719335e-05
5.039929102e-05
4.941023188e-05
4.955443639e-05
4.866096678e-05
4.847895299e-05
4.805958861e-05
4.747041375e-05
4.760995154e-05
4.687098882e-05
4.664097257e-05
4.597541018e-05
4.578251259e-05
4.53537037e-05
4.532240111e-05
4.460538665e-05
4.445042696e-05
4.397462119e-05
4.31118617e-05
4.340900351e-05
4.252905697e-05
4.237996643e-05
4.193623729e-05
4.154501548e-05
4.095305749e-05
4.076707141e-05
4.005012423e-05
4.01532024e-05
3.976645658e-05
4.036311062e-05
3.944081631e-05
3.877971038e-05
3.902010559e-05
3.877596141e-05
3.79347664e-05
3.763320874e-05
3.771494642e-05
3.76664063e-05
3.720163804e-05
3.71478665e-05
3.684804224e-05
3.647691746e-05
3.579417667e-05
3.569489367e-05
3.557603088e-05
3.573937885e-05
3.538408028e-05
3.491475458e-05
3.441974007e-05
3.452415999e-05
3.394541836e-05
3.3686352e-05
3.358805724e-05
3.340609755e-05
3.302958645e-05
3.287468656e-05
3.25100083e-05
3.240545611e-05
3.236971199e-05
3.192215212e-05
3.152523414e-05
3.159823142e-05
3.123777702e-05
3.120199539e-05
3.110825448e-05
3.103781213e-05
3.032865616e-05
3.056151443e-05
3.050019738e-05
3.04050012e-05
2.991074939e-05
2.964233559e-05
2.990730542e-05
2.947601949e-05
2.918907586e-05
2.918119012e-05
2.912855529e-05
2.876621666e-05
2.855109389e-05
2.838882131e-05
2.838389858e-05
2.807362187e-05
2.790626353e-05
2.779424839e-05
2.770597728e-05
2.753226198e-05
2.749036396e-05
2.702693899e-05
2.691321262e-05
2.675613136e-05
2.650653715e-05
2.645849613e-05
2.673050099e-05
2.63280065e-05
2.624190409e-05
2.587645773e-05
2.594220445e-05
2.56700423e-05
2.557599072e-05
2.562425374e-05
2.55843172e-05
2.534319773e-05
2.516474659e-05
2.501826586e-05
2.488138844e-05
2.473815397e-05
0.001618099295
0.00114577094
0.0008755266001
0.0007500615452
0.0006481750431
0.0005712363008
0.0005255678293
0.0004485738484
0.000422879693
0.0004064339881
0.0003782138106
0.0003435153528
0.0003273073384
0.0003033044291
0.0002751981371
0.0002681912323
0.0002504614298
0.0002423620189
0.0002306131579
0.0002200944319
0.0002087232459
0.0001975328646
0.0001929696419
0.0001880337611
0.000180653054
0.0001726127277
0.0001699431777
0.0001622941533
0.0001585420322
0.0001535393401
0.0001455693351
0.0001435732422
0.0001404922922
0.0001364658709
0.000131944121
0.0001298901701
0.0001263111226
0.0001231140663
0.0001173374862
0.000116285507
0.0001129126366
0.000112917702
0.0001089825518
0.0001044513816
0.0001020772152
0.0001009541179
9.870851821e-05
9.784299042e-05
9.663864619e-05
9.373457626e-05
9.171497472e-05
9.066830783e-05
8.763755889e-05
8.763490918e-05
8.560361838e-05
8.42906859e-05
8.330990546e-05
8.218923864e-05
8.102512379e-05
7.845895742e-05
7.850055042e-05
7.644801825e-05
7.487506603e-05
7.368990752e-05
7.280982028e-05
7.097292699e-05
7.065015768e-05
6.970849499e-05
6.971208334e-05
6.796195188e-05
6.671075623e-05
6.608952586e-05
6.440448936e-05
6.439693376e-05
6.297469856e-05
6.24009841e-05
6.226849781e-05
6.096414318e-05
6.099632404e-05
6.060029986e-05
6.011034102e-05
5.886529286e-05
5.795777028e-05
5.776902489e-05
5.674272359e-05
5.66183001e-05
5.577808238e-05
5.438504043e-05
5.468199537e-05
5.425911206e-05
5.341901541e-05
5.242376968e-05
5.192374946e-05
5.158089631e-05
5.07270816e-05
5.037405967e-05
5.029429928e-05
4.918721681e-05
4.877161705e-05
4.850844532e-05
4.7647966e-05
4.736983164e-05
4.729817909e-05
4.650934792e-05
4.639494774e-05
4.612647583e-05
4.575944389e-05
4.529934192e-05
4.475636845e-05
4.420357915e-05
4.412253657e-05
4.393165356e-05
4.320369081e-05
4.235700068e-05
4.307749372e-05
4.219561946e-05
4.159557951e-05
4.176080882e-05
4.049089931e-05
4.079521791e-05
4.020965096e-05
3.969034887e-05
3.980384185e-05
3.934721516e-05
3.930511548e-05
3.874939807e-05
3.857774925e-05
3.873449469e-05
3.832841985e-05
3.755666462e-05
3.783577771e-05
3.724252208e-05
3.723429328e-05
3.752192735e-05
3.69827291e-05
3.653607121e-05
3.608941513e-05
3.582096695e-05
3.585632401e-05
3.591374851e-05
3.533741663e-05
3.509950451e-05
3.455529035e-05
3.46156953e-05
3.424533343e-05
3.408974369e-05
3.376703141e-05
3.338100462e-05
3.310295748e-05
3.303493205e-05
3.252158421e-05
3.252881518e-05
3.230084533e-05
3.204726591e-05
3.164949083e-05
3.150119658e-05
3.125163044e-05
3.117342643e-05
3.129451704e-05
3.061361094e-05
3.064053204e-05
3.041286872e-05
3.030955433e-05
3.036556289e-05
2.985942565e-05
2.973648424e-05
2.969178589e-05
2.959402561e-05
2.936821226e-05
2.90101407e-05
2.902984125e-05
2.861053933e-05
2.851039252e-05
2.867625433e-05
2.872913079e-05
2.847937626e-05
2.792147616e-05
2.790238038e-05
2.775652934e-05
2.734613486e-05
2.741089366e-05
2.731382366e-05
2.699873446e-05
2.679984283e-05
2.637477978e-05
2.650300467e-05
2.651934632e-05
2.625748526e-05
2.610193099e-05
2.609581864e-05
2.604018682e-05
2.583496745e-05
2.567087532e-05
2.538772584e-05
2.538656135e-05
2.541065706e-05
2.5230859e-05
2.504253379e-05
2.485683074e-05
2.460962626e-05
)
;

boundaryField
{
    bottom
    {
        type            calculated;
        value           nonuniform List<scalar> 
200
(
0.001632862244
0.001177522904
0.0009069955802
0.0007274570149
0.000658981707
0.0005754569657
0.0005176215111
0.0004369029727
0.0004035377891
0.0003870324858
0.0003659256375
0.0003435662911
0.0003090710063
0.0003005048943
0.0002877735354
0.0002659784449
0.0002615094953
0.0002488547956
0.0002333447942
0.0002245800692
0.0002222048661
0.0002112236599
0.0002024516268
0.0001904970647
0.0001785624751
0.0001737917618
0.0001675024168
0.0001647766795
0.000157738947
0.0001502378545
0.0001469369188
0.0001460586137
0.0001421223892
0.0001358036744
0.0001325503788
0.0001291872356
0.0001272749335
0.0001235497369
0.0001196571342
0.0001141106413
0.0001133130284
0.000111727824
0.0001082181984
0.0001053199309
0.0001015242703
0.0001006040605
9.893740147e-05
9.72599462e-05
9.559479239e-05
9.2470966e-05
9.147232098e-05
8.849235246e-05
8.793656187e-05
8.825546103e-05
8.63012025e-05
8.521385636e-05
8.293216619e-05
8.135248336e-05
8.05375776e-05
7.912671682e-05
7.685550695e-05
7.682378704e-05
7.512289776e-05
7.405601881e-05
7.258351758e-05
7.234434041e-05
7.159200171e-05
7.065468151e-05
7.01411407e-05
6.868951146e-05
6.727604098e-05
6.670952415e-05
6.443308741e-05
6.429232533e-05
6.405121865e-05
6.195047375e-05
6.178088251e-05
6.109657405e-05
6.152812569e-05
6.115151454e-05
5.981683124e-05
5.989498927e-05
5.871499954e-05
5.80047273e-05
5.619687602e-05
5.629883117e-05
5.596414453e-05
5.51969681e-05
5.429772919e-05
5.357966066e-05
5.266215276e-05
5.181170177e-05
5.175898885e-05
5.150066139e-05
5.002969494e-05
4.985592949e-05
4.937184079e-05
4.911408228e-05
4.811782361e-05
4.794240562e-05
4.813065197e-05
4.747810726e-05
4.65399615e-05
4.678321806e-05
4.612889977e-05
4.595892467e-05
4.486399898e-05
4.444405155e-05
4.45882199e-05
4.456557514e-05
4.39687891e-05
4.347492964e-05
4.357776018e-05
4.293404383e-05
4.256825627e-05
4.230118886e-05
4.174883348e-05
4.143149981e-05
4.042611972e-05
4.025977399e-05
4.042151371e-05
4.027100928e-05
3.981089388e-05
3.970177819e-05
3.944055802e-05
3.870721766e-05
3.880382893e-05
3.856366487e-05
3.833504745e-05
3.800199497e-05
3.744123276e-05
3.706345076e-05
3.681891303e-05
3.691129692e-05
3.68382299e-05
3.668845954e-05
3.613623249e-05
3.602630788e-05
3.57437705e-05
3.540248607e-05
3.490315756e-05
3.487520035e-05
3.513418623e-05
3.466507143e-05
3.456671999e-05
3.424491517e-05
3.377566741e-05
3.340563468e-05
3.316996288e-05
3.253786219e-05
3.264222475e-05
3.264727134e-05
3.206055148e-05
3.191378683e-05
3.191342152e-05
3.139553554e-05
3.109753538e-05
3.143603734e-05
3.126543014e-05
3.073641834e-05
3.061571728e-05
3.034584614e-05
3.037414524e-05
3.003277303e-05
2.980121373e-05
2.974333115e-05
2.979926368e-05
2.943612309e-05
2.914165352e-05
2.890508689e-05
2.892850395e-05
2.881812611e-05
2.865890574e-05
2.856552531e-05
2.844584883e-05
2.82898592e-05
2.792018568e-05
2.763278621e-05
2.791720012e-05
2.769495097e-05
2.738580786e-05
2.719728981e-05
2.722351594e-05
2.694735592e-05
2.667731761e-05
2.654464638e-05
2.632111937e-05
2.662052555e-05
2.61640069e-05
2.585873937e-05
2.585033216e-05
2.582382717e-05
2.581173411e-05
2.541180361e-05
2.538758797e-05
2.537808501e-05
2.497627419e-05
2.514273146e-05
2.483958366e-05
2.474372125e-05
)
;
    }
    top
    {
        type            calculated;
        value           nonuniform List<scalar> 
200
(
0.001618099295
0.00114577094
0.0008755266001
0.0007500615452
0.0006481750431
0.0005712363008
0.0005255678293
0.0004485738484
0.000422879693
0.0004064339881
0.0003782138106
0.0003435153528
0.0003273073384
0.0003033044291
0.0002751981371
0.0002681912323
0.0002504614298
0.0002423620189
0.0002306131579
0.0002200944319
0.0002087232459
0.0001975328646
0.0001929696419
0.0001880337611
0.000180653054
0.0001726127277
0.0001699431777
0.0001622941533
0.0001585420322
0.0001535393401
0.0001455693351
0.0001435732422
0.0001404922922
0.0001364658709
0.000131944121
0.0001298901701
0.0001263111226
0.0001231140663
0.0001173374862
0.000116285507
0.0001129126366
0.000112917702
0.0001089825518
0.0001044513816
0.0001020772152
0.0001009541179
9.870851821e-05
9.784299042e-05
9.663864619e-05
9.373457626e-05
9.171497472e-05
9.066830783e-05
8.763755889e-05
8.763490918e-05
8.560361838e-05
8.42906859e-05
8.330990546e-05
8.218923864e-05
8.102512379e-05
7.845895742e-05
7.850055042e-05
7.644801825e-05
7.487506603e-05
7.368990752e-05
7.280982028e-05
7.097292699e-05
7.065015768e-05
6.970849499e-05
6.971208334e-05
6.796195188e-05
6.671075623e-05
6.608952586e-05
6.440448936e-05
6.439693376e-05
6.297469856e-05
6.24009841e-05
6.226849781e-05
6.096414318e-05
6.099632404e-05
6.060029986e-05
6.011034102e-05
5.886529286e-05
5.795777028e-05
5.776902489e-05
5.674272359e-05
5.66183001e-05
5.577808238e-05
5.438504043e-05
5.468199537e-05
5.425911206e-05
5.341901541e-05
5.242376968e-05
5.192374946e-05
5.158089631e-05
5.07270816e-05
5.037405967e-05
5.029429928e-05
4.918721681e-05
4.877161705e-05
4.850844532e-05
4.7647966e-05
4.736983164e-05
4.729817909e-05
4.650934792e-05
4.639494774e-05
4.612647583e-05
4.575944389e-05
4.529934192e-05
4.475636845e-05
4.420357915e-05
4.412253657e-05
4.393165356e-05
4.320369081e-05
4.235700068e-05
4.307749372e-05
4.219561946e-05
4.159557951e-05
4.176080882e-05
4.049089931e-05
4.079521791e-05
4.020965096e-05
3.969034887e-05
3.980384185e-05
3.934721516e-05
3.930511548e-05
3.874939807e-05
3.857774925e-05
3.873449469e-05
3.832841985e-05
3.755666462e-05
3.783577771e-05
3.724252208e-05
3.723429328e-05
3.752192735e-05
3.69827291e-05
3.653607121e-05
3.608941513e-05
3.582096695e-05
3.585632401e-05
3.591374851e-05
3.533741663e-05
3.509950451e-05
3.455529035e-05
3.46156953e-05
3.424533343e-05
3.408974369e-05
3.376703141e-05
3.338100462e-05
3.310295748e-05
3.303493205e-05
3.252158421e-05
3.252881518e-05
3.230084533e-05
3.204726591e-05
3.164949083e-05
3.150119658e-05
3.125163044e-05
3.117342643e-05
3.129451704e-05
3.061361094e-05
3.064053204e-05
3.041286872e-05
3.030955433e-05
3.036556289e-05
2.985942565e-05
2.973648424e-05
2.969178589e-05
2.959402561e-05
2.936821226e-05
2.90101407e-05
2.902984125e-05
2.861053933e-05
2.851039252e-05
2.867625433e-05
2.872913079e-05
2.847937626e-05
2.792147616e-05
2.790238038e-05
2.775652934e-05
2.734613486e-05
2.741089366e-05
2.731382366e-05
2.699873446e-05
2.679984283e-05
2.637477978e-05
2.650300467e-05
2.651934632e-05
2.625748526e-05
2.610193099e-05
2.609581864e-05
2.604018682e-05
2.583496745e-05
2.567087532e-05
2.538772584e-05
2.538656135e-05
2.541065706e-05
2.5230859e-05
2.504253379e-05
2.485683074e-05
2.460962626e-05
)
;
    }
    inlet
    {
        type            calculated;
        value           nonuniform List<scalar> 5(0.001632862244 0.001675328912 0.001574775316 0.00157794543 0.001618099295);
    }
    outlet
    {
        type            calculated;
        value           nonuniform List<scalar> 5(2.474372125e-05 2.47031008e-05 2.473635215e-05 2.473815397e-05 2.460962626e-05);
    }
    back
    {
        type            symmetry;
    }
    front
    {
        type            symmetry;
    }
}


// ************************************************************************* //
