/*--------------------------------*- C++ -*----------------------------------*\
| =========                 |                                                 |
| \\      /  F ield         | OpenFOAM: The Open Source CFD Toolbox           |
|  \\    /   O peration     | Version:  v1706                                 |
|   \\  /    A nd           | Web:      www.OpenFOAM.com                      |
|    \\/     M anipulation  |                                                 |
\*---------------------------------------------------------------------------*/
FoamFile
{
    version     2.0;
    format      ascii;
    class       volScalarField;
    location    "0.55";
    object      meanCollisionTime_mixture;
}
// * * * * * * * * * * * * * * * * * * * * * * * * * * * * * * * * * * * * * //

dimensions      [0 0 1 0 0 0 0];


internalField   nonuniform List<scalar> 
1000
(
2.423548363e-05
2.424923103e-05
2.427346138e-05
2.456657971e-05
2.426835722e-05
2.420556737e-05
2.425834249e-05
2.416485273e-05
2.411712826e-05
2.393600379e-05
2.410693948e-05
2.41336614e-05
2.408487403e-05
2.431416494e-05
2.428171612e-05
2.420419847e-05
2.403206266e-05
2.401048306e-05
2.421055894e-05
2.423328843e-05
2.431470435e-05
2.428240116e-05
2.426599841e-05
2.421602944e-05
2.417195317e-05
2.404189758e-05
2.425631623e-05
2.438846548e-05
2.435252842e-05
2.432896701e-05
2.439095089e-05
2.42767393e-05
2.451111324e-05
2.446292801e-05
2.441100592e-05
2.402833265e-05
2.433095927e-05
2.441140939e-05
2.417515197e-05
2.409326948e-05
2.424443661e-05
2.435533467e-05
2.424771498e-05
2.442401129e-05
2.410476622e-05
2.386377624e-05
2.383064957e-05
2.410587387e-05
2.419045467e-05
2.398614663e-05
2.413255235e-05
2.406367095e-05
2.42170982e-05
2.417852826e-05
2.408768334e-05
2.429203442e-05
2.424487223e-05
2.439561913e-05
2.438520254e-05
2.430252451e-05
2.421307192e-05
2.438112027e-05
2.436391899e-05
2.413936497e-05
2.417559453e-05
2.415465868e-05
2.425201901e-05
2.412757786e-05
2.406322087e-05
2.415884757e-05
2.431727156e-05
2.425144963e-05
2.41602909e-05
2.423122123e-05
2.423237592e-05
2.39553092e-05
2.397132848e-05
2.395586691e-05
2.404760092e-05
2.443760029e-05
2.41209158e-05
2.422828642e-05
2.414775144e-05
2.420533459e-05
2.416965764e-05
2.411647069e-05
2.424839403e-05
2.431253042e-05
2.424893365e-05
2.419938649e-05
2.406089032e-05
2.413061529e-05
2.420602888e-05
2.423553556e-05
2.409993316e-05
2.426305887e-05
2.429042532e-05
2.41969424e-05
2.399999692e-05
2.412439571e-05
2.430323812e-05
2.420471154e-05
2.393151821e-05
2.428080185e-05
2.43053683e-05
2.44319485e-05
2.427411426e-05
2.424394355e-05
2.424936409e-05
2.444064877e-05
2.434900189e-05
2.418109203e-05
2.440477573e-05
2.437656142e-05
2.440124147e-05
2.428628286e-05
2.427255611e-05
2.412161836e-05
2.401607478e-05
2.411765099e-05
2.429796101e-05
2.435854001e-05
2.443677143e-05
2.434495992e-05
2.443076652e-05
2.43981221e-05
2.452183787e-05
2.448307087e-05
2.443873965e-05
2.45056702e-05
2.451358805e-05
2.433044043e-05
2.4314575e-05
2.458889329e-05
2.465954097e-05
2.462816629e-05
2.451763509e-05
2.467214077e-05
2.454757906e-05
2.448759042e-05
2.440173541e-05
2.43716378e-05
2.471368831e-05
2.469726595e-05
2.472893657e-05
2.465162518e-05
2.45699127e-05
2.446752498e-05
2.434114449e-05
2.425435273e-05
2.441291915e-05
2.46386294e-05
2.433303119e-05
2.447368903e-05
2.434783613e-05
2.424156078e-05
2.413792014e-05
2.453179671e-05
2.436265836e-05
2.422863509e-05
2.431824233e-05
2.427051272e-05
2.435588411e-05
2.424623677e-05
2.412212018e-05
2.431025849e-05
2.445468864e-05
2.429407807e-05
2.414854719e-05
2.420541286e-05
2.426629654e-05
2.437372425e-05
2.429370029e-05
2.440531093e-05
2.444866819e-05
2.440355783e-05
2.423714287e-05
2.425771955e-05
2.461423976e-05
2.456252117e-05
2.441060722e-05
2.443300158e-05
2.452313518e-05
2.441075299e-05
2.424679977e-05
2.429351889e-05
2.420502969e-05
2.460111676e-05
2.43529266e-05
2.415403783e-05
2.425821498e-05
2.43896798e-05
2.453669836e-05
2.426746624e-05
2.435580867e-05
2.444794115e-05
2.417498456e-05
2.446149224e-05
2.43006234e-05
2.435511254e-05
2.445528049e-05
2.415452141e-05
2.417227442e-05
2.415745946e-05
2.418220309e-05
2.421088995e-05
2.415438605e-05
2.412509822e-05
2.400899618e-05
2.41009135e-05
2.418987554e-05
2.422163326e-05
2.419590211e-05
2.421460459e-05
2.430366767e-05
2.414025969e-05
2.429608562e-05
2.401032772e-05
2.419488978e-05
2.413662058e-05
2.435316742e-05
2.421417966e-05
2.429557532e-05
2.431557967e-05
2.427294569e-05
2.418974056e-05
2.409971673e-05
2.419656368e-05
2.425093359e-05
2.431830089e-05
2.436975858e-05
2.435594844e-05
2.414097011e-05
2.427387475e-05
2.416560606e-05
2.417141038e-05
2.432420188e-05
2.418356792e-05
2.398462782e-05
2.416846583e-05
2.415097159e-05
2.426062004e-05
2.432089184e-05
2.436991547e-05
2.427808348e-05
2.428907462e-05
2.419940898e-05
2.423353488e-05
2.428938974e-05
2.415002922e-05
2.426667654e-05
2.419073151e-05
2.424846054e-05
2.439422046e-05
2.411127586e-05
2.423730167e-05
2.43209568e-05
2.434604944e-05
2.419709649e-05
2.436260278e-05
2.420424777e-05
2.419284746e-05
2.415541879e-05
2.417541409e-05
2.415881282e-05
2.422996323e-05
2.445325342e-05
2.423043053e-05
2.416400812e-05
2.4048253e-05
2.424927164e-05
2.428522932e-05
2.412774595e-05
2.417307638e-05
2.419095943e-05
2.412588093e-05
2.417539294e-05
2.414509239e-05
2.420121049e-05
2.440468112e-05
2.414141665e-05
2.392053052e-05
2.420281234e-05
2.433798053e-05
2.410706106e-05
2.425142391e-05
2.409095125e-05
2.42059041e-05
2.422455516e-05
2.41629092e-05
2.412579217e-05
2.41450834e-05
2.414167817e-05
2.41744668e-05
2.419319638e-05
2.425007323e-05
2.421989484e-05
2.423889695e-05
2.429657284e-05
2.425026726e-05
2.426422207e-05
2.418342438e-05
2.416305541e-05
2.414120129e-05
2.438432159e-05
2.425332679e-05
2.440092756e-05
2.442301739e-05
2.442134497e-05
2.429901968e-05
2.434529203e-05
2.44523546e-05
2.421140299e-05
2.435281078e-05
2.430887486e-05
2.422834304e-05
2.430366379e-05
2.429883316e-05
2.430704109e-05
2.436124633e-05
2.439468738e-05
2.437152586e-05
2.430107188e-05
2.440150824e-05
2.442066135e-05
2.44464355e-05
2.453841311e-05
2.459030163e-05
2.454924692e-05
2.446838469e-05
2.448370119e-05
2.429445605e-05
2.452192937e-05
2.439654269e-05
2.461534545e-05
2.44809515e-05
2.448500008e-05
2.452537707e-05
2.46578071e-05
2.439195794e-05
2.459633684e-05
2.465519992e-05
2.464263533e-05
2.454397823e-05
2.451443925e-05
2.453827255e-05
2.459274715e-05
2.458688765e-05
2.45986658e-05
2.441158096e-05
2.434565768e-05
2.452757143e-05
2.457554624e-05
2.460283543e-05
2.458559422e-05
2.426683798e-05
2.435238712e-05
2.42960136e-05
2.448817044e-05
2.445812982e-05
2.447453313e-05
2.424718314e-05
2.419046206e-05
2.425750703e-05
2.425360243e-05
2.424893039e-05
2.448137317e-05
2.429479841e-05
2.420942812e-05
2.422748253e-05
2.426575149e-05
2.427118572e-05
2.448709356e-05
2.463030104e-05
2.446409337e-05
2.449905307e-05
2.444670608e-05
2.422710329e-05
2.456464861e-05
2.463056868e-05
2.449929833e-05
2.445174475e-05
2.438671949e-05
2.440263921e-05
2.403532991e-05
2.419555813e-05
2.438217109e-05
2.45078239e-05
2.419651223e-05
2.459687987e-05
2.436703794e-05
2.419519269e-05
2.437293527e-05
2.434005346e-05
2.423366663e-05
2.432419569e-05
2.42571047e-05
2.423320476e-05
2.436691995e-05
2.43305198e-05
2.420391464e-05
2.429231989e-05
2.424209545e-05
2.443743289e-05
2.415492774e-05
2.437089838e-05
2.427813593e-05
2.420087308e-05
2.418346121e-05
2.423235422e-05
2.436365812e-05
2.445523354e-05
2.431727919e-05
2.424101285e-05
2.424558531e-05
2.401428055e-05
2.392844641e-05
2.414492933e-05
2.413327801e-05
2.411848075e-05
2.412464129e-05
2.415664784e-05
2.412853718e-05
2.404883908e-05
2.418118777e-05
2.438482518e-05
2.413459905e-05
2.423937957e-05
2.419125992e-05
2.428537959e-05
2.426733807e-05
2.424801102e-05
2.430845487e-05
2.429888678e-05
2.441605536e-05
2.432367729e-05
2.40685833e-05
2.403706069e-05
2.422849908e-05
2.416208365e-05
2.41958531e-05
2.433517355e-05
2.44656764e-05
2.432842697e-05
2.431239308e-05
2.413325499e-05
2.413952812e-05
2.411107426e-05
2.414627595e-05
2.415174556e-05
2.42637182e-05
2.384591544e-05
2.416088549e-05
2.399434072e-05
2.429490231e-05
2.445208362e-05
2.436452081e-05
2.406372354e-05
2.42314454e-05
2.424597846e-05
2.402451189e-05
2.403790048e-05
2.420605277e-05
2.430317699e-05
2.427239553e-05
2.423161343e-05
2.424258418e-05
2.427063367e-05
2.4273425e-05
2.420848487e-05
2.420088406e-05
2.428580225e-05
2.424608679e-05
2.414460656e-05
2.413281439e-05
2.412756443e-05
2.409782219e-05
2.412784349e-05
2.401902455e-05
2.423051303e-05
2.421488436e-05
2.407447471e-05
2.410705564e-05
2.419262279e-05
2.425266426e-05
2.42332707e-05
2.448299607e-05
2.43159588e-05
2.419717533e-05
2.423057671e-05
2.42166908e-05
2.420888325e-05
2.423650807e-05
2.430914254e-05
2.42638693e-05
2.436784097e-05
2.414826116e-05
2.425802305e-05
2.422607896e-05
2.435192201e-05
2.431453864e-05
2.43750149e-05
2.441732495e-05
2.436470819e-05
2.440002068e-05
2.420029902e-05
2.43635503e-05
2.425978207e-05
2.423081468e-05
2.421365799e-05
2.432575264e-05
2.43118709e-05
2.418465868e-05
2.422661909e-05
2.43545969e-05
2.435173937e-05
2.436452511e-05
2.434789249e-05
2.423217329e-05
2.429857633e-05
2.429798437e-05
2.435029289e-05
2.437126162e-05
2.452633454e-05
2.437455768e-05
2.443715236e-05
2.447319324e-05
2.45281259e-05
2.462272043e-05
2.455569019e-05
2.434978391e-05
2.442286019e-05
2.453354594e-05
2.439499804e-05
2.458693888e-05
2.444291695e-05
2.451402968e-05
2.452499592e-05
2.446551057e-05
2.438150415e-05
2.451727661e-05
2.463643214e-05
2.461959282e-05
2.441568684e-05
2.441760525e-05
2.437123011e-05
2.443403531e-05
2.448480466e-05
2.44437499e-05
2.450286563e-05
2.441739762e-05
2.429860072e-05
2.442517419e-05
2.450782423e-05
2.432348697e-05
2.44398772e-05
2.441331654e-05
2.435893131e-05
2.451085697e-05
2.432125871e-05
2.415684524e-05
2.432102783e-05
2.451691322e-05
2.42559407e-05
2.447021128e-05
2.430514084e-05
2.443413749e-05
2.438533918e-05
2.450161389e-05
2.441333579e-05
2.452694292e-05
2.437988057e-05
2.434567221e-05
2.424376649e-05
2.424025073e-05
2.430982912e-05
2.440057444e-05
2.438177221e-05
2.445706689e-05
2.436722218e-05
2.442922057e-05
2.441801906e-05
2.434469258e-05
2.418870854e-05
2.422625652e-05
2.423870704e-05
2.433694088e-05
2.442110742e-05
2.441267548e-05
2.450188902e-05
2.449093009e-05
2.427510984e-05
2.447501929e-05
2.444012641e-05
2.442868021e-05
2.428452144e-05
2.432266664e-05
2.427084469e-05
2.439953132e-05
2.441061803e-05
2.435803555e-05
2.427879545e-05
2.432767694e-05
2.430358345e-05
2.450242489e-05
2.431029851e-05
2.416531873e-05
2.429287017e-05
2.436916366e-05
2.438465725e-05
2.428893589e-05
2.447078076e-05
2.417009895e-05
2.427333426e-05
2.424696569e-05
2.413066197e-05
2.404193214e-05
2.422774095e-05
2.415788744e-05
2.414565022e-05
2.404065282e-05
2.415590141e-05
2.410905571e-05
2.401500555e-05
2.42186825e-05
2.424296609e-05
2.41227099e-05
2.413490952e-05
2.434664527e-05
2.440526179e-05
2.434660591e-05
2.430568732e-05
2.421103542e-05
2.446735893e-05
2.416176706e-05
2.431861631e-05
2.439947231e-05
2.423387162e-05
2.414313435e-05
2.423014715e-05
2.421868226e-05
2.426408011e-05
2.43571972e-05
2.415362811e-05
2.430454722e-05
2.424104247e-05
2.409444926e-05
2.436405358e-05
2.420968983e-05
2.417440567e-05
2.424533232e-05
2.42718039e-05
2.414344589e-05
2.41072445e-05
2.423028324e-05
2.446022272e-05
2.407350102e-05
2.413122448e-05
2.414666612e-05
2.406786227e-05
2.409421519e-05
2.418840008e-05
2.426498236e-05
2.417410464e-05
2.428861104e-05
2.408896134e-05
2.437490903e-05
2.417602096e-05
2.420823476e-05
2.429580115e-05
2.415351957e-05
2.414244087e-05
2.430708426e-05
2.432074538e-05
2.419480425e-05
2.416491441e-05
2.394814686e-05
2.417326233e-05
2.409205466e-05
2.433172177e-05
2.44189063e-05
2.424939348e-05
2.428000748e-05
2.423104463e-05
2.427094866e-05
2.429866532e-05
2.410369519e-05
2.437790595e-05
2.41471101e-05
2.424712881e-05
2.416284221e-05
2.411535896e-05
2.393732316e-05
2.409800442e-05
2.422030482e-05
2.438388994e-05
2.426590999e-05
2.420981506e-05
2.420068922e-05
2.433200247e-05
2.430323025e-05
2.425017856e-05
2.437704693e-05
2.436995591e-05
2.44670073e-05
2.43292488e-05
2.423526458e-05
2.431160205e-05
2.43409061e-05
2.42754448e-05
2.436203092e-05
2.437685506e-05
2.422461319e-05
2.442970664e-05
2.416080627e-05
2.435294136e-05
2.443354846e-05
2.429292798e-05
2.434705965e-05
2.431045697e-05
2.421815805e-05
2.42980188e-05
2.433893421e-05
2.467809753e-05
2.433137715e-05
2.417902023e-05
2.45062512e-05
2.450480117e-05
2.441784004e-05
2.440588425e-05
2.456162012e-05
2.467058188e-05
2.450879286e-05
2.453785482e-05
2.448003686e-05
2.453333633e-05
2.43829761e-05
2.441805284e-05
2.450461453e-05
2.478187486e-05
2.458171244e-05
2.445015275e-05
2.43174149e-05
2.449943611e-05
2.421104979e-05
2.429945762e-05
2.442387011e-05
2.442074348e-05
2.442173163e-05
2.448528341e-05
2.437448592e-05
2.446016404e-05
2.45145165e-05
2.439169915e-05
2.42657541e-05
2.450970869e-05
2.423706423e-05
2.436649275e-05
2.431848817e-05
2.432408754e-05
2.408907705e-05
2.430107932e-05
2.43942181e-05
2.442955678e-05
2.420053095e-05
2.421930022e-05
2.457569738e-05
2.426553091e-05
2.42996992e-05
2.442824064e-05
2.453806958e-05
2.422053621e-05
2.424613582e-05
2.424756234e-05
2.436868759e-05
2.424921283e-05
2.426995335e-05
2.429494438e-05
2.441398255e-05
2.432690473e-05
2.44531875e-05
2.424539591e-05
2.425938415e-05
2.426457035e-05
2.420087895e-05
2.430074322e-05
2.465152795e-05
2.441441153e-05
2.442286903e-05
2.422080831e-05
2.442347055e-05
2.427645681e-05
2.429053012e-05
2.443627322e-05
2.452079783e-05
2.441834692e-05
2.43884219e-05
2.436899361e-05
2.438324041e-05
2.440287169e-05
2.415051811e-05
2.437340464e-05
2.421593975e-05
2.4435789e-05
2.435211205e-05
2.423508818e-05
2.419842334e-05
2.421352285e-05
2.415184511e-05
2.427446342e-05
2.438247129e-05
2.442442869e-05
2.430830225e-05
2.413181132e-05
2.405319589e-05
2.401916261e-05
2.386413573e-05
2.409527393e-05
2.427308612e-05
2.41615983e-05
2.397757337e-05
2.41732245e-05
2.429391618e-05
2.424973737e-05
2.418884944e-05
2.410508385e-05
2.410785656e-05
2.413007386e-05
2.446601724e-05
2.457680018e-05
2.423934725e-05
2.43441141e-05
2.417715605e-05
2.444554549e-05
2.41929396e-05
2.42918609e-05
2.445135337e-05
2.431542992e-05
2.417569376e-05
2.435935486e-05
2.42752094e-05
2.420372918e-05
2.42758298e-05
2.404668509e-05
2.409257575e-05
2.427016091e-05
2.418654803e-05
2.42312712e-05
2.443096306e-05
2.414742174e-05
2.411307171e-05
2.447860276e-05
2.41188701e-05
2.415940816e-05
2.410005568e-05
2.39843243e-05
2.423105605e-05
2.421600417e-05
2.42126286e-05
2.407213268e-05
2.427356936e-05
2.411512395e-05
2.417119705e-05
2.429282173e-05
2.432514561e-05
2.414354094e-05
2.429095201e-05
2.405759858e-05
2.41909681e-05
2.428056265e-05
2.421768929e-05
2.411625235e-05
2.394750256e-05
2.418119272e-05
2.421463465e-05
2.417616819e-05
2.423764118e-05
2.421340519e-05
2.408767465e-05
2.418718408e-05
2.426665813e-05
2.411359728e-05
2.427386794e-05
2.422681458e-05
2.432651238e-05
2.432753193e-05
2.424297762e-05
2.414863013e-05
2.438460689e-05
2.436385698e-05
2.415627253e-05
2.40617783e-05
2.423983601e-05
2.428032625e-05
2.421815371e-05
2.430273112e-05
2.43921529e-05
2.412129463e-05
2.415027424e-05
2.435390813e-05
2.410804484e-05
2.404030418e-05
2.418552935e-05
2.420661906e-05
2.433263933e-05
2.436550947e-05
2.43416128e-05
2.431345395e-05
2.42317279e-05
2.423497611e-05
2.418225259e-05
2.431398256e-05
2.435512746e-05
2.409327682e-05
2.4327034e-05
2.415155147e-05
2.417643695e-05
2.431997434e-05
2.411438906e-05
2.436847438e-05
2.433196654e-05
2.419581178e-05
2.434120358e-05
2.430711679e-05
2.425390084e-05
2.422110611e-05
2.428554192e-05
2.442640073e-05
2.455544783e-05
2.435415367e-05
2.444084263e-05
2.436614211e-05
2.451679635e-05
2.476839549e-05
2.449194617e-05
2.463843878e-05
2.462501958e-05
2.465392042e-05
2.465043587e-05
2.469686318e-05
2.459565351e-05
2.447428585e-05
2.441802163e-05
2.459774789e-05
2.448603979e-05
2.455218657e-05
2.453057409e-05
2.448344017e-05
2.436318734e-05
2.446029011e-05
2.432106666e-05
2.44302147e-05
2.453444381e-05
2.453277028e-05
2.443345213e-05
2.433638443e-05
2.429015076e-05
2.438833982e-05
2.451918524e-05
2.414445111e-05
2.430088279e-05
2.411957022e-05
2.419840189e-05
2.441488154e-05
2.421591853e-05
2.422491744e-05
2.44386514e-05
2.440764938e-05
2.43785991e-05
2.429131006e-05
2.437954563e-05
2.425661996e-05
2.420739809e-05
2.449088586e-05
2.463937382e-05
2.460053178e-05
2.427296845e-05
2.440654192e-05
2.445743013e-05
2.425234788e-05
2.444190282e-05
2.446823923e-05
2.434849893e-05
2.428058751e-05
2.404544479e-05
2.431576892e-05
2.443197702e-05
2.440011598e-05
2.431145335e-05
2.439828018e-05
2.453496931e-05
2.442378296e-05
2.437749911e-05
2.4211448e-05
2.435017571e-05
2.447487191e-05
2.441331374e-05
2.437172726e-05
2.434701428e-05
2.425215874e-05
)
;

boundaryField
{
    bottom
    {
        type            calculated;
        value           nonuniform List<scalar> 
200
(
2.423548363e-05
2.424923103e-05
2.427346138e-05
2.456657971e-05
2.426835722e-05
2.420556737e-05
2.425834249e-05
2.416485273e-05
2.411712826e-05
2.393600379e-05
2.410693948e-05
2.41336614e-05
2.408487403e-05
2.431416494e-05
2.428171612e-05
2.420419847e-05
2.403206266e-05
2.401048306e-05
2.421055894e-05
2.423328843e-05
2.431470435e-05
2.428240116e-05
2.426599841e-05
2.421602944e-05
2.417195317e-05
2.404189758e-05
2.425631623e-05
2.438846548e-05
2.435252842e-05
2.432896701e-05
2.439095089e-05
2.42767393e-05
2.451111324e-05
2.446292801e-05
2.441100592e-05
2.402833265e-05
2.433095927e-05
2.441140939e-05
2.417515197e-05
2.409326948e-05
2.424443661e-05
2.435533467e-05
2.424771498e-05
2.442401129e-05
2.410476622e-05
2.386377624e-05
2.383064957e-05
2.410587387e-05
2.419045467e-05
2.398614663e-05
2.413255235e-05
2.406367095e-05
2.42170982e-05
2.417852826e-05
2.408768334e-05
2.429203442e-05
2.424487223e-05
2.439561913e-05
2.438520254e-05
2.430252451e-05
2.421307192e-05
2.438112027e-05
2.436391899e-05
2.413936497e-05
2.417559453e-05
2.415465868e-05
2.425201901e-05
2.412757786e-05
2.406322087e-05
2.415884757e-05
2.431727156e-05
2.425144963e-05
2.41602909e-05
2.423122123e-05
2.423237592e-05
2.39553092e-05
2.397132848e-05
2.395586691e-05
2.404760092e-05
2.443760029e-05
2.41209158e-05
2.422828642e-05
2.414775144e-05
2.420533459e-05
2.416965764e-05
2.411647069e-05
2.424839403e-05
2.431253042e-05
2.424893365e-05
2.419938649e-05
2.406089032e-05
2.413061529e-05
2.420602888e-05
2.423553556e-05
2.409993316e-05
2.426305887e-05
2.429042532e-05
2.41969424e-05
2.399999692e-05
2.412439571e-05
2.430323812e-05
2.420471154e-05
2.393151821e-05
2.428080185e-05
2.43053683e-05
2.44319485e-05
2.427411426e-05
2.424394355e-05
2.424936409e-05
2.444064877e-05
2.434900189e-05
2.418109203e-05
2.440477573e-05
2.437656142e-05
2.440124147e-05
2.428628286e-05
2.427255611e-05
2.412161836e-05
2.401607478e-05
2.411765099e-05
2.429796101e-05
2.435854001e-05
2.443677143e-05
2.434495992e-05
2.443076652e-05
2.43981221e-05
2.452183787e-05
2.448307087e-05
2.443873965e-05
2.45056702e-05
2.451358805e-05
2.433044043e-05
2.4314575e-05
2.458889329e-05
2.465954097e-05
2.462816629e-05
2.451763509e-05
2.467214077e-05
2.454757906e-05
2.448759042e-05
2.440173541e-05
2.43716378e-05
2.471368831e-05
2.469726595e-05
2.472893657e-05
2.465162518e-05
2.45699127e-05
2.446752498e-05
2.434114449e-05
2.425435273e-05
2.441291915e-05
2.46386294e-05
2.433303119e-05
2.447368903e-05
2.434783613e-05
2.424156078e-05
2.413792014e-05
2.453179671e-05
2.436265836e-05
2.422863509e-05
2.431824233e-05
2.427051272e-05
2.435588411e-05
2.424623677e-05
2.412212018e-05
2.431025849e-05
2.445468864e-05
2.429407807e-05
2.414854719e-05
2.420541286e-05
2.426629654e-05
2.437372425e-05
2.429370029e-05
2.440531093e-05
2.444866819e-05
2.440355783e-05
2.423714287e-05
2.425771955e-05
2.461423976e-05
2.456252117e-05
2.441060722e-05
2.443300158e-05
2.452313518e-05
2.441075299e-05
2.424679977e-05
2.429351889e-05
2.420502969e-05
2.460111676e-05
2.43529266e-05
2.415403783e-05
2.425821498e-05
2.43896798e-05
2.453669836e-05
2.426746624e-05
2.435580867e-05
2.444794115e-05
2.417498456e-05
2.446149224e-05
2.43006234e-05
2.435511254e-05
)
;
    }
    top
    {
        type            calculated;
        value           nonuniform List<scalar> 
200
(
2.415051811e-05
2.437340464e-05
2.421593975e-05
2.4435789e-05
2.435211205e-05
2.423508818e-05
2.419842334e-05
2.421352285e-05
2.415184511e-05
2.427446342e-05
2.438247129e-05
2.442442869e-05
2.430830225e-05
2.413181132e-05
2.405319589e-05
2.401916261e-05
2.386413573e-05
2.409527393e-05
2.427308612e-05
2.41615983e-05
2.397757337e-05
2.41732245e-05
2.429391618e-05
2.424973737e-05
2.418884944e-05
2.410508385e-05
2.410785656e-05
2.413007386e-05
2.446601724e-05
2.457680018e-05
2.423934725e-05
2.43441141e-05
2.417715605e-05
2.444554549e-05
2.41929396e-05
2.42918609e-05
2.445135337e-05
2.431542992e-05
2.417569376e-05
2.435935486e-05
2.42752094e-05
2.420372918e-05
2.42758298e-05
2.404668509e-05
2.409257575e-05
2.427016091e-05
2.418654803e-05
2.42312712e-05
2.443096306e-05
2.414742174e-05
2.411307171e-05
2.447860276e-05
2.41188701e-05
2.415940816e-05
2.410005568e-05
2.39843243e-05
2.423105605e-05
2.421600417e-05
2.42126286e-05
2.407213268e-05
2.427356936e-05
2.411512395e-05
2.417119705e-05
2.429282173e-05
2.432514561e-05
2.414354094e-05
2.429095201e-05
2.405759858e-05
2.41909681e-05
2.428056265e-05
2.421768929e-05
2.411625235e-05
2.394750256e-05
2.418119272e-05
2.421463465e-05
2.417616819e-05
2.423764118e-05
2.421340519e-05
2.408767465e-05
2.418718408e-05
2.426665813e-05
2.411359728e-05
2.427386794e-05
2.422681458e-05
2.432651238e-05
2.432753193e-05
2.424297762e-05
2.414863013e-05
2.438460689e-05
2.436385698e-05
2.415627253e-05
2.40617783e-05
2.423983601e-05
2.428032625e-05
2.421815371e-05
2.430273112e-05
2.43921529e-05
2.412129463e-05
2.415027424e-05
2.435390813e-05
2.410804484e-05
2.404030418e-05
2.418552935e-05
2.420661906e-05
2.433263933e-05
2.436550947e-05
2.43416128e-05
2.431345395e-05
2.42317279e-05
2.423497611e-05
2.418225259e-05
2.431398256e-05
2.435512746e-05
2.409327682e-05
2.4327034e-05
2.415155147e-05
2.417643695e-05
2.431997434e-05
2.411438906e-05
2.436847438e-05
2.433196654e-05
2.419581178e-05
2.434120358e-05
2.430711679e-05
2.425390084e-05
2.422110611e-05
2.428554192e-05
2.442640073e-05
2.455544783e-05
2.435415367e-05
2.444084263e-05
2.436614211e-05
2.451679635e-05
2.476839549e-05
2.449194617e-05
2.463843878e-05
2.462501958e-05
2.465392042e-05
2.465043587e-05
2.469686318e-05
2.459565351e-05
2.447428585e-05
2.441802163e-05
2.459774789e-05
2.448603979e-05
2.455218657e-05
2.453057409e-05
2.448344017e-05
2.436318734e-05
2.446029011e-05
2.432106666e-05
2.44302147e-05
2.453444381e-05
2.453277028e-05
2.443345213e-05
2.433638443e-05
2.429015076e-05
2.438833982e-05
2.451918524e-05
2.414445111e-05
2.430088279e-05
2.411957022e-05
2.419840189e-05
2.441488154e-05
2.421591853e-05
2.422491744e-05
2.44386514e-05
2.440764938e-05
2.43785991e-05
2.429131006e-05
2.437954563e-05
2.425661996e-05
2.420739809e-05
2.449088586e-05
2.463937382e-05
2.460053178e-05
2.427296845e-05
2.440654192e-05
2.445743013e-05
2.425234788e-05
2.444190282e-05
2.446823923e-05
2.434849893e-05
2.428058751e-05
2.404544479e-05
2.431576892e-05
2.443197702e-05
2.440011598e-05
2.431145335e-05
2.439828018e-05
2.453496931e-05
2.442378296e-05
2.437749911e-05
2.4211448e-05
2.435017571e-05
2.447487191e-05
2.441331374e-05
2.437172726e-05
2.434701428e-05
2.425215874e-05
)
;
    }
    inlet
    {
        type            calculated;
        value           nonuniform List<scalar> 5(2.423548363e-05 2.445528049e-05 2.420391464e-05 2.435803555e-05 2.415051811e-05);
    }
    outlet
    {
        type            calculated;
        value           nonuniform List<scalar> 5(2.435511254e-05 2.43305198e-05 2.441061803e-05 2.440287169e-05 2.425215874e-05);
    }
    back
    {
        type            symmetry;
    }
    front
    {
        type            symmetry;
    }
}


// ************************************************************************* //
