/*--------------------------------*- C++ -*----------------------------------*\
| =========                 |                                                 |
| \\      /  F ield         | OpenFOAM: The Open Source CFD Toolbox           |
|  \\    /   O peration     | Version:  v1706                                 |
|   \\  /    A nd           | Web:      www.OpenFOAM.com                      |
|    \\/     M anipulation  |                                                 |
\*---------------------------------------------------------------------------*/
FoamFile
{
    version     2.0;
    format      ascii;
    class       volScalarField;
    location    "0.55";
    object      mfpCellRatio_mixture;
}
// * * * * * * * * * * * * * * * * * * * * * * * * * * * * * * * * * * * * * //

dimensions      [0 0 0 0 0 0 0];


internalField   nonuniform List<scalar> 
1000
(
1.842566249
1.844045489
1.851524588
1.868800244
1.842172313
1.845834895
1.842268732
1.838631678
1.822756903
1.812447997
1.828027788
1.83459897
1.833710109
1.850824607
1.852000961
1.841033138
1.819757876
1.816548214
1.833563881
1.839461045
1.840320839
1.848811013
1.845603071
1.834467952
1.832418987
1.827221052
1.841276658
1.855573947
1.85726756
1.850591339
1.852747906
1.844121459
1.870377958
1.865054751
1.863339699
1.826654326
1.849592266
1.854441565
1.828972991
1.828690308
1.840611663
1.849377442
1.840503601
1.848005497
1.822230913
1.810449351
1.806679586
1.825759527
1.831412884
1.818536979
1.829078685
1.824280143
1.833990137
1.839013482
1.830510891
1.843622065
1.836640138
1.855744706
1.855626194
1.855284987
1.83424078
1.855578664
1.854290014
1.833300538
1.836310251
1.834362806
1.84399839
1.826554663
1.820922048
1.830102084
1.849687198
1.844616957
1.832728803
1.838477323
1.83521553
1.813200273
1.814894526
1.81825946
1.826807429
1.863987813
1.831944212
1.843956962
1.834035325
1.84198434
1.840759145
1.836782488
1.846142856
1.846622624
1.839905822
1.834797076
1.82604122
1.837444633
1.843289427
1.84305715
1.828306539
1.841734211
1.844319845
1.835544127
1.812904386
1.825233726
1.839847368
1.843552552
1.819095712
1.845412863
1.84746053
1.858507392
1.843898673
1.840176175
1.846221864
1.856670156
1.854432117
1.835974981
1.854659212
1.855540081
1.857266688
1.852385436
1.840111398
1.836488427
1.824561077
1.833431604
1.850882949
1.854656113
1.864243343
1.853073683
1.859311752
1.861851917
1.869452234
1.873055317
1.870157675
1.872590883
1.876628139
1.859463966
1.857810612
1.87109825
1.877027953
1.876082444
1.872379624
1.892469
1.878141748
1.874488428
1.869019905
1.864241047
1.888738298
1.881228201
1.889703008
1.889409149
1.87633379
1.872284466
1.857272769
1.84350976
1.859656852
1.887551217
1.863437672
1.876995555
1.859769666
1.851590487
1.840493503
1.871025722
1.85681422
1.840136743
1.85172241
1.847488492
1.856043713
1.845313903
1.838994928
1.856031981
1.863081149
1.847961244
1.837540076
1.847498839
1.844568921
1.852721066
1.8467087
1.857619741
1.858911705
1.862340459
1.84255934
1.848878497
1.880084095
1.871249065
1.858174427
1.860603568
1.877645148
1.871256968
1.840865308
1.850132418
1.842518952
1.880119945
1.859589965
1.843595306
1.846220072
1.855020055
1.87108111
1.849516732
1.856657821
1.858495881
1.838611544
1.868696495
1.853511631
1.855988503
1.863820172
1.840212125
1.838898381
1.834755657
1.83534337
1.842288095
1.841220023
1.831327724
1.817556232
1.829902047
1.84122333
1.840955067
1.83908715
1.844910177
1.847171525
1.836345806
1.848262169
1.822689849
1.832638956
1.836600034
1.857137628
1.835635641
1.845577418
1.848695309
1.844143171
1.837326044
1.826716493
1.840789861
1.845378714
1.849058636
1.853011836
1.857497592
1.836850216
1.845274305
1.843496031
1.838708598
1.851483869
1.830294285
1.81843375
1.828128024
1.83551055
1.845023884
1.846286345
1.851333956
1.845849803
1.850985394
1.833264072
1.834182639
1.842305709
1.8262822
1.841584594
1.835127172
1.844938135
1.860768018
1.841037578
1.840254179
1.842037371
1.85218479
1.840624517
1.856720294
1.833652858
1.838227713
1.835008562
1.832532927
1.829713116
1.835563152
1.851530178
1.830568966
1.825244445
1.822869091
1.834810081
1.839836147
1.831639063
1.840631818
1.829824606
1.831230787
1.832732661
1.838710875
1.835411258
1.853915254
1.829554032
1.815085726
1.841701596
1.845919897
1.833613101
1.840689992
1.83069486
1.838986709
1.836132848
1.832158536
1.831438456
1.838662526
1.832472286
1.834918872
1.838729163
1.841304466
1.838244323
1.837329377
1.840422301
1.836023017
1.846522071
1.843067594
1.838953817
1.83499527
1.856290171
1.842840628
1.857356161
1.860527538
1.849639949
1.845200505
1.853635648
1.857291262
1.841231135
1.848737838
1.848726311
1.848037123
1.851427385
1.858967794
1.847803111
1.852610008
1.851731826
1.859345044
1.858385952
1.864117148
1.862847729
1.864259899
1.878154145
1.875543236
1.874798368
1.87100157
1.86909225
1.855636499
1.874150204
1.859619098
1.874074539
1.865458998
1.865261093
1.869267557
1.88406771
1.862366306
1.875872229
1.885637477
1.882023328
1.869868812
1.870526264
1.877605859
1.882610577
1.883549511
1.88089021
1.865603455
1.857467175
1.875190766
1.88626248
1.886474684
1.879734403
1.849344745
1.856680184
1.853533009
1.8681276
1.862298197
1.862697638
1.847490915
1.846719001
1.849004907
1.84989072
1.853528022
1.871476723
1.853182213
1.845653455
1.84241537
1.847630325
1.848854277
1.86632464
1.875405366
1.865164095
1.868354836
1.862195507
1.84415366
1.874779741
1.879443903
1.867559108
1.864768156
1.863830246
1.864331419
1.826813
1.846084431
1.857566393
1.87042968
1.845567306
1.880183866
1.859853276
1.838927415
1.859220141
1.858215456
1.85237432
1.858174038
1.849404953
1.842749504
1.85281091
1.853912951
1.843949973
1.845431906
1.84797376
1.857372005
1.839220817
1.853021298
1.84245428
1.837035285
1.832474192
1.839725589
1.851858601
1.856883995
1.855057169
1.841433296
1.843750977
1.829573195
1.814395877
1.826225387
1.828939862
1.829248578
1.823442726
1.829047007
1.830754418
1.824553001
1.836358466
1.854111379
1.828187635
1.848161773
1.836989379
1.847441292
1.842149283
1.846340071
1.848728377
1.847064723
1.8606335
1.849643801
1.836031149
1.827625304
1.837575511
1.834034828
1.841076528
1.85157678
1.863899584
1.85070851
1.845740395
1.834304314
1.829149048
1.827516339
1.82527546
1.832850694
1.84399178
1.807282955
1.837936757
1.824964271
1.845461184
1.855556622
1.84904179
1.827843002
1.842072875
1.847790478
1.817193122
1.826201031
1.839761379
1.838761743
1.84436088
1.838478341
1.841785206
1.838263975
1.834600003
1.831502031
1.834908178
1.843197996
1.832288112
1.832601984
1.832979553
1.830825693
1.828714962
1.83192211
1.814670965
1.840698212
1.838468527
1.826804955
1.828356618
1.837909038
1.843171592
1.840406106
1.861444217
1.851353961
1.835960102
1.842429173
1.842313305
1.842388197
1.846023955
1.848793195
1.846116755
1.856623632
1.838712937
1.84186069
1.844778748
1.847445637
1.844825676
1.859314999
1.85633058
1.851577696
1.855400194
1.840177524
1.851771504
1.846125269
1.840065178
1.840058197
1.844985243
1.849355754
1.836521583
1.839741515
1.851626375
1.853589057
1.85678378
1.860368916
1.845814937
1.846803412
1.84952762
1.850654341
1.861653577
1.871193818
1.85528509
1.862977449
1.867238977
1.874557177
1.879905047
1.873585341
1.85760912
1.864248678
1.875626255
1.861430554
1.87113592
1.86490106
1.868942003
1.873614083
1.869113702
1.860782421
1.878120122
1.886527901
1.87879807
1.860881868
1.862416695
1.860797364
1.868043014
1.870231254
1.866170321
1.871047256
1.866809918
1.864351888
1.872721025
1.872117611
1.857052746
1.864009189
1.857686422
1.857025639
1.87245629
1.851799262
1.837696455
1.855949021
1.870780776
1.844757224
1.861863547
1.846039595
1.86487609
1.857525944
1.864469507
1.861680849
1.869992828
1.855833421
1.850826006
1.844723699
1.844064491
1.849959815
1.858561801
1.854188076
1.868024554
1.858567452
1.866709038
1.865207356
1.854665792
1.843851634
1.843064726
1.846498645
1.852009937
1.856265228
1.860243765
1.872806374
1.866764601
1.851920812
1.871451402
1.865197652
1.861495327
1.85150154
1.855845657
1.853856452
1.86294331
1.864301427
1.857086637
1.846959612
1.856027377
1.853293949
1.86487775
1.845600341
1.830482521
1.840880002
1.847765611
1.853175947
1.845452155
1.861894348
1.833190472
1.841605806
1.846070923
1.838624996
1.826581079
1.83692654
1.833174136
1.828637865
1.820155739
1.831105704
1.826100508
1.819775636
1.840923841
1.839403827
1.831869463
1.839531354
1.854875964
1.860760805
1.851814412
1.84812109
1.840433025
1.865673617
1.837975721
1.844919889
1.854006939
1.843711445
1.834016001
1.843327895
1.84420432
1.846240273
1.848946227
1.83498381
1.843169622
1.834046308
1.821795853
1.846345168
1.836883666
1.831721671
1.843931724
1.849027487
1.836839243
1.829265229
1.843161771
1.852330928
1.823357721
1.834358983
1.835353564
1.824152417
1.822263799
1.832750873
1.843038316
1.829102278
1.84564214
1.829371085
1.848357516
1.828177939
1.828677714
1.839473849
1.833665755
1.830901794
1.842606638
1.848555172
1.836500887
1.839762754
1.812540156
1.832799079
1.830361686
1.850199372
1.857093652
1.839451823
1.842620781
1.842072883
1.846835062
1.849142713
1.831964372
1.849942463
1.830422515
1.841023266
1.836655842
1.830420671
1.813780973
1.825508885
1.843206834
1.854882122
1.843321641
1.836620783
1.836959108
1.844811153
1.839450718
1.841838191
1.851052904
1.851982013
1.863581731
1.846201015
1.837580527
1.847287545
1.857100821
1.843783602
1.857194812
1.851980998
1.849300555
1.859848266
1.843547154
1.854496109
1.864187408
1.854218515
1.854472224
1.850132354
1.840145195
1.846123279
1.84980608
1.882783716
1.8528014
1.84257223
1.87231368
1.870141619
1.865788657
1.862557641
1.874540654
1.881647885
1.867908726
1.877400882
1.869038351
1.867563404
1.859789981
1.864187405
1.868479453
1.891093557
1.882903779
1.870365918
1.856902501
1.872395577
1.847744595
1.850797183
1.869362668
1.867359206
1.860788646
1.870886899
1.864139174
1.86743486
1.86923898
1.862753259
1.847430206
1.870195006
1.837704692
1.855380111
1.854806121
1.852853386
1.833286511
1.847542535
1.861527657
1.863465728
1.838909555
1.844227075
1.871353526
1.846409478
1.853827546
1.859676049
1.871166423
1.843128376
1.846373524
1.845747489
1.852440834
1.848487123
1.846209854
1.854218588
1.865202434
1.854463038
1.863521675
1.849561793
1.853779527
1.849826856
1.841693392
1.852793874
1.880295482
1.85896562
1.864399915
1.844985528
1.860471216
1.855115423
1.858592901
1.859134099
1.866212961
1.858426269
1.856184375
1.85870047
1.857080242
1.868826992
1.832854907
1.857293714
1.842953282
1.859295418
1.855203169
1.840032023
1.831364635
1.836063026
1.828707162
1.846548547
1.853195456
1.86020025
1.845398251
1.83616039
1.826456406
1.82877072
1.812280889
1.828049981
1.84049303
1.834785549
1.817172782
1.836900587
1.845832991
1.84229067
1.833780347
1.831595559
1.832825383
1.834452409
1.863450742
1.873626837
1.851465817
1.855089974
1.850473608
1.863557922
1.839900673
1.846037877
1.860654844
1.857149834
1.837731795
1.853448061
1.846056657
1.837819819
1.843935188
1.822721718
1.828629133
1.837280969
1.833127784
1.840306397
1.85903437
1.835358548
1.834689431
1.862852583
1.841478173
1.829737852
1.829811984
1.819781873
1.838101285
1.839916134
1.838302079
1.830819952
1.83924112
1.832711346
1.833498279
1.83656601
1.84446131
1.830323226
1.843706266
1.815588485
1.833271678
1.842900561
1.835448794
1.831047026
1.817793116
1.83719835
1.838796778
1.833820044
1.839914312
1.833853932
1.823803605
1.828864375
1.842283253
1.835264922
1.845923684
1.846381399
1.850695422
1.843766968
1.840593738
1.836986186
1.852930655
1.853543017
1.835198821
1.818666922
1.84068497
1.84921888
1.833267303
1.848838163
1.858143347
1.832192408
1.830768725
1.843800819
1.827645966
1.822536059
1.83458595
1.833211764
1.845831278
1.849972481
1.848622235
1.845608996
1.834900065
1.840145171
1.834991563
1.850145561
1.852113028
1.834192154
1.854799006
1.846490225
1.840115274
1.847399882
1.829509564
1.855688072
1.859273684
1.84013922
1.850126276
1.846444092
1.841675275
1.844102258
1.854133911
1.870780489
1.871821172
1.853943021
1.860794655
1.852706316
1.869721722
1.891100259
1.870771941
1.882598117
1.884842111
1.886731491
1.882603773
1.889691602
1.886543791
1.873947555
1.867393469
1.879766048
1.872121972
1.877926892
1.869745688
1.870350231
1.859928542
1.861674709
1.853228893
1.860949882
1.86921344
1.873362918
1.864097827
1.856958157
1.846349806
1.853373466
1.86671915
1.838592694
1.855791274
1.834917748
1.844685171
1.859918921
1.844796635
1.84512228
1.859496804
1.854202192
1.854179065
1.844808672
1.855169516
1.843826086
1.838008979
1.867228811
1.883982997
1.876224853
1.848782737
1.862222334
1.862283625
1.851448303
1.865484859
1.871990774
1.85852585
1.853495879
1.831974743
1.856150885
1.865246804
1.858922027
1.853520214
1.861275157
1.873037719
1.866573079
1.869148125
1.845601452
1.84986633
1.861995547
1.861075715
1.858865321
1.847652755
1.844080657
)
;

boundaryField
{
    bottom
    {
        type            calculated;
        value           nonuniform List<scalar> 
200
(
1.842566249
1.844045489
1.851524588
1.868800244
1.842172313
1.845834895
1.842268732
1.838631678
1.822756903
1.812447997
1.828027788
1.83459897
1.833710109
1.850824607
1.852000961
1.841033138
1.819757876
1.816548214
1.833563881
1.839461045
1.840320839
1.848811013
1.845603071
1.834467952
1.832418987
1.827221052
1.841276658
1.855573947
1.85726756
1.850591339
1.852747906
1.844121459
1.870377958
1.865054751
1.863339699
1.826654326
1.849592266
1.854441565
1.828972991
1.828690308
1.840611663
1.849377442
1.840503601
1.848005497
1.822230913
1.810449351
1.806679586
1.825759527
1.831412884
1.818536979
1.829078685
1.824280143
1.833990137
1.839013482
1.830510891
1.843622065
1.836640138
1.855744706
1.855626194
1.855284987
1.83424078
1.855578664
1.854290014
1.833300538
1.836310251
1.834362806
1.84399839
1.826554663
1.820922048
1.830102084
1.849687198
1.844616957
1.832728803
1.838477323
1.83521553
1.813200273
1.814894526
1.81825946
1.826807429
1.863987813
1.831944212
1.843956962
1.834035325
1.84198434
1.840759145
1.836782488
1.846142856
1.846622624
1.839905822
1.834797076
1.82604122
1.837444633
1.843289427
1.84305715
1.828306539
1.841734211
1.844319845
1.835544127
1.812904386
1.825233726
1.839847368
1.843552552
1.819095712
1.845412863
1.84746053
1.858507392
1.843898673
1.840176175
1.846221864
1.856670156
1.854432117
1.835974981
1.854659212
1.855540081
1.857266688
1.852385436
1.840111398
1.836488427
1.824561077
1.833431604
1.850882949
1.854656113
1.864243343
1.853073683
1.859311752
1.861851917
1.869452234
1.873055317
1.870157675
1.872590883
1.876628139
1.859463966
1.857810612
1.87109825
1.877027953
1.876082444
1.872379624
1.892469
1.878141748
1.874488428
1.869019905
1.864241047
1.888738298
1.881228201
1.889703008
1.889409149
1.87633379
1.872284466
1.857272769
1.84350976
1.859656852
1.887551217
1.863437672
1.876995555
1.859769666
1.851590487
1.840493503
1.871025722
1.85681422
1.840136743
1.85172241
1.847488492
1.856043713
1.845313903
1.838994928
1.856031981
1.863081149
1.847961244
1.837540076
1.847498839
1.844568921
1.852721066
1.8467087
1.857619741
1.858911705
1.862340459
1.84255934
1.848878497
1.880084095
1.871249065
1.858174427
1.860603568
1.877645148
1.871256968
1.840865308
1.850132418
1.842518952
1.880119945
1.859589965
1.843595306
1.846220072
1.855020055
1.87108111
1.849516732
1.856657821
1.858495881
1.838611544
1.868696495
1.853511631
1.855988503
)
;
    }
    top
    {
        type            calculated;
        value           nonuniform List<scalar> 
200
(
1.832854907
1.857293714
1.842953282
1.859295418
1.855203169
1.840032023
1.831364635
1.836063026
1.828707162
1.846548547
1.853195456
1.86020025
1.845398251
1.83616039
1.826456406
1.82877072
1.812280889
1.828049981
1.84049303
1.834785549
1.817172782
1.836900587
1.845832991
1.84229067
1.833780347
1.831595559
1.832825383
1.834452409
1.863450742
1.873626837
1.851465817
1.855089974
1.850473608
1.863557922
1.839900673
1.846037877
1.860654844
1.857149834
1.837731795
1.853448061
1.846056657
1.837819819
1.843935188
1.822721718
1.828629133
1.837280969
1.833127784
1.840306397
1.85903437
1.835358548
1.834689431
1.862852583
1.841478173
1.829737852
1.829811984
1.819781873
1.838101285
1.839916134
1.838302079
1.830819952
1.83924112
1.832711346
1.833498279
1.83656601
1.84446131
1.830323226
1.843706266
1.815588485
1.833271678
1.842900561
1.835448794
1.831047026
1.817793116
1.83719835
1.838796778
1.833820044
1.839914312
1.833853932
1.823803605
1.828864375
1.842283253
1.835264922
1.845923684
1.846381399
1.850695422
1.843766968
1.840593738
1.836986186
1.852930655
1.853543017
1.835198821
1.818666922
1.84068497
1.84921888
1.833267303
1.848838163
1.858143347
1.832192408
1.830768725
1.843800819
1.827645966
1.822536059
1.83458595
1.833211764
1.845831278
1.849972481
1.848622235
1.845608996
1.834900065
1.840145171
1.834991563
1.850145561
1.852113028
1.834192154
1.854799006
1.846490225
1.840115274
1.847399882
1.829509564
1.855688072
1.859273684
1.84013922
1.850126276
1.846444092
1.841675275
1.844102258
1.854133911
1.870780489
1.871821172
1.853943021
1.860794655
1.852706316
1.869721722
1.891100259
1.870771941
1.882598117
1.884842111
1.886731491
1.882603773
1.889691602
1.886543791
1.873947555
1.867393469
1.879766048
1.872121972
1.877926892
1.869745688
1.870350231
1.859928542
1.861674709
1.853228893
1.860949882
1.86921344
1.873362918
1.864097827
1.856958157
1.846349806
1.853373466
1.86671915
1.838592694
1.855791274
1.834917748
1.844685171
1.859918921
1.844796635
1.84512228
1.859496804
1.854202192
1.854179065
1.844808672
1.855169516
1.843826086
1.838008979
1.867228811
1.883982997
1.876224853
1.848782737
1.862222334
1.862283625
1.851448303
1.865484859
1.871990774
1.85852585
1.853495879
1.831974743
1.856150885
1.865246804
1.858922027
1.853520214
1.861275157
1.873037719
1.866573079
1.869148125
1.845601452
1.84986633
1.861995547
1.861075715
1.858865321
1.847652755
1.844080657
)
;
    }
    inlet
    {
        type            calculated;
        value           nonuniform List<scalar> 5(1.842566249 1.863820172 1.843949973 1.857086637 1.832854907);
    }
    outlet
    {
        type            calculated;
        value           nonuniform List<scalar> 5(1.855988503 1.853912951 1.864301427 1.868826992 1.844080657);
    }
    back
    {
        type            symmetry;
    }
    front
    {
        type            symmetry;
    }
}


// ************************************************************************* //
