/*--------------------------------*- C++ -*----------------------------------*\
| =========                 |                                                 |
| \\      /  F ield         | OpenFOAM: The Open Source CFD Toolbox           |
|  \\    /   O peration     | Version:  v1706                                 |
|   \\  /    A nd           | Web:      www.OpenFOAM.com                      |
|    \\/     M anipulation  |                                                 |
\*---------------------------------------------------------------------------*/
FoamFile
{
    version     2.0;
    format      ascii;
    class       volScalarField;
    location    "0.55";
    object      mfpCellRatio_Ar1;
}
// * * * * * * * * * * * * * * * * * * * * * * * * * * * * * * * * * * * * * //

dimensions      [0 0 0 0 0 0 0];


internalField   nonuniform List<scalar> 
1000
(
1.870298577
1.882232132
1.903056185
1.934338273
1.912458655
1.925969413
1.932464991
1.947079246
1.939828558
1.932248253
1.957431398
1.973564422
1.988809682
2.012330209
2.023125495
2.02827614
2.004623008
2.00975673
2.045698033
2.061865656
2.062913037
2.087877361
2.095471976
2.100686573
2.121057053
2.121195599
2.153278441
2.177805325
2.198425043
2.210258811
2.222326385
2.211679472
2.256317877
2.276167396
2.285255685
2.24392357
2.289013333
2.310416795
2.291906317
2.317871072
2.342929442
2.364640844
2.372839184
2.405673554
2.390867409
2.374449163
2.379197105
2.430019882
2.4518089
2.451568137
2.484894327
2.512236304
2.531415218
2.533787686
2.535338184
2.57657882
2.594815284
2.645811409
2.659964466
2.677970186
2.676109302
2.716075634
2.746817567
2.716982488
2.74688791
2.749477301
2.790672195
2.775486251
2.768822333
2.824938457
2.900441675
2.902387022
2.939106398
2.955541505
2.954804371
2.957936773
2.960047451
2.992887451
2.995554683
3.104574937
3.065492646
3.092477934
3.117479008
3.156697873
3.231886298
3.212806727
3.258134063
3.304980779
3.32067325
3.347519001
3.366534043
3.432535027
3.464866431
3.483024835
3.54542689
3.591263919
3.641120574
3.624124667
3.621125653
3.681418533
3.71363118
3.758507999
3.744768687
3.829602331
3.911081596
3.969509858
4.029657907
4.057771372
4.054656663
4.119263451
4.159958549
4.140469231
4.214780259
4.298458852
4.341422636
4.341056232
4.394985505
4.401964281
4.481836846
4.577013558
4.64846343
4.696890389
4.848427796
4.776520989
4.868606888
5.052336514
5.091639014
5.105746548
5.134534183
5.255178395
5.430699028
5.400562095
5.454397639
5.620182245
5.699472969
5.696249061
5.830207883
6.003703055
6.004323779
6.069656349
6.229167962
6.170040259
6.36747133
6.54654821
6.635192666
6.712483187
6.856408459
6.998376867
6.974018016
7.255139514
7.364807948
7.691407833
7.706341024
8.085180039
7.832068058
8.119813771
8.180078064
8.48972728
8.386624636
8.712226529
8.945294107
9.175974924
9.347027828
9.583739198
9.685221702
10.09728788
10.43143994
10.53119168
10.71545639
11.36596782
11.38273395
12.04731385
12.08477012
12.79486024
13.19380086
13.47545509
13.99959971
15.26382287
15.89777844
16.56262656
17.15661316
18.49381705
18.94690438
19.84277842
20.00105006
22.0000099
23.12615415
24.83176755
27.17818403
28.16758878
30.00909367
33.64047876
37.57835036
40.9263199
45.78058978
50.49498368
57.04985325
67.35981392
83.91157063
116.1391695
1.891669207
1.880323076
1.88920825
1.895450662
1.908415331
1.925267583
1.934670862
1.934858847
1.928120342
1.952072243
1.972121894
1.980772393
1.990074455
2.009557196
2.021412174
2.015531569
2.029701606
2.017374062
2.043249722
2.056719427
2.090475317
2.080381085
2.103116693
2.116555859
2.132125204
2.136767476
2.138070546
2.16683274
2.197317798
2.208921222
2.216983393
2.239622916
2.225650952
2.24663215
2.252428874
2.264628814
2.293328237
2.283279963
2.272430178
2.304705008
2.332259718
2.358601553
2.377606946
2.411656163
2.410871423
2.44442232
2.428061151
2.444416455
2.464710583
2.465112123
2.492840508
2.490111377
2.538821841
2.568035584
2.575010797
2.569556746
2.587997601
2.64935877
2.646889362
2.677945903
2.670887124
2.697885823
2.712538217
2.720849627
2.731787163
2.732513762
2.785170007
2.785472201
2.780012613
2.816222834
2.861422772
2.885745602
2.916509279
2.954569613
2.923901467
2.972759548
2.995060252
3.022650036
3.026916397
3.086035797
3.071674787
3.085219777
3.137156509
3.193358829
3.193033466
3.231481681
3.22855735
3.283301341
3.335429058
3.352196057
3.398414011
3.447806249
3.460440368
3.511304886
3.576893428
3.617321734
3.589435187
3.619443795
3.625642184
3.713522329
3.756710808
3.761152275
3.809436478
3.809116724
3.943513422
3.967149978
4.014374646
4.029502491
4.013071642
4.063899596
4.142829247
4.16367799
4.195833655
4.247863136
4.329731766
4.365603351
4.379898889
4.490953098
4.500581744
4.59249981
4.619405835
4.712831554
4.780459039
4.886121404
4.946562689
5.008005913
5.101734058
5.116138725
5.234478873
5.293110578
5.384470146
5.428652899
5.565753875
5.574180373
5.711412253
5.705187797
5.878167023
5.934220522
6.023323505
6.08826657
6.132785251
6.234800853
6.41676179
6.487758088
6.553190083
6.758322632
6.913091262
7.064335355
7.24589025
7.305686425
7.497267129
7.713779369
7.92081586
7.953683745
8.000157578
7.955026162
8.154952976
8.314462283
8.548521161
8.817917164
9.001039125
9.138602831
9.45408206
9.625773631
9.700756963
10.03860027
10.33344481
10.79967119
11.12710366
11.28730311
11.42066354
12.0020154
12.14333528
12.96853947
13.3409153
14.01770251
14.48988056
14.98505411
15.96109686
16.49063009
16.81753663
18.16511143
19.15337002
20.36233257
20.37966483
21.75666329
23.09224222
25.92828149
26.20642268
28.04434036
30.62022626
32.78219468
37.24970645
39.84961655
42.54450905
49.74995854
58.45884478
68.44468777
87.31833269
121.4302657
1.872403545
1.884285618
1.898213619
1.920797677
1.912876757
1.936479071
1.937156522
1.935406923
1.942304683
1.96091531
1.984375537
1.994139077
2.007705523
2.003794349
2.016959224
2.008894702
2.003062448
2.029353219
2.04298467
2.055658691
2.059832482
2.080665034
2.085947802
2.098903291
2.12942063
2.156471873
2.140564668
2.171160964
2.177822027
2.191867394
2.20155334
2.22336545
2.237422834
2.247054657
2.272362846
2.266568004
2.275588996
2.2725393
2.297623896
2.318958682
2.326282174
2.365988514
2.392969587
2.401060145
2.403532136
2.412321869
2.433283849
2.428507337
2.457142746
2.460090526
2.488953958
2.457246574
2.529122635
2.520851477
2.571131673
2.583702406
2.614364043
2.597776039
2.6454119
2.664613165
2.653020381
2.662628483
2.715758031
2.750157342
2.764652297
2.757428231
2.78804812
2.790770548
2.816020131
2.831349887
2.857562127
2.908260106
2.901254025
2.942460375
2.946886336
2.975143327
2.991559009
3.04377014
3.002846206
3.073935992
3.108102238
3.116359704
3.140633959
3.168070806
3.209443054
3.217537307
3.277012586
3.317349364
3.317567097
3.363608535
3.399880272
3.436436896
3.500184911
3.495289868
3.52947412
3.628909998
3.602147778
3.650059801
3.692281692
3.734322067
3.729890668
3.818401533
3.796441193
3.858398877
3.935927569
3.900419452
3.975018898
3.945362312
4.007857525
4.03858051
4.078989997
4.16892115
4.192130626
4.245493874
4.262029459
4.335188178
4.432485277
4.526313254
4.57403083
4.642719992
4.681315844
4.694759175
4.803415536
4.827002358
4.858393924
4.932864077
5.046216799
5.129621106
5.241677463
5.393926175
5.365823034
5.467304908
5.521266288
5.537957308
5.602423717
5.656538593
5.833214649
5.893502064
6.024590686
6.139716917
6.223277068
6.214795011
6.354530243
6.450639411
6.620356719
6.646843407
6.801289248
7.009325444
7.07116034
7.307455925
7.388582574
7.616491567
7.791140385
8.011120201
8.04687638
8.173501751
8.266145502
8.375930508
8.655626616
8.583631191
8.808736117
8.998292146
9.609276992
9.539133898
9.608440199
9.8756965
10.2776291
10.70860793
11.29727624
11.53450894
11.75722644
11.84048631
12.41249963
12.77086686
13.11336274
13.67984241
14.45412841
15.072201
15.57914944
16.17401162
17.5547003
18.11923775
19.26558937
19.80222287
20.52900717
22.22885001
23.35780607
25.34152286
26.25741946
29.04702747
31.15933133
34.13192988
36.94428691
40.7672257
47.36240908
52.22418145
58.05834334
72.86475434
90.48925943
138.1199056
1.886405994
1.88673168
1.907643479
1.915344843
1.934633133
1.927362963
1.92045083
1.941375535
1.959084233
1.976221698
1.973140002
2.004754087
1.98337993
2.007038509
2.014524328
2.017798824
2.01689811
2.044205182
2.054162595
2.052703881
2.058845832
2.083750422
2.087534669
2.08552868
2.121396875
2.13638393
2.145170523
2.161860283
2.193571398
2.206860113
2.215116014
2.221779431
2.219602941
2.270113857
2.24880786
2.261558263
2.299797948
2.291262784
2.299451089
2.333446013
2.334849292
2.361599621
2.380153766
2.379348765
2.38727761
2.407597689
2.407956132
2.464600959
2.474281653
2.471452947
2.494544875
2.519229794
2.527861971
2.535562804
2.563700069
2.577596409
2.562712051
2.604424185
2.61838171
2.62554216
2.644695931
2.681364256
2.715685009
2.719464812
2.755147423
2.763587266
2.810240235
2.806521536
2.811105359
2.855045458
2.871609313
2.88519595
2.936952215
2.963283451
2.973458192
3.00338745
2.95769681
3.030033543
3.047052002
3.085255531
3.134102516
3.118660313
3.137821395
3.179426511
3.226396485
3.246042585
3.217809266
3.32530796
3.292281148
3.366693489
3.388853149
3.390098931
3.404318114
3.459177076
3.555505473
3.595122988
3.626042715
3.590860483
3.65856854
3.701985647
3.717685806
3.768632104
3.788978083
3.862659685
3.927479666
3.9277094
3.908959501
3.976689043
4.004823108
4.046055661
4.097358575
4.149859001
4.211614581
4.248226702
4.258317927
4.351584309
4.462978971
4.478043089
4.586770373
4.587809661
4.654994288
4.661430094
4.759733758
4.844773934
4.830212404
4.89083126
5.036322613
5.086055696
5.244698646
5.290079867
5.366745755
5.431355618
5.454927894
5.523936052
5.554139325
5.681077779
5.814603702
5.920447697
6.012570165
6.169068981
6.15371651
6.251778075
6.321118365
6.447467882
6.426811726
6.635819242
6.846131337
6.913056196
7.135786071
7.338612842
7.491248171
7.645474444
7.706414562
7.88198166
8.045579206
8.350224934
8.231721043
8.501034619
8.507381825
8.537657547
8.964006937
9.040751555
9.260772411
9.474363049
9.618361719
10.0263679
10.54805651
10.45056768
11.08861501
11.34224987
11.89999184
11.61315834
12.20970078
12.66855549
13.10336618
13.52390806
14.17273693
14.75521521
15.72871824
15.86685606
16.89419291
17.98583269
18.97034414
19.9785193
21.29386673
22.73672605
23.94271417
25.40748277
26.77490178
28.7700175
31.79125171
34.40820047
36.4732755
39.8027788
44.81161498
50.82722376
60.56218179
71.73423013
93.2736687
137.6004574
1.860295374
1.8973297
1.894551834
1.922660788
1.927944811
1.922026003
1.920743077
1.943011552
1.940529484
1.962950097
1.981234036
2.002967494
1.992755817
1.992690598
2.000088812
2.008238703
2.002669132
2.028608938
2.057356796
2.060614408
2.055680462
2.0931763
2.113246835
2.11661719
2.119848234
2.130596622
2.137613472
2.155437393
2.204411786
2.231742774
2.220856042
2.232715984
2.232082589
2.27113956
2.254205592
2.268934165
2.308819192
2.312719313
2.317455055
2.345373706
2.353853546
2.340192524
2.367155947
2.369954884
2.393507291
2.417948475
2.432334406
2.447069617
2.487733066
2.473051399
2.491006273
2.553743897
2.545274291
2.52250482
2.544817919
2.539275484
2.588689771
2.608593132
2.619784629
2.64364852
2.65582938
2.675412951
2.708904318
2.733621063
2.773156482
2.777655011
2.811927478
2.77141471
2.804890217
2.862995063
2.878802579
2.886779024
2.891998164
2.948860104
2.984404196
2.992241971
3.012329711
3.045155143
3.00607449
3.036544526
3.079616115
3.106039979
3.177389944
3.182081713
3.247400507
3.23548142
3.259064298
3.304326226
3.345200745
3.369897301
3.345477771
3.361768344
3.453408091
3.501188379
3.510840701
3.588975704
3.610749542
3.600746461
3.627277519
3.713197023
3.708082122
3.705371454
3.740662136
3.824795265
3.88339819
3.919285404
3.959219912
4.001327405
3.997820928
4.077781685
4.047227025
4.131472395
4.250742507
4.270572672
4.271717345
4.301787031
4.401223133
4.414815186
4.526988466
4.616410863
4.709310896
4.716930892
4.772776029
4.830031301
4.794785071
4.930728
5.012514461
5.058928636
5.205116014
5.2753954
5.229678059
5.324241133
5.46246688
5.555925543
5.529530251
5.77585628
5.949881725
6.07804132
6.034632016
6.023667649
6.213377646
6.160550045
6.371173557
6.482388574
6.57935678
6.695229495
6.804381257
6.992438036
7.014437405
7.158411929
7.356224983
7.484840104
7.720031391
7.99321533
8.191988658
8.181207953
8.269160425
8.482043864
8.60915756
8.671248344
8.97667474
8.879541726
9.165001693
9.416532688
9.788023228
9.920313922
10.49453774
10.61305573
10.92908101
11.3802653
11.67343004
12.17635186
12.18066879
12.77319731
13.28521207
13.75521
14.09650294
14.80667521
15.6546093
16.24209986
17.21233591
17.89338245
18.9522086
19.96792261
20.89497008
22.47694916
23.52337889
26.14987305
26.78997273
28.38452997
32.30388682
34.07161732
37.40906026
39.92654794
44.92528218
50.28978184
57.95495012
70.48993559
90.8570445
129.8513612
)
;

boundaryField
{
    bottom
    {
        type            calculated;
        value           nonuniform List<scalar> 
200
(
1.870298577
1.882232132
1.903056185
1.934338273
1.912458655
1.925969413
1.932464991
1.947079246
1.939828558
1.932248253
1.957431398
1.973564422
1.988809682
2.012330209
2.023125495
2.02827614
2.004623008
2.00975673
2.045698033
2.061865656
2.062913037
2.087877361
2.095471976
2.100686573
2.121057053
2.121195599
2.153278441
2.177805325
2.198425043
2.210258811
2.222326385
2.211679472
2.256317877
2.276167396
2.285255685
2.24392357
2.289013333
2.310416795
2.291906317
2.317871072
2.342929442
2.364640844
2.372839184
2.405673554
2.390867409
2.374449163
2.379197105
2.430019882
2.4518089
2.451568137
2.484894327
2.512236304
2.531415218
2.533787686
2.535338184
2.57657882
2.594815284
2.645811409
2.659964466
2.677970186
2.676109302
2.716075634
2.746817567
2.716982488
2.74688791
2.749477301
2.790672195
2.775486251
2.768822333
2.824938457
2.900441675
2.902387022
2.939106398
2.955541505
2.954804371
2.957936773
2.960047451
2.992887451
2.995554683
3.104574937
3.065492646
3.092477934
3.117479008
3.156697873
3.231886298
3.212806727
3.258134063
3.304980779
3.32067325
3.347519001
3.366534043
3.432535027
3.464866431
3.483024835
3.54542689
3.591263919
3.641120574
3.624124667
3.621125653
3.681418533
3.71363118
3.758507999
3.744768687
3.829602331
3.911081596
3.969509858
4.029657907
4.057771372
4.054656663
4.119263451
4.159958549
4.140469231
4.214780259
4.298458852
4.341422636
4.341056232
4.394985505
4.401964281
4.481836846
4.577013558
4.64846343
4.696890389
4.848427796
4.776520989
4.868606888
5.052336514
5.091639014
5.105746548
5.134534183
5.255178395
5.430699028
5.400562095
5.454397639
5.620182245
5.699472969
5.696249061
5.830207883
6.003703055
6.004323779
6.069656349
6.229167962
6.170040259
6.36747133
6.54654821
6.635192666
6.712483187
6.856408459
6.998376867
6.974018016
7.255139514
7.364807948
7.691407833
7.706341024
8.085180039
7.832068058
8.119813771
8.180078064
8.48972728
8.386624636
8.712226529
8.945294107
9.175974924
9.347027828
9.583739198
9.685221702
10.09728788
10.43143994
10.53119168
10.71545639
11.36596782
11.38273395
12.04731385
12.08477012
12.79486024
13.19380086
13.47545509
13.99959971
15.26382287
15.89777844
16.56262656
17.15661316
18.49381705
18.94690438
19.84277842
20.00105006
22.0000099
23.12615415
24.83176755
27.17818403
28.16758878
30.00909367
33.64047876
37.57835036
40.9263199
45.78058978
50.49498368
57.04985325
67.35981392
83.91157063
116.1391695
)
;
    }
    top
    {
        type            calculated;
        value           nonuniform List<scalar> 
200
(
1.860295374
1.8973297
1.894551834
1.922660788
1.927944811
1.922026003
1.920743077
1.943011552
1.940529484
1.962950097
1.981234036
2.002967494
1.992755817
1.992690598
2.000088812
2.008238703
2.002669132
2.028608938
2.057356796
2.060614408
2.055680462
2.0931763
2.113246835
2.11661719
2.119848234
2.130596622
2.137613472
2.155437393
2.204411786
2.231742774
2.220856042
2.232715984
2.232082589
2.27113956
2.254205592
2.268934165
2.308819192
2.312719313
2.317455055
2.345373706
2.353853546
2.340192524
2.367155947
2.369954884
2.393507291
2.417948475
2.432334406
2.447069617
2.487733066
2.473051399
2.491006273
2.553743897
2.545274291
2.52250482
2.544817919
2.539275484
2.588689771
2.608593132
2.619784629
2.64364852
2.65582938
2.675412951
2.708904318
2.733621063
2.773156482
2.777655011
2.811927478
2.77141471
2.804890217
2.862995063
2.878802579
2.886779024
2.891998164
2.948860104
2.984404196
2.992241971
3.012329711
3.045155143
3.00607449
3.036544526
3.079616115
3.106039979
3.177389944
3.182081713
3.247400507
3.23548142
3.259064298
3.304326226
3.345200745
3.369897301
3.345477771
3.361768344
3.453408091
3.501188379
3.510840701
3.588975704
3.610749542
3.600746461
3.627277519
3.713197023
3.708082122
3.705371454
3.740662136
3.824795265
3.88339819
3.919285404
3.959219912
4.001327405
3.997820928
4.077781685
4.047227025
4.131472395
4.250742507
4.270572672
4.271717345
4.301787031
4.401223133
4.414815186
4.526988466
4.616410863
4.709310896
4.716930892
4.772776029
4.830031301
4.794785071
4.930728
5.012514461
5.058928636
5.205116014
5.2753954
5.229678059
5.324241133
5.46246688
5.555925543
5.529530251
5.77585628
5.949881725
6.07804132
6.034632016
6.023667649
6.213377646
6.160550045
6.371173557
6.482388574
6.57935678
6.695229495
6.804381257
6.992438036
7.014437405
7.158411929
7.356224983
7.484840104
7.720031391
7.99321533
8.191988658
8.181207953
8.269160425
8.482043864
8.60915756
8.671248344
8.97667474
8.879541726
9.165001693
9.416532688
9.788023228
9.920313922
10.49453774
10.61305573
10.92908101
11.3802653
11.67343004
12.17635186
12.18066879
12.77319731
13.28521207
13.75521
14.09650294
14.80667521
15.6546093
16.24209986
17.21233591
17.89338245
18.9522086
19.96792261
20.89497008
22.47694916
23.52337889
26.14987305
26.78997273
28.38452997
32.30388682
34.07161732
37.40906026
39.92654794
44.92528218
50.28978184
57.95495012
70.48993559
90.8570445
129.8513612
)
;
    }
    inlet
    {
        type            calculated;
        value           nonuniform List<scalar> 5(1.870298577 1.891669207 1.872403545 1.886405994 1.860295374);
    }
    outlet
    {
        type            calculated;
        value           nonuniform List<scalar> 5(116.1391695 121.4302657 138.1199056 137.6004574 129.8513612);
    }
    back
    {
        type            symmetry;
    }
    front
    {
        type            symmetry;
    }
}


// ************************************************************************* //
