/*--------------------------------*- C++ -*----------------------------------*\
| =========                 |                                                 |
| \\      /  F ield         | OpenFOAM: The Open Source CFD Toolbox           |
|  \\    /   O peration     | Version:  v1706                                 |
|   \\  /    A nd           | Web:      www.OpenFOAM.com                      |
|    \\/     M anipulation  |                                                 |
\*---------------------------------------------------------------------------*/
FoamFile
{
    version     2.0;
    format      ascii;
    class       volScalarField;
    location    "0.55";
    object      p_Ar1;
}
// * * * * * * * * * * * * * * * * * * * * * * * * * * * * * * * * * * * * * //

dimensions      [1 -1 -2 0 0 0 0];


internalField   nonuniform List<scalar> 
1000
(
0.5199614884
0.5166862833
0.5160687646
0.503909061
0.5065870632
0.5085842797
0.5018112998
0.5013456312
0.4947590077
0.4985108994
0.4941296567
0.4932241338
0.4912514835
0.4842220297
0.485373435
0.4822076685
0.4808274555
0.4775896094
0.4708881816
0.4699729047
0.4641743403
0.4672396321
0.4640586339
0.4584120752
0.4563606407
0.458764148
0.4502593405
0.4477011037
0.4474606612
0.4420188323
0.4373457301
0.4390381767
0.4336125554
0.4314253966
0.4310151878
0.4335909839
0.426151586
0.4200643657
0.4191648124
0.417958383
0.4144728517
0.4101812502
0.4088395276
0.3994067362
0.4016512155
0.408089863
0.4057682863
0.3976994725
0.3926185377
0.3924941825
0.3886899962
0.3871865564
0.3807362902
0.384905901
0.3819127133
0.3751819788
0.3713461739
0.3666350411
0.3662401615
0.3675090125
0.359665874
0.3585988169
0.356179166
0.3562417526
0.3512929812
0.3514963112
0.3495295156
0.3473683595
0.3462438575
0.3419167323
0.3371467615
0.3370027049
0.3312622018
0.3290300827
0.3268723503
0.3256912237
0.3236730646
0.3243163221
0.3233066864
0.3161650181
0.3154696277
0.3145355009
0.3119869808
0.3079486439
0.3030263795
0.3042599322
0.2999534871
0.2948394967
0.2906603994
0.2890135679
0.2887445613
0.2832583117
0.2825485611
0.2799668305
0.2765858315
0.2705537652
0.2684246172
0.2681793116
0.265077614
0.2624379127
0.2586759258
0.2597578922
0.2598054334
0.2527192176
0.2497207084
0.2458094314
0.2428521842
0.2402355939
0.2420740644
0.2369524639
0.2356448682
0.2347433793
0.2305775677
0.2279134977
0.2234413369
0.224936903
0.2196917748
0.2227464942
0.2151093345
0.213118565
0.2114452932
0.2084001974
0.2048736248
0.2028093454
0.1986010093
0.1961362686
0.1937573879
0.1913741203
0.190403989
0.1860596748
0.1821039662
0.1816343971
0.1793808508
0.1748002191
0.1730085167
0.1708313755
0.1694080408
0.165827744
0.1653710882
0.1624924533
0.1604320415
0.1589053077
0.1548884747
0.1496428759
0.1483863375
0.1462081346
0.1420815309
0.1414741698
0.1406732573
0.1347193098
0.1322574883
0.1289268675
0.1276230325
0.1244860245
0.1252098436
0.1210582153
0.1181814589
0.1145288911
0.1159114842
0.1120472256
0.1073651054
0.1047645035
0.1041065933
0.1019649612
0.1021335662
0.09584992731
0.09480732183
0.09142655573
0.09080326455
0.08651565095
0.08420258537
0.08130439637
0.07977867776
0.07689156111
0.07322968842
0.07174763918
0.0698712944
0.06554950168
0.06199327615
0.05920498219
0.05732188727
0.05420135006
0.05239078664
0.04977331934
0.04710337465
0.04530942452
0.04312491696
0.03980761225
0.03721117598
0.03544257385
0.03249912127
0.02937349152
0.02539679623
0.02352987077
0.0213160916
0.01881819609
0.01662249174
0.01344041041
0.01077184654
0.007481006745
0.5175746952
0.5199642064
0.515726454
0.5126841391
0.5073678524
0.5072977442
0.5063475845
0.5011431838
0.4992924872
0.4978686976
0.494992309
0.4905208685
0.4884065818
0.486858255
0.4818460346
0.482785428
0.4785068489
0.4799323783
0.4718390641
0.4734618949
0.467370313
0.4643255395
0.4609231526
0.4578349667
0.4553416397
0.4551747213
0.4528927246
0.4510938125
0.4449625985
0.4424640467
0.4383362129
0.4374125005
0.437418369
0.4335610477
0.4360033019
0.430680385
0.4267448082
0.4223314101
0.4249874563
0.4172904494
0.4175440808
0.4118850602
0.4074199146
0.4044967858
0.4032940704
0.4014459037
0.3978940548
0.3945774428
0.3946105553
0.3891040409
0.3866337074
0.388426928
0.3832646607
0.3800504781
0.382581182
0.3753368671
0.3710545396
0.3664376779
0.3702366318
0.3658619161
0.3608250132
0.360236788
0.3582819514
0.3550717423
0.352125765
0.3515205856
0.3446986468
0.342513733
0.3441099845
0.3435333818
0.3357282291
0.3322552435
0.3314841346
0.3327220927
0.3269609295
0.3260510034
0.3206347246
0.3230857634
0.3195854383
0.3135647217
0.3133062908
0.3131379667
0.3106811678
0.3029575669
0.3048447754
0.3005429772
0.3022958574
0.2952529497
0.2897361272
0.2892210312
0.2849054479
0.2828230954
0.2798092355
0.277726714
0.2745119347
0.2704901375
0.2703150762
0.2657906606
0.2640144265
0.2613133153
0.2600913651
0.2584215033
0.2549466173
0.2532138369
0.2484278566
0.2474973986
0.2435936978
0.2430288989
0.2415536474
0.2398686021
0.2369443821
0.2335675327
0.2325250823
0.2278657242
0.2259768727
0.2250499403
0.2225826597
0.2214152603
0.2157308749
0.2125475847
0.2090026403
0.2073635688
0.206894638
0.2025792473
0.199480835
0.1962961085
0.1960723601
0.1923793891
0.1887479015
0.1869480985
0.1829012087
0.1816976487
0.1778666025
0.176718049
0.1704404529
0.1719278042
0.166602252
0.1642510937
0.1629019915
0.1621985802
0.1581466301
0.1571394076
0.154612439
0.1525444723
0.1511049803
0.1447081013
0.1432193643
0.1390589336
0.1384719267
0.1350435773
0.1329034908
0.1291588732
0.1262305658
0.1265836487
0.123337175
0.1226130053
0.1196067503
0.1171261933
0.1149012509
0.1106664542
0.108387116
0.1070227408
0.1059748285
0.1022090556
0.09989627093
0.09794932809
0.09519863686
0.09086990587
0.08829989224
0.08829120038
0.08536288809
0.08105209105
0.07954269875
0.07504667065
0.0740268866
0.0713475683
0.06793926611
0.06589867076
0.0624428942
0.05920043177
0.05736299904
0.05397427313
0.05140203626
0.04838384134
0.04755114296
0.0448023382
0.04202325715
0.03955994729
0.03700495838
0.03545382272
0.03209310194
0.02906152676
0.02616676798
0.02390969916
0.02159892134
0.01903304957
0.0156341012
0.01347959066
0.01009631188
0.007273776994
0.5218975246
0.5153688008
0.5161563385
0.5062705122
0.5105150998
0.5031851559
0.5000705611
0.5002774496
0.4968673672
0.4953245692
0.4905369162
0.4848768735
0.4886748474
0.4844900884
0.4833390999
0.4873746659
0.4832580191
0.4723763411
0.4720052267
0.470255965
0.4663681726
0.464097523
0.4638394176
0.4607236803
0.4573848552
0.4522105937
0.4514944728
0.4512856175
0.4464985072
0.4438097352
0.4411845871
0.4406454633
0.4355007048
0.4320849145
0.4305955758
0.4286385822
0.4312561143
0.4287984544
0.4199033148
0.4170400722
0.4169026425
0.4117828208
0.4073098054
0.4061683691
0.402504904
0.4030240874
0.3980549923
0.3990646336
0.3919628373
0.3926844604
0.3903533649
0.3935174434
0.3839025168
0.38504894
0.3776308082
0.3735546312
0.3688084834
0.3724867805
0.3686753793
0.3689082366
0.3630513417
0.3635563799
0.3589217041
0.3511847556
0.3522176249
0.3514653492
0.3467818643
0.3448921188
0.3396425082
0.3391160937
0.337621805
0.334743091
0.3320578853
0.3313126655
0.328158593
0.3247044159
0.3235557392
0.319212445
0.3188990783
0.3164923131
0.312200328
0.3095286953
0.3086547958
0.3060723112
0.3033938226
0.3011185414
0.296072631
0.295364582
0.2907833993
0.2887121273
0.2866517218
0.2842523859
0.2793288126
0.2780248984
0.2758738049
0.2701509694
0.2712966684
0.2662311801
0.2660720919
0.2606648649
0.260467529
0.2593833967
0.2560854107
0.2515331342
0.2483102753
0.2500207268
0.2456698957
0.2478604502
0.2425032047
0.2400396826
0.2379200116
0.2360143754
0.2337677941
0.2296943294
0.2273455618
0.2238204775
0.2213863
0.2195023668
0.2138862856
0.2098695659
0.2088077694
0.2074532567
0.2053110394
0.2033923941
0.1992815898
0.1975667757
0.196482991
0.1918171089
0.1872945873
0.1840555577
0.1827232224
0.1789312098
0.17906446
0.1760690814
0.1721592181
0.1724334073
0.1696668458
0.1669440282
0.1645857023
0.1612830072
0.1604094003
0.1586159357
0.1556751786
0.1531445504
0.1489534924
0.1469426611
0.1439809957
0.141166552
0.1384550488
0.1328036907
0.1342192659
0.1322322583
0.1274703763
0.1248853795
0.1216481264
0.1200483005
0.1158916663
0.1162117665
0.1142105111
0.1134239388
0.1094290923
0.10970804
0.1018978119
0.10279248
0.09963504003
0.09871548518
0.09452893694
0.09224890342
0.08786719698
0.08640034559
0.08410652257
0.08076657978
0.07775559059
0.07608387435
0.07534607389
0.07131310833
0.06904153613
0.06571607408
0.06268937899
0.05982344646
0.0568821827
0.05443198095
0.05006666208
0.05006980326
0.0476418203
0.04511287314
0.04069337172
0.03880061475
0.03691720113
0.034236275
0.03064258948
0.02867773043
0.02624840629
0.02375620555
0.02047042628
0.0188823991
0.01661314517
0.01375626781
0.009773001587
0.006200036342
0.5194013043
0.5164523307
0.514563047
0.5125277423
0.5037901254
0.5031190784
0.5016458513
0.4964417629
0.4935151531
0.4926391111
0.4937291027
0.4866822917
0.4871202731
0.4819238295
0.4850311262
0.4845854413
0.4818496666
0.4721643665
0.4722048253
0.4698950794
0.466757798
0.4632424511
0.4616297344
0.4630607851
0.459179401
0.4544083701
0.4532388628
0.4535590868
0.4468768516
0.4431979509
0.4395914143
0.4383024901
0.4379929068
0.4330154823
0.4349628976
0.427750398
0.422030898
0.4243842124
0.4223281416
0.4202979744
0.4182146658
0.4138518473
0.4076176942
0.408200643
0.4045112652
0.399008344
0.3979543376
0.3930235068
0.3930367897
0.3917487362
0.3909143436
0.3884166656
0.3856178795
0.3802005293
0.3798132137
0.3721158577
0.3751053592
0.373941764
0.3716001944
0.3678054283
0.3628869489
0.3594885813
0.3570152154
0.3540121237
0.3523297073
0.3527875783
0.3434536944
0.3436917036
0.3406411147
0.3376850904
0.3369930353
0.3352974746
0.3310510983
0.3294945478
0.3252946058
0.3266630756
0.3246306876
0.3174145587
0.3184013954
0.3152035088
0.3114923807
0.3091057906
0.3092001841
0.3067263321
0.3047690909
0.3024830218
0.3010637642
0.2940789493
0.2926514995
0.2873503955
0.2873780672
0.2847499033
0.2831270425
0.2774132166
0.276122053
0.2714697831
0.2685687159
0.2694971755
0.2657134503
0.2606992846
0.2580902934
0.2581780964
0.2553070238
0.2525219638
0.2502647278
0.2476468806
0.2480033103
0.24357619
0.2442008003
0.2400327503
0.2373867421
0.2332567641
0.2322171385
0.2291395995
0.229312371
0.2235038644
0.2196547188
0.2212652804
0.2148647436
0.2132695585
0.208745554
0.2068222311
0.2033760242
0.202711219
0.2016670556
0.1999043222
0.1960286026
0.1937190034
0.1888232653
0.1849655805
0.1824563531
0.178768708
0.1778560758
0.1785331974
0.1759820444
0.1700953587
0.1673538741
0.1676224522
0.1637133751
0.1593775702
0.160333436
0.158942079
0.1553648837
0.1529711573
0.1519229617
0.1470045373
0.1443599364
0.1413018983
0.1369353882
0.1347084283
0.1338896726
0.1299811649
0.1273963626
0.1243140519
0.1222988648
0.1181565389
0.1185732017
0.1160590129
0.115690932
0.1135610231
0.1105302738
0.1082951873
0.1049612697
0.1033803864
0.1006266785
0.09605710813
0.093785639
0.09342647895
0.08899505741
0.08456797886
0.08286657005
0.0830091694
0.07941295132
0.07728133966
0.07433287754
0.0717801416
0.0687645356
0.06689266034
0.06291807588
0.06105581505
0.05811848977
0.05463298811
0.05318591061
0.04970732954
0.04643179988
0.04317191782
0.03987628507
0.03768246094
0.03620644354
0.03364779174
0.03067242528
0.02908094984
0.02602698334
0.02384160993
0.02150502254
0.01892386107
0.01621629759
0.01350777634
0.01031520152
0.006676385885
0.5200984412
0.5155192656
0.5141871518
0.5075809838
0.5075510292
0.5047531033
0.5012561556
0.4988414138
0.496811458
0.4958617745
0.4910270324
0.4883334219
0.4860466428
0.488028185
0.4842002997
0.4862185822
0.4842519096
0.4763545032
0.4699822396
0.4705810337
0.4711152439
0.4644528487
0.4606824315
0.4598203908
0.4571627479
0.4570769359
0.4562834476
0.4518088427
0.4440918223
0.4397927691
0.4433689554
0.4379713127
0.4421796447
0.4320322581
0.4327170542
0.4276119147
0.4232918065
0.4252334079
0.421192654
0.4162362982
0.4148095395
0.414988732
0.4078233627
0.4084226538
0.4048373734
0.3976510278
0.3987171898
0.3970797186
0.3920006964
0.3936187203
0.3923103134
0.3828937167
0.3884967896
0.3805582293
0.3803454978
0.3796303015
0.3725554286
0.3725492981
0.3694538725
0.3694414794
0.3608642157
0.362801055
0.3576475236
0.3487917938
0.3496357467
0.3490200354
0.3453288271
0.3441466387
0.3432519679
0.3371418119
0.3344931523
0.3371027625
0.3346058945
0.3315244403
0.3242221159
0.3229280911
0.3217712289
0.3172841237
0.3180822728
0.3140383789
0.3122358618
0.3135430728
0.3068258006
0.308358792
0.3021536255
0.2990007068
0.298418224
0.2950635549
0.2907861942
0.2906179824
0.2893334647
0.2851583983
0.2811871284
0.2808309095
0.2746641177
0.2749837093
0.2714995642
0.2707270953
0.2664647398
0.261170987
0.2621324712
0.2616061069
0.2561846431
0.2521971536
0.2494701886
0.2471213692
0.2466844893
0.245029607
0.2403909376
0.2385382011
0.2372518859
0.2343534413
0.2298759647
0.231054469
0.2310460026
0.2273552359
0.2227406066
0.2188477344
0.2142379627
0.2126831796
0.2095115314
0.2068887515
0.2049263044
0.2010021446
0.200719902
0.1994047446
0.1971213407
0.195568415
0.1878909288
0.1852585514
0.1843418352
0.179794163
0.1786272819
0.1764867616
0.1773605818
0.1703087952
0.1676970154
0.1647328308
0.1639601706
0.1624027966
0.160775297
0.1589214973
0.155503772
0.1513759666
0.1507241588
0.1466744854
0.1422446005
0.1396128938
0.1386627873
0.1356243413
0.133388735
0.1311311093
0.1244565961
0.1233155317
0.1204861648
0.1206912895
0.1168681783
0.1133987256
0.112974722
0.1116954623
0.1099202853
0.1101852912
0.1074215321
0.1017199615
0.1006578231
0.09765085239
0.09253320786
0.09223526254
0.089457508
0.08603629131
0.08528851179
0.08088728939
0.0796241098
0.0763806237
0.07504206343
0.07101419518
0.06864328057
0.065635674
0.06221834985
0.0593110869
0.05695162658
0.05462233347
0.051951398
0.05084032062
0.04765091492
0.04361302453
0.04092289171
0.03683875728
0.03565889935
0.03377079564
0.03008777938
0.02860613823
0.02704453275
0.02453845722
0.02095791108
0.01893015062
0.01709042274
0.01427475393
0.01058741211
0.007435072304
)
;

boundaryField
{
    bottom
    {
        type            calculated;
        value           nonuniform List<scalar> 
200
(
0.5199614884
0.5166862833
0.5160687646
0.503909061
0.5065870632
0.5085842797
0.5018112998
0.5013456312
0.4947590077
0.4985108994
0.4941296567
0.4932241338
0.4912514835
0.4842220297
0.485373435
0.4822076685
0.4808274555
0.4775896094
0.4708881816
0.4699729047
0.4641743403
0.4672396321
0.4640586339
0.4584120752
0.4563606407
0.458764148
0.4502593405
0.4477011037
0.4474606612
0.4420188323
0.4373457301
0.4390381767
0.4336125554
0.4314253966
0.4310151878
0.4335909839
0.426151586
0.4200643657
0.4191648124
0.417958383
0.4144728517
0.4101812502
0.4088395276
0.3994067362
0.4016512155
0.408089863
0.4057682863
0.3976994725
0.3926185377
0.3924941825
0.3886899962
0.3871865564
0.3807362902
0.384905901
0.3819127133
0.3751819788
0.3713461739
0.3666350411
0.3662401615
0.3675090125
0.359665874
0.3585988169
0.356179166
0.3562417526
0.3512929812
0.3514963112
0.3495295156
0.3473683595
0.3462438575
0.3419167323
0.3371467615
0.3370027049
0.3312622018
0.3290300827
0.3268723503
0.3256912237
0.3236730646
0.3243163221
0.3233066864
0.3161650181
0.3154696277
0.3145355009
0.3119869808
0.3079486439
0.3030263795
0.3042599322
0.2999534871
0.2948394967
0.2906603994
0.2890135679
0.2887445613
0.2832583117
0.2825485611
0.2799668305
0.2765858315
0.2705537652
0.2684246172
0.2681793116
0.265077614
0.2624379127
0.2586759258
0.2597578922
0.2598054334
0.2527192176
0.2497207084
0.2458094314
0.2428521842
0.2402355939
0.2420740644
0.2369524639
0.2356448682
0.2347433793
0.2305775677
0.2279134977
0.2234413369
0.224936903
0.2196917748
0.2227464942
0.2151093345
0.213118565
0.2114452932
0.2084001974
0.2048736248
0.2028093454
0.1986010093
0.1961362686
0.1937573879
0.1913741203
0.190403989
0.1860596748
0.1821039662
0.1816343971
0.1793808508
0.1748002191
0.1730085167
0.1708313755
0.1694080408
0.165827744
0.1653710882
0.1624924533
0.1604320415
0.1589053077
0.1548884747
0.1496428759
0.1483863375
0.1462081346
0.1420815309
0.1414741698
0.1406732573
0.1347193098
0.1322574883
0.1289268675
0.1276230325
0.1244860245
0.1252098436
0.1210582153
0.1181814589
0.1145288911
0.1159114842
0.1120472256
0.1073651054
0.1047645035
0.1041065933
0.1019649612
0.1021335662
0.09584992731
0.09480732183
0.09142655573
0.09080326455
0.08651565095
0.08420258537
0.08130439637
0.07977867776
0.07689156111
0.07322968842
0.07174763918
0.0698712944
0.06554950168
0.06199327615
0.05920498219
0.05732188727
0.05420135006
0.05239078664
0.04977331934
0.04710337465
0.04530942452
0.04312491696
0.03980761225
0.03721117598
0.03544257385
0.03249912127
0.02937349152
0.02539679623
0.02352987077
0.0213160916
0.01881819609
0.01662249174
0.01344041041
0.01077184654
0.007481006745
)
;
    }
    top
    {
        type            calculated;
        value           nonuniform List<scalar> 
200
(
0.5200984412
0.5155192656
0.5141871518
0.5075809838
0.5075510292
0.5047531033
0.5012561556
0.4988414138
0.496811458
0.4958617745
0.4910270324
0.4883334219
0.4860466428
0.488028185
0.4842002997
0.4862185822
0.4842519096
0.4763545032
0.4699822396
0.4705810337
0.4711152439
0.4644528487
0.4606824315
0.4598203908
0.4571627479
0.4570769359
0.4562834476
0.4518088427
0.4440918223
0.4397927691
0.4433689554
0.4379713127
0.4421796447
0.4320322581
0.4327170542
0.4276119147
0.4232918065
0.4252334079
0.421192654
0.4162362982
0.4148095395
0.414988732
0.4078233627
0.4084226538
0.4048373734
0.3976510278
0.3987171898
0.3970797186
0.3920006964
0.3936187203
0.3923103134
0.3828937167
0.3884967896
0.3805582293
0.3803454978
0.3796303015
0.3725554286
0.3725492981
0.3694538725
0.3694414794
0.3608642157
0.362801055
0.3576475236
0.3487917938
0.3496357467
0.3490200354
0.3453288271
0.3441466387
0.3432519679
0.3371418119
0.3344931523
0.3371027625
0.3346058945
0.3315244403
0.3242221159
0.3229280911
0.3217712289
0.3172841237
0.3180822728
0.3140383789
0.3122358618
0.3135430728
0.3068258006
0.308358792
0.3021536255
0.2990007068
0.298418224
0.2950635549
0.2907861942
0.2906179824
0.2893334647
0.2851583983
0.2811871284
0.2808309095
0.2746641177
0.2749837093
0.2714995642
0.2707270953
0.2664647398
0.261170987
0.2621324712
0.2616061069
0.2561846431
0.2521971536
0.2494701886
0.2471213692
0.2466844893
0.245029607
0.2403909376
0.2385382011
0.2372518859
0.2343534413
0.2298759647
0.231054469
0.2310460026
0.2273552359
0.2227406066
0.2188477344
0.2142379627
0.2126831796
0.2095115314
0.2068887515
0.2049263044
0.2010021446
0.200719902
0.1994047446
0.1971213407
0.195568415
0.1878909288
0.1852585514
0.1843418352
0.179794163
0.1786272819
0.1764867616
0.1773605818
0.1703087952
0.1676970154
0.1647328308
0.1639601706
0.1624027966
0.160775297
0.1589214973
0.155503772
0.1513759666
0.1507241588
0.1466744854
0.1422446005
0.1396128938
0.1386627873
0.1356243413
0.133388735
0.1311311093
0.1244565961
0.1233155317
0.1204861648
0.1206912895
0.1168681783
0.1133987256
0.112974722
0.1116954623
0.1099202853
0.1101852912
0.1074215321
0.1017199615
0.1006578231
0.09765085239
0.09253320786
0.09223526254
0.089457508
0.08603629131
0.08528851179
0.08088728939
0.0796241098
0.0763806237
0.07504206343
0.07101419518
0.06864328057
0.065635674
0.06221834985
0.0593110869
0.05695162658
0.05462233347
0.051951398
0.05084032062
0.04765091492
0.04361302453
0.04092289171
0.03683875728
0.03565889935
0.03377079564
0.03008777938
0.02860613823
0.02704453275
0.02453845722
0.02095791108
0.01893015062
0.01709042274
0.01427475393
0.01058741211
0.007435072304
)
;
    }
    inlet
    {
        type            calculated;
        value           nonuniform List<scalar> 5(0.5199614884 0.5175746952 0.5218975246 0.5194013043 0.5200984412);
    }
    outlet
    {
        type            calculated;
        value           nonuniform List<scalar> 5(0.007481006745 0.007273776994 0.006200036342 0.006676385885 0.007435072304);
    }
    back
    {
        type            symmetry;
    }
    front
    {
        type            symmetry;
    }
}


// ************************************************************************* //
