/*--------------------------------*- C++ -*----------------------------------*\
| =========                 |                                                 |
| \\      /  F ield         | OpenFOAM: The Open Source CFD Toolbox           |
|  \\    /   O peration     | Version:  v1706                                 |
|   \\  /    A nd           | Web:      www.OpenFOAM.com                      |
|    \\/     M anipulation  |                                                 |
\*---------------------------------------------------------------------------*/
FoamFile
{
    version     2.0;
    format      ascii;
    class       volScalarField;
    location    "0.55";
    object      p_Ar2;
}
// * * * * * * * * * * * * * * * * * * * * * * * * * * * * * * * * * * * * * //

dimensions      [1 -1 -2 0 0 0 0];


internalField   nonuniform List<scalar> 
1000
(
0.007381020669
0.01075835924
0.01363292895
0.01729615775
0.01922865876
0.02254708374
0.02465809765
0.02885139699
0.03078509691
0.03255870749
0.03453938321
0.03702888292
0.04136572954
0.04308020709
0.04442907956
0.04693741736
0.04825204372
0.0512336658
0.05449790999
0.05678292389
0.05840258184
0.06102216543
0.06371346046
0.06706941039
0.07067382583
0.0733339567
0.0760906541
0.07775578305
0.08082851887
0.0845608641
0.08666729549
0.08748364964
0.09180503224
0.09426057275
0.09676219267
0.09907228224
0.09982271903
0.1036342154
0.1061382105
0.1119356136
0.1123068053
0.114413587
0.1177156249
0.1206494956
0.1245764853
0.1265046215
0.1289864649
0.1300965734
0.1330117563
0.1388065767
0.1391661197
0.1423307047
0.1445377207
0.144928253
0.1491715666
0.1502864872
0.1535689867
0.1585403785
0.1595036122
0.1628077315
0.1659846785
0.1673866174
0.1701768238
0.1731682227
0.1774506345
0.177514615
0.1784337344
0.1795888406
0.1817377337
0.1848858542
0.1897391176
0.1912476053
0.1967143037
0.1975445254
0.1981197132
0.2048788827
0.2067932963
0.2086416626
0.2083866477
0.2104695234
0.214382988
0.2147864084
0.2173248402
0.2217253368
0.2281470016
0.2281012979
0.2291843264
0.230886938
0.2355818892
0.2376679234
0.2417960494
0.2485964923
0.2476755046
0.2484317477
0.2527447941
0.2556626742
0.257464664
0.258990816
0.2627961483
0.264081637
0.2644816955
0.2706951028
0.2749827396
0.2742681771
0.276800472
0.2786220272
0.2837859548
0.2864305343
0.2870884901
0.2861730911
0.2916121929
0.2935029757
0.2936311783
0.2982925645
0.3021754739
0.3049471757
0.3052994633
0.3091820582
0.3173202723
0.3176247483
0.3171171232
0.318451385
0.321946529
0.3240625216
0.3262506215
0.3317564852
0.3306314897
0.336822864
0.3389782342
0.3406913837
0.3460275555
0.3490064259
0.3513588857
0.3465473704
0.3471198808
0.3505494661
0.3565421316
0.360536674
0.3614599384
0.3660683001
0.3704925591
0.371542266
0.3674911527
0.370289767
0.3736192207
0.3798777003
0.3827200419
0.387247372
0.3883521775
0.3928885041
0.393776565
0.3970944904
0.4047103163
0.4060068845
0.404511226
0.4109782317
0.4146375198
0.4099871969
0.4116331811
0.415326853
0.4202790053
0.4236376336
0.4234173377
0.4268733262
0.4308905672
0.4343634429
0.4304134769
0.4359541161
0.4400543419
0.4456624043
0.4431649941
0.4437261258
0.447016456
0.4486287437
0.4504235305
0.455995186
0.4582089402
0.4643041845
0.4619927211
0.4636818729
0.4681194989
0.4710401001
0.4755718432
0.4815552797
0.479538415
0.4829482465
0.4866761608
0.484784105
0.4920116572
0.4977492438
0.4959558204
0.4956514301
0.4986144585
0.5057925329
0.5062198835
0.5042993133
0.5127883088
0.5134242767
0.5180817311
0.5190247771
0.00710435196
0.01111475016
0.01388477319
0.01596830365
0.02021033747
0.02191056362
0.02569680201
0.02793155138
0.03003696738
0.03202451989
0.03506340099
0.03758606641
0.04028599621
0.04354918351
0.04449808111
0.04789414754
0.04883145879
0.05186363447
0.05395383213
0.05751935163
0.06074887853
0.06183710223
0.0651867783
0.06860767153
0.07145372287
0.07313415396
0.07569942671
0.07849166194
0.08363661509
0.08395568918
0.0870714897
0.09087761604
0.09353162428
0.09365336265
0.09664557154
0.09938027464
0.100554115
0.1030888472
0.106367418
0.1079928114
0.1122142986
0.1160412196
0.1177044633
0.1201448557
0.1240175459
0.1276104095
0.1280690743
0.1298801432
0.1304201167
0.1364423847
0.1393797801
0.1389340861
0.145315378
0.1475368906
0.1520496308
0.151706929
0.1521104791
0.1599308311
0.1592554951
0.16162591
0.1650510335
0.1683812945
0.1710097127
0.1719178637
0.1744951349
0.1738002425
0.1753649731
0.1804250636
0.1801519596
0.1862437911
0.1881167975
0.191908393
0.1978236016
0.1982033537
0.1978987476
0.2031969778
0.2064694128
0.2085668018
0.2072958794
0.2103589418
0.2142615744
0.2203368784
0.219055076
0.2210122522
0.2265831592
0.2259052696
0.2287045239
0.2330439635
0.236120926
0.23833364
0.2444094978
0.2487903955
0.2490849485
0.250403947
0.2543350093
0.2563297999
0.2568211003
0.2598343323
0.2597646313
0.2630525653
0.268348427
0.2730542401
0.2757667053
0.2769208073
0.2777077287
0.279855458
0.2820945003
0.2828479665
0.2794263797
0.2859473227
0.2901393915
0.2891989975
0.2964584169
0.296564892
0.3009204324
0.3061264158
0.3058781027
0.3108146866
0.3108582787
0.3131885534
0.3144230421
0.3208282378
0.324902535
0.3261230213
0.3275923696
0.3299561045
0.3313407092
0.3309471555
0.3365627558
0.3411338184
0.3434250277
0.3491837036
0.3486513273
0.3502362203
0.3508372901
0.3529306038
0.3579305887
0.3598056479
0.3605138879
0.3662727538
0.3649755623
0.3671071314
0.3686977684
0.3707932027
0.3741746379
0.3824835886
0.3831623125
0.3880934461
0.3867451508
0.3937492768
0.3958917582
0.3974542594
0.4026993013
0.4009326977
0.4021648896
0.4069956043
0.408512588
0.4127081862
0.4106993771
0.4140411143
0.4155220149
0.4227959435
0.4267387761
0.4277315918
0.4306747687
0.4345302896
0.4323248468
0.4388582412
0.4428253165
0.4403109525
0.4434275692
0.4480093116
0.4452971241
0.4459254626
0.4515763167
0.4537536926
0.4572959362
0.4634798641
0.4619140635
0.463556381
0.4673811338
0.4720684036
0.4779736912
0.4802603183
0.484694931
0.487184703
0.4846289949
0.485949046
0.4947024326
0.4894084932
0.4964071545
0.4995402815
0.5016122165
0.5053446342
0.5109620699
0.5108986796
0.5140554371
0.5144003059
0.5147778112
0.5197609343
0.007764621296
0.01035492882
0.0137289666
0.01691535997
0.02038179073
0.02196449455
0.02539330896
0.02710676627
0.02940752284
0.03153977493
0.03443513131
0.03735557477
0.04053898877
0.04272059283
0.04468770013
0.04738150679
0.04933879192
0.05333078195
0.05563604792
0.05839876353
0.05924758102
0.06225103163
0.06495093631
0.06975215594
0.07101214551
0.07286728575
0.07579464968
0.07931470213
0.08166655715
0.08381545853
0.08503834182
0.08854023783
0.0913828793
0.09462518129
0.0956615572
0.09786464389
0.1035186743
0.1038486758
0.1063881429
0.1114071955
0.1128533949
0.1149179916
0.1176520075
0.1205305137
0.1228121107
0.1271805625
0.1294020126
0.1292508116
0.1333435607
0.1358049912
0.1369198399
0.140603728
0.1464103568
0.1487963507
0.1485586348
0.1484187738
0.1550841454
0.1587285199
0.1595990064
0.1611575932
0.1653887556
0.1683872761
0.16971069
0.1714617626
0.1747595527
0.1750496519
0.1807053404
0.1793564979
0.1827468037
0.1855207788
0.1890443904
0.1909141986
0.1908200901
0.1974804762
0.2015209518
0.2042521425
0.2061216469
0.2102384832
0.2086711576
0.2111845162
0.2153008025
0.2205504398
0.220320407
0.2224833194
0.224180469
0.2262827207
0.2268756241
0.2323775009
0.2365869424
0.2397537277
0.2425511919
0.245455181
0.2504788492
0.2489372287
0.2524175505
0.2570793339
0.260195414
0.2603755387
0.2637304547
0.2632095854
0.2643119771
0.2686550595
0.2681899717
0.2735552008
0.2765552177
0.2791296491
0.2795463296
0.2806455757
0.2848393974
0.2882971001
0.2863358265
0.2910428336
0.2945810718
0.2977360818
0.2982535986
0.302910651
0.3060537674
0.3105698518
0.3160461731
0.3166979716
0.3190364122
0.3179833787
0.3239485128
0.321548334
0.3269195828
0.3285887444
0.3296254326
0.3345584242
0.3361952196
0.3402852392
0.3459101933
0.3486246495
0.3474537228
0.3518148406
0.3493759424
0.3543455493
0.3549382876
0.3591800439
0.3627966782
0.3670402586
0.3681784963
0.3670879183
0.3674649923
0.3732513943
0.3780370179
0.3820177421
0.3847447158
0.3856555298
0.3888379178
0.3933771729
0.3948805857
0.4025092599
0.4038295308
0.4014667543
0.4082446093
0.4064103925
0.4092015636
0.4116554072
0.4121453897
0.4141885921
0.4210728774
0.4198219635
0.4232943529
0.4252667547
0.4241702872
0.4271584652
0.4326735512
0.4342658615
0.4352889638
0.4404548238
0.4401729612
0.4453460222
0.4480051342
0.4526244602
0.4532525786
0.4561002492
0.4571324966
0.4594643069
0.4646194672
0.4681738507
0.4713685513
0.4737904681
0.4774168604
0.4813592905
0.4812347944
0.4846152557
0.4859582181
0.4851034524
0.4892552765
0.4927023436
0.4940346949
0.5013648193
0.501394279
0.5030103904
0.5052802042
0.5103746377
0.5122973202
0.5170901756
0.5177613527
0.5211647046
0.007512515178
0.01067682934
0.01417074392
0.01638246168
0.01928812133
0.02193476834
0.02467565772
0.02748212971
0.02933949685
0.03185586849
0.03264881146
0.03697530837
0.04027895932
0.04358369432
0.04401605364
0.04770101291
0.04986686556
0.05381785056
0.05598529447
0.05694516591
0.06212807822
0.06412893247
0.06608913909
0.06711850925
0.06916674348
0.07185458113
0.07640155243
0.07896477215
0.08066026669
0.08375298527
0.08655514204
0.08849082347
0.09053166513
0.09267378981
0.09533616978
0.09676435295
0.102169445
0.1043991325
0.107161572
0.1085385557
0.1117277634
0.1144280146
0.1166351878
0.1211462305
0.1200438858
0.124999773
0.1286630346
0.1296464165
0.1339991597
0.1349091304
0.1373735726
0.1406941997
0.1452455288
0.1491893904
0.1489767566
0.1478942869
0.1534514764
0.1564728387
0.1583873584
0.161461301
0.1639823384
0.1668352657
0.1697458662
0.1714808105
0.1742688408
0.1776989085
0.1795436429
0.1812722308
0.1827097813
0.1857298465
0.1918182005
0.1928517249
0.1931734448
0.1966870435
0.2024648648
0.20431324
0.2060423264
0.2098263372
0.2123712246
0.2110744998
0.2130508666
0.2169135149
0.2165426335
0.2215555671
0.2234511928
0.2252012949
0.2297949947
0.2294798487
0.2349996005
0.239532506
0.2422914723
0.2447392307
0.2487971263
0.2507534222
0.2533166299
0.2540444785
0.2582914309
0.2574641001
0.2619242884
0.2631038163
0.2648430149
0.268891811
0.2688409301
0.2724258853
0.2745029794
0.2769467216
0.2779498912
0.2824827185
0.2847439077
0.2864844071
0.2904228477
0.2913162326
0.299803547
0.2960653776
0.3036909245
0.3035502934
0.3073293435
0.3091048579
0.3125472342
0.3142107463
0.3193420783
0.3195039994
0.3223599222
0.3190040962
0.325867826
0.3315990703
0.3305550367
0.3318840298
0.3397522116
0.3427875552
0.3420246405
0.3428528523
0.3465363453
0.3485047215
0.3505525111
0.3527954773
0.3604396324
0.36016991
0.3611874603
0.3603413727
0.3668131256
0.3698686748
0.3748030739
0.3740123733
0.3801264992
0.3813855915
0.3854882314
0.3877810126
0.3891050642
0.3923765527
0.3963816106
0.3969670675
0.3972763267
0.4043256085
0.40645186
0.407247899
0.407308305
0.4106268941
0.4134909809
0.4143651003
0.4217510852
0.4184718702
0.4229653423
0.4234553095
0.4278735799
0.4338207141
0.428410258
0.4348407646
0.4407839584
0.4405513235
0.4413288521
0.4462843441
0.4499626558
0.4516952328
0.4508591241
0.4583511707
0.4591127311
0.4632642105
0.4654977228
0.4673474091
0.4672859912
0.47617897
0.478843759
0.4800920683
0.4832718108
0.4860458653
0.4820539679
0.48778757
0.4913009083
0.4963056572
0.494948276
0.502478444
0.5062645359
0.5003395318
0.5011881234
0.5059458308
0.5093265073
0.5141794753
0.5156415878
0.5232061575
0.007543276245
0.01098288051
0.01460685527
0.01647741556
0.01941160782
0.02193802796
0.02358299674
0.02735974269
0.02947143334
0.03172640034
0.03356602719
0.03708073265
0.03917245912
0.0430497402
0.04683912358
0.04794679932
0.0511359325
0.05303714701
0.05507836942
0.05811674857
0.05996529581
0.06465528161
0.06565911455
0.06738884117
0.06959157441
0.07344534786
0.0746348395
0.07860744366
0.08062698176
0.08336635484
0.08871483302
0.08981426599
0.09303787239
0.09388524951
0.0966506813
0.09899899881
0.1010188967
0.1051799296
0.1082407936
0.1099905397
0.1127752774
0.1128404431
0.1187361396
0.1213539199
0.1250580861
0.1260987748
0.1278787894
0.1303461388
0.1326921774
0.1362810753
0.1392471978
0.140938417
0.1459465103
0.1460620569
0.1496885006
0.152412251
0.153877907
0.1555530069
0.1580708975
0.1626853325
0.1636624753
0.1677469986
0.1700539772
0.173416345
0.1743839655
0.1787995341
0.1802676029
0.1816379958
0.1831917129
0.1886597929
0.1914130691
0.1925737805
0.1985752685
0.1972962581
0.2034378448
0.2046387654
0.2051116929
0.2081810979
0.2098514174
0.2105824143
0.2141284352
0.2182981143
0.220769975
0.2221443073
0.2246747799
0.2245634519
0.2284918096
0.2355987983
0.2337897247
0.2353804247
0.2400372483
0.2418733511
0.2459471066
0.2479670496
0.2502660624
0.2523433854
0.2550115039
0.2592331724
0.2611853646
0.2609608484
0.2664531591
0.2684706603
0.2711961216
0.2733115898
0.2747538644
0.2771535062
0.2782977968
0.2801679915
0.284533649
0.2886010441
0.2904982334
0.2928886648
0.2959570415
0.3014302302
0.2976625011
0.3075710135
0.3077550271
0.3068422749
0.3148181873
0.3140634805
0.3209473398
0.3224910161
0.3207925876
0.3249639241
0.326059052
0.330344652
0.3336303924
0.3348356134
0.3356615511
0.341506204
0.3406582663
0.345722416
0.3461945969
0.343965438
0.3492737005
0.3535108315
0.357883849
0.3600933487
0.3592039807
0.3613589538
0.367201566
0.3702285104
0.3738261054
0.3734285081
0.3768998398
0.3798208813
0.3817413405
0.3872775908
0.3903041794
0.3886347138
0.3948968542
0.3945045325
0.3991350201
0.4022463977
0.4064027087
0.4083655456
0.4099452314
0.4110818648
0.4102718049
0.4198969678
0.4207193503
0.4211647717
0.4239397546
0.4242569657
0.4296915499
0.4323505163
0.4319472826
0.4315924551
0.4360034844
0.440076074
0.4405533641
0.4466732597
0.4480413302
0.4486490288
0.4492548163
0.4519846294
0.4602490354
0.4618859836
0.4624404479
0.4719847854
0.4700125598
0.4738526063
0.4771238063
0.4797973926
0.4864574394
0.4862329959
0.4864490543
0.4894434575
0.49312459
0.4936862553
0.4950015514
0.4997909227
0.5051518816
0.5062286193
0.5038287305
0.5043834968
0.5091958632
0.5133458947
0.5131009334
0.5195881954
)
;

boundaryField
{
    bottom
    {
        type            calculated;
        value           nonuniform List<scalar> 
200
(
0.007381020669
0.01075835924
0.01363292895
0.01729615775
0.01922865876
0.02254708374
0.02465809765
0.02885139699
0.03078509691
0.03255870749
0.03453938321
0.03702888292
0.04136572954
0.04308020709
0.04442907956
0.04693741736
0.04825204372
0.0512336658
0.05449790999
0.05678292389
0.05840258184
0.06102216543
0.06371346046
0.06706941039
0.07067382583
0.0733339567
0.0760906541
0.07775578305
0.08082851887
0.0845608641
0.08666729549
0.08748364964
0.09180503224
0.09426057275
0.09676219267
0.09907228224
0.09982271903
0.1036342154
0.1061382105
0.1119356136
0.1123068053
0.114413587
0.1177156249
0.1206494956
0.1245764853
0.1265046215
0.1289864649
0.1300965734
0.1330117563
0.1388065767
0.1391661197
0.1423307047
0.1445377207
0.144928253
0.1491715666
0.1502864872
0.1535689867
0.1585403785
0.1595036122
0.1628077315
0.1659846785
0.1673866174
0.1701768238
0.1731682227
0.1774506345
0.177514615
0.1784337344
0.1795888406
0.1817377337
0.1848858542
0.1897391176
0.1912476053
0.1967143037
0.1975445254
0.1981197132
0.2048788827
0.2067932963
0.2086416626
0.2083866477
0.2104695234
0.214382988
0.2147864084
0.2173248402
0.2217253368
0.2281470016
0.2281012979
0.2291843264
0.230886938
0.2355818892
0.2376679234
0.2417960494
0.2485964923
0.2476755046
0.2484317477
0.2527447941
0.2556626742
0.257464664
0.258990816
0.2627961483
0.264081637
0.2644816955
0.2706951028
0.2749827396
0.2742681771
0.276800472
0.2786220272
0.2837859548
0.2864305343
0.2870884901
0.2861730911
0.2916121929
0.2935029757
0.2936311783
0.2982925645
0.3021754739
0.3049471757
0.3052994633
0.3091820582
0.3173202723
0.3176247483
0.3171171232
0.318451385
0.321946529
0.3240625216
0.3262506215
0.3317564852
0.3306314897
0.336822864
0.3389782342
0.3406913837
0.3460275555
0.3490064259
0.3513588857
0.3465473704
0.3471198808
0.3505494661
0.3565421316
0.360536674
0.3614599384
0.3660683001
0.3704925591
0.371542266
0.3674911527
0.370289767
0.3736192207
0.3798777003
0.3827200419
0.387247372
0.3883521775
0.3928885041
0.393776565
0.3970944904
0.4047103163
0.4060068845
0.404511226
0.4109782317
0.4146375198
0.4099871969
0.4116331811
0.415326853
0.4202790053
0.4236376336
0.4234173377
0.4268733262
0.4308905672
0.4343634429
0.4304134769
0.4359541161
0.4400543419
0.4456624043
0.4431649941
0.4437261258
0.447016456
0.4486287437
0.4504235305
0.455995186
0.4582089402
0.4643041845
0.4619927211
0.4636818729
0.4681194989
0.4710401001
0.4755718432
0.4815552797
0.479538415
0.4829482465
0.4866761608
0.484784105
0.4920116572
0.4977492438
0.4959558204
0.4956514301
0.4986144585
0.5057925329
0.5062198835
0.5042993133
0.5127883088
0.5134242767
0.5180817311
0.5190247771
)
;
    }
    top
    {
        type            calculated;
        value           nonuniform List<scalar> 
200
(
0.007543276245
0.01098288051
0.01460685527
0.01647741556
0.01941160782
0.02193802796
0.02358299674
0.02735974269
0.02947143334
0.03172640034
0.03356602719
0.03708073265
0.03917245912
0.0430497402
0.04683912358
0.04794679932
0.0511359325
0.05303714701
0.05507836942
0.05811674857
0.05996529581
0.06465528161
0.06565911455
0.06738884117
0.06959157441
0.07344534786
0.0746348395
0.07860744366
0.08062698176
0.08336635484
0.08871483302
0.08981426599
0.09303787239
0.09388524951
0.0966506813
0.09899899881
0.1010188967
0.1051799296
0.1082407936
0.1099905397
0.1127752774
0.1128404431
0.1187361396
0.1213539199
0.1250580861
0.1260987748
0.1278787894
0.1303461388
0.1326921774
0.1362810753
0.1392471978
0.140938417
0.1459465103
0.1460620569
0.1496885006
0.152412251
0.153877907
0.1555530069
0.1580708975
0.1626853325
0.1636624753
0.1677469986
0.1700539772
0.173416345
0.1743839655
0.1787995341
0.1802676029
0.1816379958
0.1831917129
0.1886597929
0.1914130691
0.1925737805
0.1985752685
0.1972962581
0.2034378448
0.2046387654
0.2051116929
0.2081810979
0.2098514174
0.2105824143
0.2141284352
0.2182981143
0.220769975
0.2221443073
0.2246747799
0.2245634519
0.2284918096
0.2355987983
0.2337897247
0.2353804247
0.2400372483
0.2418733511
0.2459471066
0.2479670496
0.2502660624
0.2523433854
0.2550115039
0.2592331724
0.2611853646
0.2609608484
0.2664531591
0.2684706603
0.2711961216
0.2733115898
0.2747538644
0.2771535062
0.2782977968
0.2801679915
0.284533649
0.2886010441
0.2904982334
0.2928886648
0.2959570415
0.3014302302
0.2976625011
0.3075710135
0.3077550271
0.3068422749
0.3148181873
0.3140634805
0.3209473398
0.3224910161
0.3207925876
0.3249639241
0.326059052
0.330344652
0.3336303924
0.3348356134
0.3356615511
0.341506204
0.3406582663
0.345722416
0.3461945969
0.343965438
0.3492737005
0.3535108315
0.357883849
0.3600933487
0.3592039807
0.3613589538
0.367201566
0.3702285104
0.3738261054
0.3734285081
0.3768998398
0.3798208813
0.3817413405
0.3872775908
0.3903041794
0.3886347138
0.3948968542
0.3945045325
0.3991350201
0.4022463977
0.4064027087
0.4083655456
0.4099452314
0.4110818648
0.4102718049
0.4198969678
0.4207193503
0.4211647717
0.4239397546
0.4242569657
0.4296915499
0.4323505163
0.4319472826
0.4315924551
0.4360034844
0.440076074
0.4405533641
0.4466732597
0.4480413302
0.4486490288
0.4492548163
0.4519846294
0.4602490354
0.4618859836
0.4624404479
0.4719847854
0.4700125598
0.4738526063
0.4771238063
0.4797973926
0.4864574394
0.4862329959
0.4864490543
0.4894434575
0.49312459
0.4936862553
0.4950015514
0.4997909227
0.5051518816
0.5062286193
0.5038287305
0.5043834968
0.5091958632
0.5133458947
0.5131009334
0.5195881954
)
;
    }
    inlet
    {
        type            calculated;
        value           nonuniform List<scalar> 5(0.007381020669 0.00710435196 0.007764621296 0.007512515178 0.007543276245);
    }
    outlet
    {
        type            calculated;
        value           nonuniform List<scalar> 5(0.5190247771 0.5197609343 0.5211647046 0.5232061575 0.5195881954);
    }
    back
    {
        type            symmetry;
    }
    front
    {
        type            symmetry;
    }
}


// ************************************************************************* //
