/*--------------------------------*- C++ -*----------------------------------*\
| =========                 |                                                 |
| \\      /  F ield         | OpenFOAM: The Open Source CFD Toolbox           |
|  \\    /   O peration     | Version:  v1706                                 |
|   \\  /    A nd           | Web:      www.OpenFOAM.com                      |
|    \\/     M anipulation  |                                                 |
\*---------------------------------------------------------------------------*/
FoamFile
{
    version     2.0;
    format      ascii;
    class       volScalarField;
    location    "0.55";
    object      rhoM_Ar2;
}
// * * * * * * * * * * * * * * * * * * * * * * * * * * * * * * * * * * * * * //

dimensions      [1 -3 0 0 0 0 0];


internalField   nonuniform List<scalar> 
1000
(
1.40152896e-07
1.92089664e-07
2.50804944e-07
3.11429664e-07
3.4322184e-07
3.90862368e-07
4.36211568e-07
5.18317488e-07
5.63093856e-07
5.85147888e-07
6.18467616e-07
6.57706608e-07
7.30265328e-07
7.48882368e-07
7.8430248e-07
8.53328736e-07
8.65740096e-07
9.07556832e-07
9.68467968e-07
1.005606576e-06
1.012194144e-06
1.066517712e-06
1.112535216e-06
1.184998464e-06
1.26786816e-06
1.299660336e-06
1.348446528e-06
1.36906848e-06
1.431793584e-06
1.504543248e-06
1.537481088e-06
1.545500736e-06
1.58053896e-06
1.661499216e-06
1.701501984e-06
1.74666024e-06
1.775970144e-06
1.826188416e-06
1.889199936e-06
1.978370784e-06
1.994028192e-06
2.02018752e-06
2.087399808e-06
2.146115088e-06
2.22879384e-06
2.245883328e-06
2.28225816e-06
2.326270752e-06
2.364077664e-06
2.438545824e-06
2.469956112e-06
2.559508848e-06
2.570201712e-06
2.557122048e-06
2.611063728e-06
2.647629504e-06
2.724007104e-06
2.768688e-06
2.799334512e-06
2.847356928e-06
2.938246272e-06
2.933950032e-06
3.00450384e-06
3.0455568e-06
3.104176608e-06
3.116587968e-06
3.153249216e-06
3.200125968e-06
3.220079616e-06
3.291015312e-06
3.356127216e-06
3.385055232e-06
3.51002808e-06
3.516042816e-06
3.529981728e-06
3.649512672e-06
3.653904384e-06
3.696771312e-06
3.665838384e-06
3.685123728e-06
3.770571168e-06
3.762837936e-06
3.845803104e-06
3.8857104e-06
4.01364288e-06
4.004859456e-06
4.029968592e-06
4.092120864e-06
4.156278048e-06
4.216425408e-06
4.289938848e-06
4.348654128e-06
4.357914912e-06
4.381782912e-06
4.523081472e-06
4.530337344e-06
4.577691456e-06
4.600986624e-06
4.702759776e-06
4.718608128e-06
4.694167296e-06
4.748013504e-06
4.84854552e-06
4.82038128e-06
4.89437208e-06
4.90917024e-06
5.035766112e-06
5.083502112e-06
5.06049336e-06
5.067462816e-06
5.129806032e-06
5.193963216e-06
5.178305808e-06
5.254874352e-06
5.294590704e-06
5.32447344e-06
5.410111824e-06
5.445150048e-06
5.578715376e-06
5.605924896e-06
5.5803384e-06
5.600578464e-06
5.666072256e-06
5.676574176e-06
5.7139992e-06
5.825033136e-06
5.811762528e-06
5.831047872e-06
5.865226848e-06
5.921746272e-06
6.00948504e-06
6.07297392e-06
6.113167632e-06
6.11402688e-06
6.126629184e-06
6.143336784e-06
6.234608016e-06
6.241768416e-06
6.298956144e-06
6.35509368e-06
6.449324544e-06
6.451424928e-06
6.409226304e-06
6.504889248e-06
6.51405456e-06
6.564081888e-06
6.665186736e-06
6.737840928e-06
6.792450912e-06
6.936804576e-06
6.905776176e-06
6.890882544e-06
7.015568976e-06
7.05012984e-06
7.05633552e-06
7.173575136e-06
7.24346064e-06
7.166223792e-06
7.207754112e-06
7.345806624e-06
7.361082144e-06
7.428103488e-06
7.420465728e-06
7.510400352e-06
7.565869584e-06
7.569783936e-06
7.568447328e-06
7.660864224e-06
7.739533152e-06
7.794620496e-06
7.797102768e-06
7.831663632e-06
7.871761872e-06
7.896871008e-06
7.930477152e-06
7.961505552e-06
8.08265952e-06
8.161232976e-06
8.068147776e-06
8.141183856e-06
8.23636944e-06
8.294798304e-06
8.266347648e-06
8.346544128e-06
8.45929656e-06
8.497389888e-06
8.571094272e-06
8.459964864e-06
8.612624592e-06
8.714588688e-06
8.725472496e-06
8.737788384e-06
8.730627984e-06
8.87078088e-06
8.879468832e-06
8.891498304e-06
9.032987808e-06
8.956610208e-06
9.072513216e-06
9.112038624e-06
1.3700232e-07
2.01350448e-07
2.50041168e-07
2.97108864e-07
3.59165664e-07
3.99263904e-07
4.51868976e-07
5.00368752e-07
5.39512272e-07
5.82283728e-07
6.19231392e-07
6.59806992e-07
7.09261488e-07
7.63871472e-07
7.97477616e-07
8.3442528e-07
8.37575856e-07
9.10230048e-07
9.6235776e-07
1.003792608e-06
1.041217632e-06
1.097641584e-06
1.14136776e-06
1.183089024e-06
1.257461712e-06
1.304433936e-06
1.359903168e-06
1.39818744e-06
1.485830736e-06
1.504543248e-06
1.523637648e-06
1.58197104e-06
1.635817248e-06
1.658921472e-06
1.693004976e-06
1.754298e-06
1.782271296e-06
1.84977e-06
1.882516896e-06
1.931971392e-06
1.987822512e-06
2.029639248e-06
2.075943168e-06
2.144683008e-06
2.18010312e-06
2.249988624e-06
2.284072128e-06
2.324074896e-06
2.339064e-06
2.427280128e-06
2.439118656e-06
2.456399088e-06
2.546142768e-06
2.553685056e-06
2.661854832e-06
2.652594048e-06
2.683526976e-06
2.794560912e-06
2.831604048e-06
2.837236896e-06
2.927076048e-06
2.972425248e-06
3.021975216e-06
3.050139456e-06
3.091192416e-06
3.066656112e-06
3.10236264e-06
3.20499504e-06
3.215306016e-06
3.310682544e-06
3.345243408e-06
3.380090688e-06
3.484537056e-06
3.508977888e-06
3.503249568e-06
3.593375136e-06
3.634046208e-06
3.659346288e-06
3.672998784e-06
3.697344144e-06
3.787947072e-06
3.889242864e-06
3.849621984e-06
3.915115776e-06
3.985574112e-06
4.00409568e-06
4.05087696e-06
4.104245808e-06
4.190647968e-06
4.234851504e-06
4.31628912e-06
4.361542848e-06
4.40078184e-06
4.451668416e-06
4.521649392e-06
4.560792912e-06
4.546472112e-06
4.592871504e-06
4.586856768e-06
4.70295072e-06
4.725100224e-06
4.762047888e-06
4.833460944e-06
4.85331912e-06
4.891889808e-06
4.97218176e-06
4.964734944e-06
4.968171936e-06
4.982015376e-06
5.0671764e-06
5.113766736e-06
5.11157088e-06
5.22756936e-06
5.237307504e-06
5.313876048e-06
5.363044128e-06
5.358747888e-06
5.424528096e-06
5.473600704e-06
5.523150672e-06
5.54835528e-06
5.602392432e-06
5.662157904e-06
5.70492936e-06
5.748464592e-06
5.785507728e-06
5.787321696e-06
5.802597216e-06
5.886517104e-06
5.947619184e-06
6.006429936e-06
6.101042688e-06
6.088344912e-06
6.1531704e-06
6.157753056e-06
6.196323744e-06
6.285494592e-06
6.299433504e-06
6.2796708e-06
6.407985168e-06
6.367600512e-06
6.3751428e-06
6.45486192e-06
6.531144048e-06
6.562936224e-06
6.63148512e-06
6.659267472e-06
6.716741616e-06
6.76801008e-06
6.868923984e-06
6.954562368e-06
6.943392144e-06
6.968405808e-06
6.967164672e-06
7.006499136e-06
7.131949344e-06
7.150661856e-06
7.211095632e-06
7.190855568e-06
7.273247904e-06
7.3083816e-06
7.418365344e-06
7.485673104e-06
7.505626752e-06
7.525007568e-06
7.572743568e-06
7.532931744e-06
7.683968448e-06
7.765024176e-06
7.783736688e-06
7.790324256e-06
7.86020976e-06
7.795384272e-06
7.832618352e-06
7.92274392e-06
7.967233872e-06
8.035591824e-06
8.160087312e-06
8.090870112e-06
8.106813936e-06
8.18242776e-06
8.270643888e-06
8.335564848e-06
8.384064624e-06
8.547512688e-06
8.523835632e-06
8.5041684e-06
8.523071856e-06
8.6593104e-06
8.539397568e-06
8.684228592e-06
8.805764448e-06
8.78485608e-06
8.82686376e-06
8.89369416e-06
8.916416496e-06
9.002436768e-06
9.062488656e-06
9.067166784e-06
9.127505088e-06
1.44831024e-07
1.92280608e-07
2.47081536e-07
3.05414928e-07
3.61075104e-07
3.97354464e-07
4.54828608e-07
4.76691696e-07
5.2796016e-07
5.72641056e-07
6.1722648e-07
6.42144672e-07
7.06588272e-07
7.55374464e-07
7.97286672e-07
8.37384912e-07
8.86266576e-07
9.40781088e-07
9.82788768e-07
1.03252968e-06
1.071577728e-06
1.125996768e-06
1.146427776e-06
1.229488416e-06
1.277988192e-06
1.294409376e-06
1.361621664e-06
1.385107776e-06
1.45642536e-06
1.463681232e-06
1.515331584e-06
1.572519312e-06
1.61204472e-06
1.656821088e-06
1.67457888e-06
1.710571824e-06
1.80967176e-06
1.836117504e-06
1.870869312e-06
1.957939776e-06
1.954598256e-06
2.017227888e-06
2.044341936e-06
2.12472936e-06
2.158908336e-06
2.241300672e-06
2.317296384e-06
2.312522784e-06
2.400929856e-06
2.38823208e-06
2.411431776e-06
2.503180368e-06
2.558076768e-06
2.601707472e-06
2.622424896e-06
2.608008624e-06
2.720188224e-06
2.785491072e-06
2.824348176e-06
2.844683712e-06
2.960204832e-06
2.954953872e-06
3.003740064e-06
3.07515312e-06
3.09233808e-06
3.104081136e-06
3.16680624e-06
3.179408544e-06
3.24986688e-06
3.298653072e-06
3.34247472e-06
3.398134896e-06
3.428972352e-06
3.518906976e-06
3.540865536e-06
3.602922336e-06
3.643116048e-06
3.722835168e-06
3.725699328e-06
3.73486464e-06
3.807614304e-06
3.886283232e-06
3.91148784e-06
3.919316544e-06
3.959319312e-06
3.989011104e-06
3.98500128e-06
4.094889552e-06
4.172030928e-06
4.214229552e-06
4.267884816e-06
4.32058536e-06
4.39696296e-06
4.374622512e-06
4.435724592e-06
4.516684848e-06
4.571485776e-06
4.608051552e-06
4.651777728e-06
4.679273664e-06
4.689775584e-06
4.73397912e-06
4.7234772e-06
4.819235616e-06
4.883965632e-06
4.922918208e-06
4.943158272e-06
4.944590352e-06
5.037198192e-06
5.076437184e-06
5.081306256e-06
5.153483088e-06
5.235111648e-06
5.275114416e-06
5.2437996e-06
5.30728848e-06
5.374691712e-06
5.441044752e-06
5.549596416e-06
5.591031264e-06
5.613658128e-06
5.61279888e-06
5.6591028e-06
5.626260432e-06
5.726315088e-06
5.744932128e-06
5.7927636e-06
5.827897296e-06
5.869523088e-06
5.98084344e-06
6.051683664e-06
6.083093952e-06
6.058939536e-06
6.13741752e-06
6.118036704e-06
6.184389744e-06
6.24195936e-06
6.264968112e-06
6.345451008e-06
6.43529016e-06
6.403497984e-06
6.364927296e-06
6.441686784e-06
6.563795472e-06
6.629957568e-06
6.66012672e-06
6.688863792e-06
6.741850752e-06
6.78662712e-06
6.847156368e-06
6.888877632e-06
6.982917552e-06
6.9957108e-06
7.034567904e-06
7.126698384e-06
7.118105904e-06
7.171570224e-06
7.204985424e-06
7.199352576e-06
7.273247904e-06
7.395070176e-06
7.351248528e-06
7.402516992e-06
7.4993256e-06
7.439464656e-06
7.54897104e-06
7.552217088e-06
7.638332832e-06
7.680054096e-06
7.735905216e-06
7.724830464e-06
7.807604688e-06
7.888660416e-06
7.961028192e-06
7.993011312e-06
8.023371408e-06
8.046475632e-06
8.110155456e-06
8.107291296e-06
8.189015328e-06
8.235128304e-06
8.273985408e-06
8.372321568e-06
8.448412752e-06
8.474476608e-06
8.524312992e-06
8.537392656e-06
8.561260656e-06
8.581596192e-06
8.59629888e-06
8.655682464e-06
8.779223232e-06
8.73473328e-06
8.79822216e-06
8.866293696e-06
8.951550192e-06
8.968926096e-06
9.042725952e-06
9.04692672e-06
9.10659672e-06
1.455948e-07
1.97054208e-07
2.52237024e-07
2.99209248e-07
3.35202192e-07
3.94108416e-07
4.39553088e-07
4.84233984e-07
5.26146192e-07
5.7378672e-07
5.9622264e-07
6.56274528e-07
7.10025264e-07
7.68645072e-07
7.7761944e-07
8.32133952e-07
8.85407328e-07
9.47846016e-07
1.002646944e-06
1.019545488e-06
1.09363176e-06
1.135066608e-06
1.174210128e-06
1.197314352e-06
1.229488416e-06
1.28982672e-06
1.363149216e-06
1.391217984e-06
1.426924512e-06
1.453274784e-06
1.521155376e-06
1.5609672e-06
1.593714096e-06
1.6373448e-06
1.699497072e-06
1.711717488e-06
1.795446432e-06
1.823228784e-06
1.892541456e-06
1.945242e-06
1.958321664e-06
2.025343008e-06
2.067350688e-06
2.138286384e-06
2.120242176e-06
2.222206272e-06
2.286458928e-06
2.320065072e-06
2.395583424e-06
2.413341216e-06
2.425370688e-06
2.471197248e-06
2.554639776e-06
2.61641016e-06
2.6183196e-06
2.606290128e-06
2.712073104e-06
2.763341568e-06
2.794274496e-06
2.864541888e-06
2.91857904e-06
2.957340672e-06
2.991233232e-06
3.059113824e-06
3.069233856e-06
3.160982448e-06
3.173871168e-06
3.252826512e-06
3.264569568e-06
3.306768192e-06
3.381236352e-06
3.417802128e-06
3.453604128e-06
3.485109888e-06
3.570843744e-06
3.609891792e-06
3.656673072e-06
3.698298864e-06
3.7425024e-06
3.713669856e-06
3.761692272e-06
3.824703792e-06
3.83654232e-06
3.914161056e-06
3.963711024e-06
3.986815248e-06
4.036938048e-06
4.097753712e-06
4.156659936e-06
4.2222492e-06
4.276095408e-06
4.31199288e-06
4.410710928e-06
4.433528736e-06
4.477827744e-06
4.476777552e-06
4.569862752e-06
4.55687856e-06
4.641657696e-06
4.658269824e-06
4.701232224e-06
4.75641504e-06
4.739421024e-06
4.816848816e-06
4.83756624e-06
4.91394384e-06
4.935329568e-06
4.9740912e-06
4.969031184e-06
5.060588832e-06
5.066126208e-06
5.13018792e-06
5.221936512e-06
5.193103968e-06
5.29439976e-06
5.317981344e-06
5.371923024e-06
5.42710584e-06
5.509784592e-06
5.533939008e-06
5.635043856e-06
5.616522288e-06
5.672182464e-06
5.582534256e-06
5.715526752e-06
5.812239888e-06
5.772332592e-06
5.811762528e-06
5.938549344e-06
5.984853264e-06
5.971964544e-06
5.978074752e-06
6.055216128e-06
6.057984816e-06
6.110494416e-06
6.178088592e-06
6.292177632e-06
6.314899968e-06
6.336763056e-06
6.30449352e-06
6.356143872e-06
6.449229072e-06
6.543555408e-06
6.522360624e-06
6.634635696e-06
6.692491728e-06
6.699843072e-06
6.7355496e-06
6.825006864e-06
6.851261664e-06
6.929739648e-06
6.954944256e-06
6.963154848e-06
7.054712496e-06
7.155721872e-06
7.132044816e-06
7.233531552e-06
7.229999088e-06
7.245083664e-06
7.261791264e-06
7.44108768e-06
7.384663728e-06
7.384472784e-06
7.411014e-06
7.544101968e-06
7.60386744e-06
7.542956304e-06
7.652653632e-06
7.721011584e-06
7.724544048e-06
7.738578432e-06
7.838537616e-06
7.896298176e-06
7.944893424e-06
7.950048912e-06
8.027572176e-06
8.083900656e-06
8.10700488e-06
8.129727216e-06
8.185482864e-06
8.201140272e-06
8.338142592e-06
8.370698544e-06
8.426263248e-06
8.511137856e-06
8.518775616e-06
8.428172688e-06
8.563742928e-06
8.583982992e-06
8.713156608e-06
8.691484464e-06
8.774258688e-06
8.798604048e-06
8.802422928e-06
8.81588448e-06
8.899804368e-06
8.963770608e-06
9.008546976e-06
9.063729792e-06
9.097431408e-06
1.41012144e-07
1.97722512e-07
2.577744e-07
3.03314544e-07
3.49522992e-07
3.96972576e-07
4.32583632e-07
5.08006512e-07
5.36934528e-07
5.5421496e-07
5.97750192e-07
6.57611136e-07
6.89116896e-07
7.40480832e-07
8.18576928e-07
8.40440016e-07
9.0077832e-07
9.30088224e-07
9.80211024e-07
1.02536928e-06
1.086757776e-06
1.142895312e-06
1.172109744e-06
1.202851728e-06
1.254311136e-06
1.310162256e-06
1.330593264e-06
1.391408928e-06
1.423678464e-06
1.469600496e-06
1.546837344e-06
1.568891376e-06
1.59820128e-06
1.65309768e-06
1.711622016e-06
1.735299072e-06
1.7877132e-06
1.82781144e-06
1.926529488e-06
1.940754816e-06
2.000806704e-06
2.000424816e-06
2.065154832e-06
2.165209488e-06
2.211895296e-06
2.237959152e-06
2.293428384e-06
2.308131072e-06
2.333908512e-06
2.408376672e-06
2.461554576e-06
2.489623344e-06
2.575166256e-06
2.574784368e-06
2.635218144e-06
2.67464808e-06
2.707490448e-06
2.746156608e-06
2.78444088e-06
2.877812496e-06
2.871893232e-06
2.950275744e-06
3.017297088e-06
3.06321912e-06
3.104940384e-06
3.185709696e-06
3.197548224e-06
3.245188752e-06
3.238505712e-06
3.318797664e-06
3.384291456e-06
3.418756848e-06
3.504204288e-06
3.51002808e-06
3.582300384e-06
3.618006912e-06
3.6255492e-06
3.70860984e-06
3.699253584e-06
3.726081216e-06
3.748899024e-06
3.829668336e-06
3.893539104e-06
3.903563664e-06
3.980323152e-06
3.991588848e-06
4.04944488e-06
4.147971984e-06
4.127636448e-06
4.160765232e-06
4.2222492e-06
4.313711376e-06
4.347985824e-06
4.375290816e-06
4.456728432e-06
4.486611168e-06
4.48431984e-06
4.591534896e-06
4.631728608e-06
4.663711728e-06
4.744671984e-06
4.770640368e-06
4.768253568e-06
4.859429328e-06
4.868212752e-06
4.893226416e-06
4.936952592e-06
4.991085216e-06
5.04760464e-06
5.108611248e-06
5.112334656e-06
5.129901504e-06
5.224036896e-06
5.330297232e-06
5.235875424e-06
5.33020176e-06
5.424528096e-06
5.40180576e-06
5.578047072e-06
5.529833712e-06
5.60086488e-06
5.685071184e-06
5.672086992e-06
5.736053232e-06
5.739108336e-06
5.823028224e-06
5.84145432e-06
5.807370816e-06
5.880025008e-06
6.0051888e-06
5.954015808e-06
6.050347056e-06
6.05006064e-06
6.001942752e-06
6.08824944e-06
6.162813072e-06
6.2390952e-06
6.28778592e-06
6.283776096e-06
6.262581312e-06
6.364927296e-06
6.405884784e-06
6.515868528e-06
6.503457168e-06
6.57611136e-06
6.601220496e-06
6.671296944e-06
6.743855664e-06
6.80142528e-06
6.825579696e-06
6.932794752e-06
6.932508336e-06
6.973847712e-06
7.029221472e-06
7.12125648e-06
7.154576208e-06
7.21863792e-06
7.23630024e-06
7.205080896e-06
7.363278e-06
7.351916832e-06
7.418078928e-06
7.437841632e-06
7.41960648e-06
7.552598976e-06
7.580190384e-06
7.595943264e-06
7.628403744e-06
7.682536368e-06
7.782781968e-06
7.77428496e-06
7.889615136e-06
7.918161264e-06
7.859159568e-06
7.838824032e-06
7.912528416e-06
8.073780624e-06
8.073876096e-06
8.123998896e-06
8.235223776e-06
8.219279952e-06
8.239615488e-06
8.345016576e-06
8.410510368e-06
8.55047232e-06
8.50034952e-06
8.492998176e-06
8.5853196e-06
8.633342016e-06
8.63353296e-06
8.650908864e-06
8.71611624e-06
8.762992992e-06
8.87937336e-06
8.889779808e-06
8.877082032e-06
8.935319952e-06
9.001195632e-06
9.085306464e-06
9.17104032e-06
)
;

boundaryField
{
    bottom
    {
        type            calculated;
        value           nonuniform List<scalar> 
200
(
1.40152896e-07
1.92089664e-07
2.50804944e-07
3.11429664e-07
3.4322184e-07
3.90862368e-07
4.36211568e-07
5.18317488e-07
5.63093856e-07
5.85147888e-07
6.18467616e-07
6.57706608e-07
7.30265328e-07
7.48882368e-07
7.8430248e-07
8.53328736e-07
8.65740096e-07
9.07556832e-07
9.68467968e-07
1.005606576e-06
1.012194144e-06
1.066517712e-06
1.112535216e-06
1.184998464e-06
1.26786816e-06
1.299660336e-06
1.348446528e-06
1.36906848e-06
1.431793584e-06
1.504543248e-06
1.537481088e-06
1.545500736e-06
1.58053896e-06
1.661499216e-06
1.701501984e-06
1.74666024e-06
1.775970144e-06
1.826188416e-06
1.889199936e-06
1.978370784e-06
1.994028192e-06
2.02018752e-06
2.087399808e-06
2.146115088e-06
2.22879384e-06
2.245883328e-06
2.28225816e-06
2.326270752e-06
2.364077664e-06
2.438545824e-06
2.469956112e-06
2.559508848e-06
2.570201712e-06
2.557122048e-06
2.611063728e-06
2.647629504e-06
2.724007104e-06
2.768688e-06
2.799334512e-06
2.847356928e-06
2.938246272e-06
2.933950032e-06
3.00450384e-06
3.0455568e-06
3.104176608e-06
3.116587968e-06
3.153249216e-06
3.200125968e-06
3.220079616e-06
3.291015312e-06
3.356127216e-06
3.385055232e-06
3.51002808e-06
3.516042816e-06
3.529981728e-06
3.649512672e-06
3.653904384e-06
3.696771312e-06
3.665838384e-06
3.685123728e-06
3.770571168e-06
3.762837936e-06
3.845803104e-06
3.8857104e-06
4.01364288e-06
4.004859456e-06
4.029968592e-06
4.092120864e-06
4.156278048e-06
4.216425408e-06
4.289938848e-06
4.348654128e-06
4.357914912e-06
4.381782912e-06
4.523081472e-06
4.530337344e-06
4.577691456e-06
4.600986624e-06
4.702759776e-06
4.718608128e-06
4.694167296e-06
4.748013504e-06
4.84854552e-06
4.82038128e-06
4.89437208e-06
4.90917024e-06
5.035766112e-06
5.083502112e-06
5.06049336e-06
5.067462816e-06
5.129806032e-06
5.193963216e-06
5.178305808e-06
5.254874352e-06
5.294590704e-06
5.32447344e-06
5.410111824e-06
5.445150048e-06
5.578715376e-06
5.605924896e-06
5.5803384e-06
5.600578464e-06
5.666072256e-06
5.676574176e-06
5.7139992e-06
5.825033136e-06
5.811762528e-06
5.831047872e-06
5.865226848e-06
5.921746272e-06
6.00948504e-06
6.07297392e-06
6.113167632e-06
6.11402688e-06
6.126629184e-06
6.143336784e-06
6.234608016e-06
6.241768416e-06
6.298956144e-06
6.35509368e-06
6.449324544e-06
6.451424928e-06
6.409226304e-06
6.504889248e-06
6.51405456e-06
6.564081888e-06
6.665186736e-06
6.737840928e-06
6.792450912e-06
6.936804576e-06
6.905776176e-06
6.890882544e-06
7.015568976e-06
7.05012984e-06
7.05633552e-06
7.173575136e-06
7.24346064e-06
7.166223792e-06
7.207754112e-06
7.345806624e-06
7.361082144e-06
7.428103488e-06
7.420465728e-06
7.510400352e-06
7.565869584e-06
7.569783936e-06
7.568447328e-06
7.660864224e-06
7.739533152e-06
7.794620496e-06
7.797102768e-06
7.831663632e-06
7.871761872e-06
7.896871008e-06
7.930477152e-06
7.961505552e-06
8.08265952e-06
8.161232976e-06
8.068147776e-06
8.141183856e-06
8.23636944e-06
8.294798304e-06
8.266347648e-06
8.346544128e-06
8.45929656e-06
8.497389888e-06
8.571094272e-06
8.459964864e-06
8.612624592e-06
8.714588688e-06
8.725472496e-06
8.737788384e-06
8.730627984e-06
8.87078088e-06
8.879468832e-06
8.891498304e-06
9.032987808e-06
8.956610208e-06
9.072513216e-06
9.112038624e-06
)
;
    }
    top
    {
        type            calculated;
        value           nonuniform List<scalar> 
200
(
1.41012144e-07
1.97722512e-07
2.577744e-07
3.03314544e-07
3.49522992e-07
3.96972576e-07
4.32583632e-07
5.08006512e-07
5.36934528e-07
5.5421496e-07
5.97750192e-07
6.57611136e-07
6.89116896e-07
7.40480832e-07
8.18576928e-07
8.40440016e-07
9.0077832e-07
9.30088224e-07
9.80211024e-07
1.02536928e-06
1.086757776e-06
1.142895312e-06
1.172109744e-06
1.202851728e-06
1.254311136e-06
1.310162256e-06
1.330593264e-06
1.391408928e-06
1.423678464e-06
1.469600496e-06
1.546837344e-06
1.568891376e-06
1.59820128e-06
1.65309768e-06
1.711622016e-06
1.735299072e-06
1.7877132e-06
1.82781144e-06
1.926529488e-06
1.940754816e-06
2.000806704e-06
2.000424816e-06
2.065154832e-06
2.165209488e-06
2.211895296e-06
2.237959152e-06
2.293428384e-06
2.308131072e-06
2.333908512e-06
2.408376672e-06
2.461554576e-06
2.489623344e-06
2.575166256e-06
2.574784368e-06
2.635218144e-06
2.67464808e-06
2.707490448e-06
2.746156608e-06
2.78444088e-06
2.877812496e-06
2.871893232e-06
2.950275744e-06
3.017297088e-06
3.06321912e-06
3.104940384e-06
3.185709696e-06
3.197548224e-06
3.245188752e-06
3.238505712e-06
3.318797664e-06
3.384291456e-06
3.418756848e-06
3.504204288e-06
3.51002808e-06
3.582300384e-06
3.618006912e-06
3.6255492e-06
3.70860984e-06
3.699253584e-06
3.726081216e-06
3.748899024e-06
3.829668336e-06
3.893539104e-06
3.903563664e-06
3.980323152e-06
3.991588848e-06
4.04944488e-06
4.147971984e-06
4.127636448e-06
4.160765232e-06
4.2222492e-06
4.313711376e-06
4.347985824e-06
4.375290816e-06
4.456728432e-06
4.486611168e-06
4.48431984e-06
4.591534896e-06
4.631728608e-06
4.663711728e-06
4.744671984e-06
4.770640368e-06
4.768253568e-06
4.859429328e-06
4.868212752e-06
4.893226416e-06
4.936952592e-06
4.991085216e-06
5.04760464e-06
5.108611248e-06
5.112334656e-06
5.129901504e-06
5.224036896e-06
5.330297232e-06
5.235875424e-06
5.33020176e-06
5.424528096e-06
5.40180576e-06
5.578047072e-06
5.529833712e-06
5.60086488e-06
5.685071184e-06
5.672086992e-06
5.736053232e-06
5.739108336e-06
5.823028224e-06
5.84145432e-06
5.807370816e-06
5.880025008e-06
6.0051888e-06
5.954015808e-06
6.050347056e-06
6.05006064e-06
6.001942752e-06
6.08824944e-06
6.162813072e-06
6.2390952e-06
6.28778592e-06
6.283776096e-06
6.262581312e-06
6.364927296e-06
6.405884784e-06
6.515868528e-06
6.503457168e-06
6.57611136e-06
6.601220496e-06
6.671296944e-06
6.743855664e-06
6.80142528e-06
6.825579696e-06
6.932794752e-06
6.932508336e-06
6.973847712e-06
7.029221472e-06
7.12125648e-06
7.154576208e-06
7.21863792e-06
7.23630024e-06
7.205080896e-06
7.363278e-06
7.351916832e-06
7.418078928e-06
7.437841632e-06
7.41960648e-06
7.552598976e-06
7.580190384e-06
7.595943264e-06
7.628403744e-06
7.682536368e-06
7.782781968e-06
7.77428496e-06
7.889615136e-06
7.918161264e-06
7.859159568e-06
7.838824032e-06
7.912528416e-06
8.073780624e-06
8.073876096e-06
8.123998896e-06
8.235223776e-06
8.219279952e-06
8.239615488e-06
8.345016576e-06
8.410510368e-06
8.55047232e-06
8.50034952e-06
8.492998176e-06
8.5853196e-06
8.633342016e-06
8.63353296e-06
8.650908864e-06
8.71611624e-06
8.762992992e-06
8.87937336e-06
8.889779808e-06
8.877082032e-06
8.935319952e-06
9.001195632e-06
9.085306464e-06
9.17104032e-06
)
;
    }
    inlet
    {
        type            calculated;
        value           nonuniform List<scalar> 5(1.40152896e-07 1.3700232e-07 1.44831024e-07 1.455948e-07 1.41012144e-07);
    }
    outlet
    {
        type            calculated;
        value           nonuniform List<scalar> 5(9.112038624e-06 9.127505088e-06 9.10659672e-06 9.097431408e-06 9.17104032e-06);
    }
    back
    {
        type            symmetry;
    }
    front
    {
        type            symmetry;
    }
}


// ************************************************************************* //
