/*--------------------------------*- C++ -*----------------------------------*\
| =========                 |                                                 |
| \\      /  F ield         | OpenFOAM: The Open Source CFD Toolbox           |
|  \\    /   O peration     | Version:  v1706                                 |
|   \\  /    A nd           | Web:      www.OpenFOAM.com                      |
|    \\/     M anipulation  |                                                 |
\*---------------------------------------------------------------------------*/
FoamFile
{
    version     2.0;
    format      ascii;
    class       volScalarField;
    location    "0.55";
    object      rhoM_Ar1;
}
// * * * * * * * * * * * * * * * * * * * * * * * * * * * * * * * * * * * * * //

dimensions      [1 -3 0 0 0 0 0];


internalField   nonuniform List<scalar> 
1000
(
9.16960824e-06
9.111561264e-06
9.032796864e-06
8.870876352e-06
8.959474368e-06
8.919758016e-06
8.868680496e-06
8.81588448e-06
8.813402208e-06
8.855600832e-06
8.750199744e-06
8.69177088e-06
8.632673712e-06
8.526413376e-06
8.496435168e-06
8.466838848e-06
8.537201712e-06
8.506937088e-06
8.364588336e-06
8.310646656e-06
8.283055248e-06
8.2201392e-06
8.184146256e-06
8.145002736e-06
8.076644784e-06
8.086287456e-06
7.958832336e-06
7.879686048e-06
7.822211904e-06
7.767697392e-06
7.71604704e-06
7.751467152e-06
7.611696144e-06
7.551930672e-06
7.527298896e-06
7.643679264e-06
7.497702576e-06
7.419320064e-06
7.461232272e-06
7.392301488e-06
7.317355968e-06
7.248138768e-06
7.22341152e-06
7.108654176e-06
7.151712048e-06
7.216537536e-06
7.195820112e-06
7.047074736e-06
6.977953008e-06
6.977953008e-06
6.890500656e-06
6.826916304e-06
6.760467792e-06
6.773070096e-06
6.757412688e-06
6.646665168e-06
6.594919344e-06
6.478061616e-06
6.45008832e-06
6.422210496e-06
6.392900592e-06
6.316522992e-06
6.25246128e-06
6.305066352e-06
6.2319348e-06
6.228306864e-06
6.14982888e-06
6.166441008e-06
6.173028576e-06
6.061135392e-06
5.920600608e-06
5.916972672e-06
5.83668072e-06
5.802597216e-06
5.79467304e-06
5.785030368e-06
5.773382784e-06
5.727651696e-06
5.719536576e-06
5.536230336e-06
5.587116912e-06
5.54596848e-06
5.501383056e-06
5.4323568e-06
5.315308128e-06
5.34452256e-06
5.269863456e-06
5.191576416e-06
5.155392528e-06
5.116917312e-06
5.093717616e-06
4.99604976e-06
4.957479072e-06
4.927023504e-06
4.846731552e-06
4.774459248e-06
4.715648496e-06
4.731496848e-06
4.721472288e-06
4.651300368e-06
4.604710032e-06
4.567189536e-06
4.580173728e-06
4.473149616e-06
4.389420672e-06
4.323831408e-06
4.262251968e-06
4.228836768e-06
4.2389568e-06
4.166970912e-06
4.130405136e-06
4.141479888e-06
4.068348336e-06
3.996744336e-06
3.947958144e-06
3.95445024e-06
3.895544016e-06
3.903563664e-06
3.818689056e-06
3.7496628e-06
3.698680752e-06
3.656959488e-06
3.554995392e-06
3.587169456e-06
3.517761312e-06
3.409591536e-06
3.3797088e-06
3.362714784e-06
3.344288688e-06
3.267624672e-06
3.170529648e-06
3.18208176e-06
3.148762032e-06
3.058827408e-06
3.018920112e-06
3.01118688e-06
2.952376128e-06
2.872466064e-06
2.87036568e-06
2.834945568e-06
2.770979328e-06
2.78491824e-06
2.70233496e-06
2.624238864e-06
2.592255744e-06
2.560463568e-06
2.50232112e-06
2.460981744e-06
2.464227792e-06
2.366655408e-06
2.3295168e-06
2.240059536e-06
2.231371584e-06
2.138477328e-06
2.194042032e-06
2.117473488e-06
2.093605488e-06
2.019996576e-06
2.044723824e-06
1.970255664e-06
1.911540384e-06
1.863899856e-06
1.835067312e-06
1.79153208e-06
1.777879584e-06
1.69653744e-06
1.650615408e-06
1.624647024e-06
1.600683552e-06
1.512849312e-06
1.501488144e-06
1.425969792e-06
1.416231648e-06
1.344054816e-06
1.297846368e-06
1.270923264e-06
1.226719728e-06
1.131152256e-06
1.08217512e-06
1.037494224e-06
1.002265056e-06
9.34002576e-07
9.09561744e-07
8.67458592e-07
8.51037408e-07
7.84111536e-07
7.46018208e-07
6.93317664e-07
6.36893712e-07
6.12643824e-07
5.7187728e-07
5.1172992e-07
4.54351248e-07
4.18071888e-07
3.74918544e-07
3.37779936e-07
2.9882736e-07
2.50327584e-07
2.00873088e-07
1.43780832e-07
9.080532864e-06
9.132278688e-06
9.081869472e-06
9.046353888e-06
8.97723216e-06
8.916893856e-06
8.87985072e-06
8.857510272e-06
8.873358624e-06
8.784187776e-06
8.703991296e-06
8.656350768e-06
8.616634416e-06
8.546367024e-06
8.487269856e-06
8.510087664e-06
8.4468852e-06
8.4922344e-06
8.37623592e-06
8.341102224e-06
8.212883328e-06
8.230545648e-06
8.148344256e-06
8.095930128e-06
8.040365424e-06
8.02633104e-06
8.013060432e-06
7.924271472e-06
7.81486056e-06
7.773139296e-06
7.734377664e-06
7.670793312e-06
7.707550032e-06
7.636518864e-06
7.631649792e-06
7.578185472e-06
7.489396512e-06
7.496079552e-06
7.534554768e-06
7.421706864e-06
7.355735712e-06
7.269429024e-06
7.206417504e-06
7.11648288e-06
7.113236832e-06
7.030939968e-06
7.052230224e-06
7.002298368e-06
6.958381248e-06
6.934417776e-06
6.865105104e-06
6.878375712e-06
6.755980608e-06
6.683899248e-06
6.680557728e-06
6.661176912e-06
6.606948816e-06
6.4706148e-06
6.491045808e-06
6.415431984e-06
6.407316864e-06
6.355857456e-06
6.321487536e-06
6.293323296e-06
6.261722064e-06
6.257903184e-06
6.1388496e-06
6.129111456e-06
6.14505528e-06
6.082234704e-06
5.976165312e-06
5.92308288e-06
5.872100832e-06
5.819400288e-06
5.841740736e-06
5.764503888e-06
5.709034656e-06
5.679438336e-06
5.658720912e-06
5.55074208e-06
5.569454592e-06
5.550073776e-06
5.46959088e-06
5.363903376e-06
5.37220944e-06
5.305474512e-06
5.316453792e-06
5.21945424e-06
5.134102272e-06
5.112334656e-06
5.041208016e-06
4.977337248e-06
4.950891504e-06
4.887402624e-06
4.80558312e-06
4.747918032e-06
4.775318496e-06
4.726150416e-06
4.71249792e-06
4.615880256e-06
4.57024464e-06
4.559169888e-06
4.50055008e-06
4.493580624e-06
4.356482832e-06
4.332805776e-06
4.277718432e-06
4.263111216e-06
4.270271616e-06
4.222440144e-06
4.148831232e-06
4.118948496e-06
4.09049784e-06
4.032832752e-06
3.966670656e-06
3.937933584e-06
3.917884464e-06
3.83892912e-06
3.809141856e-06
3.737633328e-06
3.70622304e-06
3.64321152e-06
3.601872144e-06
3.524635296e-06
3.47899968e-06
3.433268592e-06
3.384100512e-06
3.361664592e-06
3.288628512e-06
3.253399344e-06
3.194588592e-06
3.169765872e-06
3.094342992e-06
3.086036928e-06
3.003453648e-06
3.0121416e-06
2.92239792e-06
2.891560464e-06
2.853276192e-06
2.827116864e-06
2.794656384e-06
2.755512864e-06
2.685340944e-06
2.654408016e-06
2.628248688e-06
2.54098728e-06
2.49134184e-06
2.433485808e-06
2.3844132e-06
2.355485184e-06
2.300684256e-06
2.236049712e-06
2.179434816e-06
2.173992912e-06
2.151079632e-06
2.157380784e-06
2.104489296e-06
2.063340864e-06
2.010926736e-06
1.946483136e-06
1.906766784e-06
1.879175376e-06
1.82685672e-06
1.786567536e-06
1.766422944e-06
1.712863152e-06
1.664172432e-06
1.591422768e-06
1.545023376e-06
1.528220304e-06
1.502538336e-06
1.429024896e-06
1.410025968e-06
1.322669088e-06
1.290208608e-06
1.2315888e-06
1.187003376e-06
1.148623632e-06
1.08074304e-06
1.040931216e-06
1.017826992e-06
9.45936576e-07
8.98009632e-07
8.44831728e-07
8.40821904e-07
7.88694192e-07
7.422948e-07
6.69831552e-07
6.539832e-07
6.14744208e-07
5.61470832e-07
5.20608816e-07
4.606524e-07
4.28287392e-07
3.97736352e-07
3.42553536e-07
2.89089216e-07
2.47463424e-07
1.9189872e-07
1.38052512e-07
9.169799184e-06
9.0984816e-06
9.0507456e-06
8.928445968e-06
8.974368e-06
8.860374432e-06
8.84500344e-06
8.851972896e-06
8.813688624e-06
8.74332576e-06
8.644416768e-06
8.588470176e-06
8.559924048e-06
8.55524592e-06
8.507796336e-06
8.550663264e-06
8.552477232e-06
8.422253424e-06
8.377763472e-06
8.330982192e-06
8.30176776e-06
8.22873168e-06
8.211737664e-06
8.15999184e-06
8.056691136e-06
7.957973088e-06
8.00007624e-06
7.913005776e-06
7.874626032e-06
7.82488512e-06
7.78765104e-06
7.72702632e-06
7.668597456e-06
7.629262992e-06
7.558136352e-06
7.56472392e-06
7.552694448e-06
7.550212176e-06
7.45015752e-06
7.385809392e-06
7.367478768e-06
7.251671232e-06
7.170615504e-06
7.147415808e-06
7.12650744e-06
7.10884512e-06
7.041346416e-06
7.056144576e-06
6.963632208e-06
6.960290688e-06
6.888877632e-06
6.96993336e-06
6.778416528e-06
6.800184144e-06
6.667669008e-06
6.625852272e-06
6.546610512e-06
6.593964624e-06
6.4873224e-06
6.452570592e-06
6.44961096e-06
6.433953552e-06
6.318432432e-06
6.225824592e-06
6.20520264e-06
6.214463424e-06
6.142763952e-06
6.13025712e-06
6.066195408e-06
6.038890416e-06
5.990295168e-06
5.898451104e-06
5.898069216e-06
5.831811648e-06
5.811953472e-06
5.755338576e-06
5.72641056e-06
5.633229888e-06
5.690417616e-06
5.579670096e-06
5.51494008e-06
5.492599632e-06
5.456511216e-06
5.409634464e-06
5.345190864e-06
5.32542816e-06
5.230528992e-06
5.178974112e-06
5.159593296e-06
5.096963664e-06
5.046840864e-06
4.995858816e-06
4.905924192e-06
4.905733248e-06
4.86047952e-06
4.73493384e-06
4.766535072e-06
4.69769976e-06
4.655978496e-06
4.593539808e-06
4.596881328e-06
4.510861056e-06
4.517066736e-06
4.442694048e-06
4.362402096e-06
4.39982712e-06
4.31867592e-06
4.35256848e-06
4.278482208e-06
4.243348512e-06
4.202391024e-06
4.125154176e-06
4.098422016e-06
4.042189008e-06
4.020421392e-06
3.953877408e-06
3.877404336e-06
3.808187136e-06
3.754722816e-06
3.695625648e-06
3.667938768e-06
3.654286272e-06
3.582204912e-06
3.560914656e-06
3.52625832e-06
3.478426848e-06
3.414174192e-06
3.352594752e-06
3.279176784e-06
3.195065952e-06
3.202321824e-06
3.141219744e-06
3.118306464e-06
3.098734704e-06
3.055199472e-06
3.034004688e-06
2.952280656e-06
2.918006208e-06
2.859768288e-06
2.805253776e-06
2.772888768e-06
2.768401584e-06
2.709781776e-06
2.668537872e-06
2.599034256e-06
2.582804016e-06
2.52571176e-06
2.456780976e-06
2.429189568e-06
2.34574704e-06
2.3319036e-06
2.270419632e-06
2.212181712e-06
2.155184928e-06
2.134562976e-06
2.102675328e-06
2.067350688e-06
2.047969872e-06
1.989063648e-06
1.998515376e-06
1.9428552e-06
1.912686048e-06
1.787617728e-06
1.801365696e-06
1.778261472e-06
1.7375904e-06
1.668277728e-06
1.607462064e-06
1.525451616e-06
1.495473408e-06
1.464445008e-06
1.442677392e-06
1.379188512e-06
1.342622736e-06
1.31274e-06
1.254597552e-06
1.193781888e-06
1.14279984e-06
1.101937824e-06
1.059070896e-06
9.83075184e-07
9.49659984e-07
8.88462432e-07
8.70036336e-07
8.36525664e-07
7.7714208e-07
7.30265328e-07
6.78519504e-07
6.52646592e-07
5.93549424e-07
5.4800928e-07
5.03232912e-07
4.63898448e-07
4.20267744e-07
3.6183888e-07
3.29473872e-07
2.94817536e-07
2.37056976e-07
1.85311152e-07
1.20485664e-07
9.107455968e-06
9.093994416e-06
9.009979056e-06
8.97389064e-06
8.8693488e-06
8.892071136e-06
8.910306288e-06
8.815120704e-06
8.741989152e-06
8.680409712e-06
8.695303344e-06
8.561260656e-06
8.633437488e-06
8.533955664e-06
8.522689968e-06
8.510278608e-06
8.5017816e-06
8.374612896e-06
8.34377544e-06
8.338619952e-06
8.306445888e-06
8.21584296e-06
8.19770328e-06
8.209732752e-06
8.08743312e-06
8.024230656e-06
7.994252448e-06
7.948425888e-06
7.83300024e-06
7.781731776e-06
7.744593168e-06
7.721488944e-06
7.725976128e-06
7.573889232e-06
7.636709808e-06
7.57379376e-06
7.453689984e-06
7.484718384e-06
7.455790368e-06
7.364328192e-06
7.35229872e-06
7.270574688e-06
7.201357488e-06
7.205653728e-06
7.171952112e-06
7.10263944e-06
7.09738848e-06
6.951984624e-06
6.9312672e-06
6.931935504e-06
6.879425904e-06
6.817560048e-06
6.788154672e-06
6.749774928e-06
6.691537008e-06
6.631771536e-06
6.673779216e-06
6.587186112e-06
6.550620336e-06
6.521119488e-06
6.46440912e-06
6.382589616e-06
6.310603728e-06
6.291318384e-06
6.222005712e-06
6.209403408e-06
6.091781904e-06
6.098942304e-06
6.078511296e-06
5.994591408e-06
5.965281504e-06
5.936735376e-06
5.83906752e-06
5.792954544e-06
5.76030312e-06
5.72211432e-06
5.780925072e-06
5.645163888e-06
5.62521024e-06
5.558666256e-06
5.477037696e-06
5.48773056e-06
5.462525952e-06
5.397604992e-06
5.329437984e-06
5.29535448e-06
5.324855328e-06
5.164175952e-06
5.197686624e-06
5.08770288e-06
5.0624028e-06
5.04999144e-06
5.02707816e-06
4.942203552e-06
4.834320192e-06
4.774363776e-06
4.731210432e-06
4.770449424e-06
4.68719784e-06
4.624281792e-06
4.59840888e-06
4.551245712e-06
4.5205992e-06
4.443075936e-06
4.377677616e-06
4.366602864e-06
4.38407424e-06
4.308555888e-06
4.288029408e-06
4.237333776e-06
4.185778896e-06
4.128113808e-06
4.077513648e-06
4.037892768e-06
4.0313052e-06
3.941179632e-06
3.850003872e-06
3.846757824e-06
3.750808464e-06
3.743552592e-06
3.683500704e-06
3.671566704e-06
3.599198928e-06
3.548121408e-06
3.551940288e-06
3.5109828e-06
3.41742024e-06
3.382382016e-06
3.284045856e-06
3.246620832e-06
3.200794272e-06
3.156399792e-06
3.142174464e-06
3.114964944e-06
3.091478832e-06
3.014241984e-06
2.949893856e-06
2.910654864e-06
2.860532064e-06
2.787209568e-06
2.796470352e-06
2.75723136e-06
2.719424448e-06
2.668824288e-06
2.671020144e-06
2.58633648e-06
2.514637008e-06
2.483417664e-06
2.406085344e-06
2.346033456e-06
2.30612616e-06
2.254666752e-06
2.230416864e-06
2.179721232e-06
2.137522608e-06
2.060858592e-06
2.085203952e-06
2.024292816e-06
2.0216196e-06
2.0072988e-06
1.921660416e-06
1.899988272e-06
1.85167944e-06
1.813204224e-06
1.78103016e-06
1.706562e-06
1.632475728e-06
1.64259576e-06
1.551992832e-06
1.507120992e-06
1.44592344e-06
1.473705792e-06
1.403629344e-06
1.355893344e-06
1.309303008e-06
1.267581744e-06
1.210680432e-06
1.166381424e-06
1.094872896e-06
1.079883792e-06
1.017445104e-06
9.55865664e-07
9.11948544e-07
8.62684992e-07
8.08552368e-07
7.55947296e-07
7.1317584e-07
6.72504768e-07
6.40044288e-07
5.95458864e-07
5.39798688e-07
5.01800832e-07
4.67526384e-07
4.28382864e-07
3.81888e-07
3.365388e-07
2.83838256e-07
2.38870944e-07
1.83401712e-07
1.22967936e-07
9.20779704e-06
9.051318432e-06
9.055901088e-06
8.927300304e-06
8.90849232e-06
8.917753104e-06
8.907633072e-06
8.819512416e-06
8.819607888e-06
8.738647632e-06
8.6569236e-06
8.573958432e-06
8.597921904e-06
8.606418912e-06
8.566129728e-06
8.547990048e-06
8.557919136e-06
8.441347824e-06
8.324585568e-06
8.31704328e-06
8.334514656e-06
8.192643264e-06
8.1175068e-06
8.104045248e-06
8.083518768e-06
8.052013008e-06
8.028526896e-06
7.959214224e-06
7.792042752e-06
7.701344352e-06
7.744975056e-06
7.69122432e-06
7.71031872e-06
7.567206192e-06
7.61341464e-06
7.554412944e-06
7.436695968e-06
7.435168416e-06
7.406813232e-06
7.31888352e-06
7.292819664e-06
7.32604392e-06
7.232385888e-06
7.228376064e-06
7.159063392e-06
7.073711424e-06
7.046215488e-06
7.006976496e-06
6.89832936e-06
6.936327216e-06
6.892696512e-06
6.724283904e-06
6.764573088e-06
6.777939168e-06
6.731635248e-06
6.73984584e-06
6.61191336e-06
6.573342672e-06
6.538972752e-06
6.493814496e-06
6.435194688e-06
6.407316864e-06
6.325306416e-06
6.244441632e-06
6.17990256e-06
6.169687056e-06
6.09684192e-06
6.159757968e-06
6.099801552e-06
5.979602304e-06
5.943418416e-06
5.941795392e-06
5.923178352e-06
5.823028224e-06
5.739681168e-06
5.722782624e-06
5.688794592e-06
5.623205328e-06
5.682302496e-06
5.621677776e-06
5.553988128e-06
5.523341616e-06
5.400660096e-06
5.400946512e-06
5.292299376e-06
5.294017872e-06
5.262321168e-06
5.193294912e-06
5.127037344e-06
5.097631968e-06
5.12064072e-06
5.084170416e-06
4.964353056e-06
4.91107968e-06
4.875086736e-06
4.795176672e-06
4.758706368e-06
4.765580352e-06
4.721185872e-06
4.61559384e-06
4.624472736e-06
4.624854624e-06
4.56881256e-06
4.47525e-06
4.41223848e-06
4.371567408e-06
4.336051824e-06
4.29433056e-06
4.277813904e-06
4.205923488e-06
4.224731472e-06
4.146730848e-06
4.039133904e-06
4.029682176e-06
4.028822928e-06
3.992066208e-06
3.904041024e-06
3.878645472e-06
3.78594216e-06
3.723408e-06
3.6541908e-06
3.638819808e-06
3.598148736e-06
3.549267072e-06
3.567979584e-06
3.487210272e-06
3.434318784e-06
3.403863216e-06
3.299225904e-06
3.254735952e-06
3.272589216e-06
3.209100336e-06
3.142078992e-06
3.09281544e-06
3.107709072e-06
2.97729432e-06
2.899962e-06
2.841151248e-06
2.853562608e-06
2.851080336e-06
2.77775784e-06
2.78825976e-06
2.703671568e-06
2.65125744e-06
2.618701488e-06
2.567433024e-06
2.51759664e-06
2.454871536e-06
2.44503792e-06
2.394819648e-06
2.336295312e-06
2.296292544e-06
2.215141344e-06
2.15241624e-06
2.10086136e-06
2.103820992e-06
2.070883152e-06
2.016655056e-06
1.992118752e-06
1.975888512e-06
1.91707776e-06
1.934167248e-06
1.876693104e-06
1.814731776e-06
1.757544048e-06
1.727183952e-06
1.633621392e-06
1.618441344e-06
1.571182704e-06
1.50941232e-06
1.477333728e-06
1.412699184e-06
1.407066336e-06
1.343672928e-06
1.298514672e-06
1.248105456e-06
1.215167616e-06
1.15807536e-06
1.095923088e-06
1.05353352e-06
9.98255232e-07
9.59589072e-07
9.07556832e-07
8.67649536e-07
8.2535544e-07
7.64444304e-07
7.27305696e-07
6.54365088e-07
6.37466544e-07
6.02141904e-07
5.3082432e-07
5.036148e-07
4.62752784e-07
4.30292304e-07
3.78832896e-07
3.39307488e-07
2.97204336e-07
2.45267568e-07
1.88270784e-07
1.31846832e-07
)
;

boundaryField
{
    bottom
    {
        type            calculated;
        value           nonuniform List<scalar> 
200
(
9.16960824e-06
9.111561264e-06
9.032796864e-06
8.870876352e-06
8.959474368e-06
8.919758016e-06
8.868680496e-06
8.81588448e-06
8.813402208e-06
8.855600832e-06
8.750199744e-06
8.69177088e-06
8.632673712e-06
8.526413376e-06
8.496435168e-06
8.466838848e-06
8.537201712e-06
8.506937088e-06
8.364588336e-06
8.310646656e-06
8.283055248e-06
8.2201392e-06
8.184146256e-06
8.145002736e-06
8.076644784e-06
8.086287456e-06
7.958832336e-06
7.879686048e-06
7.822211904e-06
7.767697392e-06
7.71604704e-06
7.751467152e-06
7.611696144e-06
7.551930672e-06
7.527298896e-06
7.643679264e-06
7.497702576e-06
7.419320064e-06
7.461232272e-06
7.392301488e-06
7.317355968e-06
7.248138768e-06
7.22341152e-06
7.108654176e-06
7.151712048e-06
7.216537536e-06
7.195820112e-06
7.047074736e-06
6.977953008e-06
6.977953008e-06
6.890500656e-06
6.826916304e-06
6.760467792e-06
6.773070096e-06
6.757412688e-06
6.646665168e-06
6.594919344e-06
6.478061616e-06
6.45008832e-06
6.422210496e-06
6.392900592e-06
6.316522992e-06
6.25246128e-06
6.305066352e-06
6.2319348e-06
6.228306864e-06
6.14982888e-06
6.166441008e-06
6.173028576e-06
6.061135392e-06
5.920600608e-06
5.916972672e-06
5.83668072e-06
5.802597216e-06
5.79467304e-06
5.785030368e-06
5.773382784e-06
5.727651696e-06
5.719536576e-06
5.536230336e-06
5.587116912e-06
5.54596848e-06
5.501383056e-06
5.4323568e-06
5.315308128e-06
5.34452256e-06
5.269863456e-06
5.191576416e-06
5.155392528e-06
5.116917312e-06
5.093717616e-06
4.99604976e-06
4.957479072e-06
4.927023504e-06
4.846731552e-06
4.774459248e-06
4.715648496e-06
4.731496848e-06
4.721472288e-06
4.651300368e-06
4.604710032e-06
4.567189536e-06
4.580173728e-06
4.473149616e-06
4.389420672e-06
4.323831408e-06
4.262251968e-06
4.228836768e-06
4.2389568e-06
4.166970912e-06
4.130405136e-06
4.141479888e-06
4.068348336e-06
3.996744336e-06
3.947958144e-06
3.95445024e-06
3.895544016e-06
3.903563664e-06
3.818689056e-06
3.7496628e-06
3.698680752e-06
3.656959488e-06
3.554995392e-06
3.587169456e-06
3.517761312e-06
3.409591536e-06
3.3797088e-06
3.362714784e-06
3.344288688e-06
3.267624672e-06
3.170529648e-06
3.18208176e-06
3.148762032e-06
3.058827408e-06
3.018920112e-06
3.01118688e-06
2.952376128e-06
2.872466064e-06
2.87036568e-06
2.834945568e-06
2.770979328e-06
2.78491824e-06
2.70233496e-06
2.624238864e-06
2.592255744e-06
2.560463568e-06
2.50232112e-06
2.460981744e-06
2.464227792e-06
2.366655408e-06
2.3295168e-06
2.240059536e-06
2.231371584e-06
2.138477328e-06
2.194042032e-06
2.117473488e-06
2.093605488e-06
2.019996576e-06
2.044723824e-06
1.970255664e-06
1.911540384e-06
1.863899856e-06
1.835067312e-06
1.79153208e-06
1.777879584e-06
1.69653744e-06
1.650615408e-06
1.624647024e-06
1.600683552e-06
1.512849312e-06
1.501488144e-06
1.425969792e-06
1.416231648e-06
1.344054816e-06
1.297846368e-06
1.270923264e-06
1.226719728e-06
1.131152256e-06
1.08217512e-06
1.037494224e-06
1.002265056e-06
9.34002576e-07
9.09561744e-07
8.67458592e-07
8.51037408e-07
7.84111536e-07
7.46018208e-07
6.93317664e-07
6.36893712e-07
6.12643824e-07
5.7187728e-07
5.1172992e-07
4.54351248e-07
4.18071888e-07
3.74918544e-07
3.37779936e-07
2.9882736e-07
2.50327584e-07
2.00873088e-07
1.43780832e-07
)
;
    }
    top
    {
        type            calculated;
        value           nonuniform List<scalar> 
200
(
9.20779704e-06
9.051318432e-06
9.055901088e-06
8.927300304e-06
8.90849232e-06
8.917753104e-06
8.907633072e-06
8.819512416e-06
8.819607888e-06
8.738647632e-06
8.6569236e-06
8.573958432e-06
8.597921904e-06
8.606418912e-06
8.566129728e-06
8.547990048e-06
8.557919136e-06
8.441347824e-06
8.324585568e-06
8.31704328e-06
8.334514656e-06
8.192643264e-06
8.1175068e-06
8.104045248e-06
8.083518768e-06
8.052013008e-06
8.028526896e-06
7.959214224e-06
7.792042752e-06
7.701344352e-06
7.744975056e-06
7.69122432e-06
7.71031872e-06
7.567206192e-06
7.61341464e-06
7.554412944e-06
7.436695968e-06
7.435168416e-06
7.406813232e-06
7.31888352e-06
7.292819664e-06
7.32604392e-06
7.232385888e-06
7.228376064e-06
7.159063392e-06
7.073711424e-06
7.046215488e-06
7.006976496e-06
6.89832936e-06
6.936327216e-06
6.892696512e-06
6.724283904e-06
6.764573088e-06
6.777939168e-06
6.731635248e-06
6.73984584e-06
6.61191336e-06
6.573342672e-06
6.538972752e-06
6.493814496e-06
6.435194688e-06
6.407316864e-06
6.325306416e-06
6.244441632e-06
6.17990256e-06
6.169687056e-06
6.09684192e-06
6.159757968e-06
6.099801552e-06
5.979602304e-06
5.943418416e-06
5.941795392e-06
5.923178352e-06
5.823028224e-06
5.739681168e-06
5.722782624e-06
5.688794592e-06
5.623205328e-06
5.682302496e-06
5.621677776e-06
5.553988128e-06
5.523341616e-06
5.400660096e-06
5.400946512e-06
5.292299376e-06
5.294017872e-06
5.262321168e-06
5.193294912e-06
5.127037344e-06
5.097631968e-06
5.12064072e-06
5.084170416e-06
4.964353056e-06
4.91107968e-06
4.875086736e-06
4.795176672e-06
4.758706368e-06
4.765580352e-06
4.721185872e-06
4.61559384e-06
4.624472736e-06
4.624854624e-06
4.56881256e-06
4.47525e-06
4.41223848e-06
4.371567408e-06
4.336051824e-06
4.29433056e-06
4.277813904e-06
4.205923488e-06
4.224731472e-06
4.146730848e-06
4.039133904e-06
4.029682176e-06
4.028822928e-06
3.992066208e-06
3.904041024e-06
3.878645472e-06
3.78594216e-06
3.723408e-06
3.6541908e-06
3.638819808e-06
3.598148736e-06
3.549267072e-06
3.567979584e-06
3.487210272e-06
3.434318784e-06
3.403863216e-06
3.299225904e-06
3.254735952e-06
3.272589216e-06
3.209100336e-06
3.142078992e-06
3.09281544e-06
3.107709072e-06
2.97729432e-06
2.899962e-06
2.841151248e-06
2.853562608e-06
2.851080336e-06
2.77775784e-06
2.78825976e-06
2.703671568e-06
2.65125744e-06
2.618701488e-06
2.567433024e-06
2.51759664e-06
2.454871536e-06
2.44503792e-06
2.394819648e-06
2.336295312e-06
2.296292544e-06
2.215141344e-06
2.15241624e-06
2.10086136e-06
2.103820992e-06
2.070883152e-06
2.016655056e-06
1.992118752e-06
1.975888512e-06
1.91707776e-06
1.934167248e-06
1.876693104e-06
1.814731776e-06
1.757544048e-06
1.727183952e-06
1.633621392e-06
1.618441344e-06
1.571182704e-06
1.50941232e-06
1.477333728e-06
1.412699184e-06
1.407066336e-06
1.343672928e-06
1.298514672e-06
1.248105456e-06
1.215167616e-06
1.15807536e-06
1.095923088e-06
1.05353352e-06
9.98255232e-07
9.59589072e-07
9.07556832e-07
8.67649536e-07
8.2535544e-07
7.64444304e-07
7.27305696e-07
6.54365088e-07
6.37466544e-07
6.02141904e-07
5.3082432e-07
5.036148e-07
4.62752784e-07
4.30292304e-07
3.78832896e-07
3.39307488e-07
2.97204336e-07
2.45267568e-07
1.88270784e-07
1.31846832e-07
)
;
    }
    inlet
    {
        type            calculated;
        value           nonuniform List<scalar> 5(9.16960824e-06 9.080532864e-06 9.169799184e-06 9.107455968e-06 9.20779704e-06);
    }
    outlet
    {
        type            calculated;
        value           nonuniform List<scalar> 5(1.43780832e-07 1.38052512e-07 1.20485664e-07 1.22967936e-07 1.31846832e-07);
    }
    back
    {
        type            symmetry;
    }
    front
    {
        type            symmetry;
    }
}


// ************************************************************************* //
