/*--------------------------------*- C++ -*----------------------------------*\
| =========                 |                                                 |
| \\      /  F ield         | OpenFOAM: The Open Source CFD Toolbox           |
|  \\    /   O peration     | Version:  v1706                                 |
|   \\  /    A nd           | Web:      www.OpenFOAM.com                      |
|    \\/     M anipulation  |                                                 |
\*---------------------------------------------------------------------------*/
FoamFile
{
    version     2.0;
    format      ascii;
    class       volScalarField;
    location    "0.55";
    object      rhoN_Ar1;
}
// * * * * * * * * * * * * * * * * * * * * * * * * * * * * * * * * * * * * * //

dimensions      [0 -3 0 0 0 0 0];


internalField   nonuniform List<scalar> 
1000
(
1.383048e+20
1.3742928e+20
1.3624128e+20
1.3379904e+20
1.3513536e+20
1.3453632e+20
1.3376592e+20
1.329696e+20
1.3293216e+20
1.3356864e+20
1.3197888e+20
1.310976e+20
1.3020624e+20
1.2860352e+20
1.2815136e+20
1.2770496e+20
1.2876624e+20
1.2830976e+20
1.2616272e+20
1.2534912e+20
1.2493296e+20
1.23984e+20
1.2344112e+20
1.2285072e+20
1.2181968e+20
1.2196512e+20
1.2004272e+20
1.1884896e+20
1.1798208e+20
1.1715984e+20
1.163808e+20
1.1691504e+20
1.1480688e+20
1.1390544e+20
1.1353392e+20
1.1528928e+20
1.1308752e+20
1.1190528e+20
1.1253744e+20
1.1149776e+20
1.1036736e+20
1.0932336e+20
1.089504e+20
1.0721952e+20
1.0786896e+20
1.0884672e+20
1.0853424e+20
1.0629072e+20
1.0524816e+20
1.0524816e+20
1.0392912e+20
1.0297008e+20
1.0196784e+20
1.0215792e+20
1.0192176e+20
1.0025136e+20
9.947088e+19
9.770832e+19
9.72864e+19
9.686592e+19
9.642384e+19
9.527184e+19
9.43056e+19
9.509904e+19
9.3996e+19
9.394128e+19
9.27576e+19
9.300816e+19
9.310752e+19
9.141984e+19
8.930016e+19
8.924544e+19
8.80344e+19
8.752032e+19
8.74008e+19
8.725536e+19
8.707968e+19
8.638992e+19
8.626752e+19
8.350272e+19
8.427024e+19
8.36496e+19
8.297712e+19
8.1936e+19
8.017056e+19
8.06112e+19
7.948512e+19
7.830432e+19
7.775856e+19
7.717824e+19
7.682832e+19
7.53552e+19
7.477344e+19
7.431408e+19
7.310304e+19
7.201296e+19
7.112592e+19
7.136496e+19
7.121376e+19
7.015536e+19
6.945264e+19
6.888672e+19
6.908256e+19
6.746832e+19
6.620544e+19
6.521616e+19
6.428736e+19
6.378336e+19
6.3936e+19
6.285024e+19
6.229872e+19
6.246576e+19
6.136272e+19
6.028272e+19
5.954688e+19
5.96448e+19
5.875632e+19
5.887728e+19
5.759712e+19
5.6556e+19
5.578704e+19
5.515776e+19
5.361984e+19
5.410512e+19
5.305824e+19
5.142672e+19
5.0976e+19
5.071968e+19
5.044176e+19
4.928544e+19
4.782096e+19
4.79952e+19
4.749264e+19
4.613616e+19
4.553424e+19
4.54176e+19
4.453056e+19
4.332528e+19
4.32936e+19
4.275936e+19
4.179456e+19
4.20048e+19
4.07592e+19
3.958128e+19
3.909888e+19
3.861936e+19
3.77424e+19
3.711888e+19
3.716784e+19
3.569616e+19
3.5136e+19
3.378672e+19
3.365568e+19
3.225456e+19
3.309264e+19
3.193776e+19
3.157776e+19
3.046752e+19
3.084048e+19
2.971728e+19
2.883168e+19
2.811312e+19
2.767824e+19
2.70216e+19
2.681568e+19
2.55888e+19
2.489616e+19
2.450448e+19
2.414304e+19
2.281824e+19
2.264688e+19
2.150784e+19
2.136096e+19
2.027232e+19
1.957536e+19
1.916928e+19
1.850256e+19
1.706112e+19
1.63224e+19
1.564848e+19
1.511712e+19
1.408752e+19
1.371888e+19
1.308384e+19
1.283616e+19
1.182672e+19
1.125216e+19
1.045728e+19
9.60624e+18
9.24048e+18
8.6256e+18
7.7184e+18
6.85296e+18
6.30576e+18
5.65488e+18
5.09472e+18
4.5072e+18
3.77568e+18
3.02976e+18
2.16864e+18
1.3696128e+20
1.3774176e+20
1.3698144e+20
1.3644576e+20
1.354032e+20
1.3449312e+20
1.339344e+20
1.3359744e+20
1.3383648e+20
1.3249152e+20
1.3128192e+20
1.3056336e+20
1.2996432e+20
1.2890448e+20
1.2801312e+20
1.2835728e+20
1.27404e+20
1.28088e+20
1.263384e+20
1.2580848e+20
1.2387456e+20
1.2414096e+20
1.2290112e+20
1.2211056e+20
1.2127248e+20
1.210608e+20
1.2086064e+20
1.1952144e+20
1.178712e+20
1.1724192e+20
1.1665728e+20
1.1569824e+20
1.1625264e+20
1.1518128e+20
1.1510784e+20
1.1430144e+20
1.1296224e+20
1.1306304e+20
1.1364336e+20
1.1194128e+20
1.1094624e+20
1.0964448e+20
1.0869408e+20
1.073376e+20
1.0728864e+20
1.0604736e+20
1.0636848e+20
1.0561536e+20
1.0495296e+20
1.0459152e+20
1.0354608e+20
1.0374624e+20
1.0190016e+20
1.0081296e+20
1.0076256e+20
1.0047024e+20
9.965232e+19
9.7596e+19
9.790416e+19
9.676368e+19
9.664128e+19
9.586512e+19
9.534672e+19
9.492192e+19
9.444528e+19
9.438768e+19
9.2592e+19
9.244512e+19
9.26856e+19
9.173808e+19
9.013824e+19
8.93376e+19
8.856864e+19
8.777376e+19
8.811072e+19
8.694576e+19
8.610912e+19
8.566272e+19
8.535024e+19
8.37216e+19
8.400384e+19
8.371152e+19
8.24976e+19
8.090352e+19
8.10288e+19
8.002224e+19
8.018784e+19
7.87248e+19
7.743744e+19
7.710912e+19
7.603632e+19
7.507296e+19
7.467408e+19
7.371648e+19
7.24824e+19
7.161264e+19
7.202592e+19
7.128432e+19
7.10784e+19
6.962112e+19
6.89328e+19
6.876576e+19
6.78816e+19
6.777648e+19
6.570864e+19
6.535152e+19
6.452064e+19
6.430032e+19
6.440832e+19
6.368688e+19
6.257664e+19
6.212592e+19
6.16968e+19
6.082704e+19
5.982912e+19
5.939568e+19
5.909328e+19
5.79024e+19
5.745312e+19
5.637456e+19
5.59008e+19
5.49504e+19
5.432688e+19
5.316192e+19
5.24736e+19
5.178384e+19
5.104224e+19
5.070384e+19
4.960224e+19
4.907088e+19
4.818384e+19
4.780944e+19
4.667184e+19
4.654656e+19
4.530096e+19
4.5432e+19
4.40784e+19
4.361328e+19
4.303584e+19
4.264128e+19
4.215168e+19
4.156128e+19
4.050288e+19
4.003632e+19
3.964176e+19
3.83256e+19
3.75768e+19
3.670416e+19
3.5964e+19
3.552768e+19
3.470112e+19
3.372624e+19
3.287232e+19
3.279024e+19
3.244464e+19
3.253968e+19
3.174192e+19
3.112128e+19
3.033072e+19
2.935872e+19
2.875968e+19
2.834352e+19
2.75544e+19
2.694672e+19
2.664288e+19
2.583504e+19
2.510064e+19
2.400336e+19
2.330352e+19
2.305008e+19
2.266272e+19
2.155392e+19
2.126736e+19
1.994976e+19
1.946016e+19
1.8576e+19
1.790352e+19
1.732464e+19
1.63008e+19
1.570032e+19
1.535184e+19
1.426752e+19
1.354464e+19
1.274256e+19
1.268208e+19
1.189584e+19
1.1196e+19
1.010304e+19
9.864e+18
9.27216e+18
8.46864e+18
7.85232e+18
6.948e+18
6.45984e+18
5.99904e+18
5.16672e+18
4.36032e+18
3.73248e+18
2.8944e+18
2.08224e+18
1.3830768e+20
1.37232e+20
1.36512e+20
1.3466736e+20
1.3536e+20
1.3364064e+20
1.334088e+20
1.3351392e+20
1.3293648e+20
1.318752e+20
1.3038336e+20
1.2953952e+20
1.2910896e+20
1.290384e+20
1.2832272e+20
1.2896928e+20
1.2899664e+20
1.2703248e+20
1.2636144e+20
1.2565584e+20
1.252152e+20
1.241136e+20
1.2385728e+20
1.230768e+20
1.2151872e+20
1.2002976e+20
1.206648e+20
1.1935152e+20
1.1877264e+20
1.180224e+20
1.174608e+20
1.165464e+20
1.1566512e+20
1.1507184e+20
1.1399904e+20
1.140984e+20
1.1391696e+20
1.1387952e+20
1.123704e+20
1.1139984e+20
1.1112336e+20
1.0937664e+20
1.0815408e+20
1.0780416e+20
1.074888e+20
1.072224e+20
1.0620432e+20
1.0642752e+20
1.0503216e+20
1.0498176e+20
1.0390464e+20
1.051272e+20
1.0223856e+20
1.0256688e+20
1.0056816e+20
9.993744e+19
9.874224e+19
9.945648e+19
9.7848e+19
9.732384e+19
9.72792e+19
9.704304e+19
9.530064e+19
9.390384e+19
9.35928e+19
9.373248e+19
9.265104e+19
9.24624e+19
9.149616e+19
9.108432e+19
9.035136e+19
8.896608e+19
8.896032e+19
8.796096e+19
8.766144e+19
8.680752e+19
8.63712e+19
8.496576e+19
8.582832e+19
8.415792e+19
8.31816e+19
8.284464e+19
8.230032e+19
8.159328e+19
8.062128e+19
8.03232e+19
7.889184e+19
7.811424e+19
7.782192e+19
7.687728e+19
7.612128e+19
7.535232e+19
7.399584e+19
7.399296e+19
7.33104e+19
7.14168e+19
7.189344e+19
7.08552e+19
7.022592e+19
6.928416e+19
6.933456e+19
6.803712e+19
6.813072e+19
6.700896e+19
6.579792e+19
6.63624e+19
6.51384e+19
6.56496e+19
6.453216e+19
6.400224e+19
6.338448e+19
6.221952e+19
6.181632e+19
6.096816e+19
6.063984e+19
5.963616e+19
5.848272e+19
5.743872e+19
5.663232e+19
5.574096e+19
5.532336e+19
5.511744e+19
5.403024e+19
5.370912e+19
5.31864e+19
5.246496e+19
5.149584e+19
5.056704e+19
4.945968e+19
4.819104e+19
4.830048e+19
4.737888e+19
4.703328e+19
4.673808e+19
4.608144e+19
4.576176e+19
4.452912e+19
4.401216e+19
4.313376e+19
4.231152e+19
4.182336e+19
4.175568e+19
4.087152e+19
4.024944e+19
3.920112e+19
3.895632e+19
3.80952e+19
3.705552e+19
3.663936e+19
3.53808e+19
3.5172e+19
3.424464e+19
3.336624e+19
3.250656e+19
3.219552e+19
3.171456e+19
3.118176e+19
3.088944e+19
3.000096e+19
3.014352e+19
2.9304e+19
2.884896e+19
2.696256e+19
2.716992e+19
2.682144e+19
2.6208e+19
2.516256e+19
2.424528e+19
2.300832e+19
2.255616e+19
2.208816e+19
2.175984e+19
2.080224e+19
2.025072e+19
1.98e+19
1.892304e+19
1.800576e+19
1.72368e+19
1.662048e+19
1.597392e+19
1.482768e+19
1.432368e+19
1.340064e+19
1.312272e+19
1.261728e+19
1.17216e+19
1.101456e+19
1.023408e+19
9.84384e+18
8.95248e+18
8.2656e+18
7.59024e+18
6.99696e+18
6.33888e+18
5.4576e+18
4.96944e+18
4.44672e+18
3.57552e+18
2.79504e+18
1.81728e+18
1.3736736e+20
1.3716432e+20
1.3589712e+20
1.353528e+20
1.33776e+20
1.3411872e+20
1.3439376e+20
1.3295808e+20
1.3185504e+20
1.3092624e+20
1.3115088e+20
1.2912912e+20
1.3021776e+20
1.2871728e+20
1.2854736e+20
1.2836016e+20
1.28232e+20
1.2631392e+20
1.258488e+20
1.2577104e+20
1.2528576e+20
1.239192e+20
1.236456e+20
1.2382704e+20
1.219824e+20
1.2102912e+20
1.2057696e+20
1.1988576e+20
1.181448e+20
1.1737152e+20
1.1681136e+20
1.1646288e+20
1.1653056e+20
1.1423664e+20
1.1518416e+20
1.142352e+20
1.1242368e+20
1.1289168e+20
1.1245536e+20
1.1107584e+20
1.108944e+20
1.0966176e+20
1.0861776e+20
1.0868256e+20
1.0817424e+20
1.071288e+20
1.070496e+20
1.0485648e+20
1.04544e+20
1.0455408e+20
1.0376208e+20
1.0282896e+20
1.0238544e+20
1.0180656e+20
1.0092816e+20
1.0002672e+20
1.0066032e+20
9.935424e+19
9.880272e+19
9.835776e+19
9.75024e+19
9.626832e+19
9.518256e+19
9.489168e+19
9.384624e+19
9.365616e+19
9.188208e+19
9.199008e+19
9.168192e+19
9.041616e+19
8.997408e+19
8.954352e+19
8.80704e+19
8.737488e+19
8.68824e+19
8.63064e+19
8.719344e+19
8.514576e+19
8.48448e+19
8.384112e+19
8.260992e+19
8.27712e+19
8.239104e+19
8.141184e+19
8.038368e+19
7.98696e+19
8.031456e+19
7.789104e+19
7.839648e+19
7.67376e+19
7.6356e+19
7.61688e+19
7.58232e+19
7.454304e+19
7.291584e+19
7.201152e+19
7.136064e+19
7.195248e+19
7.06968e+19
6.974784e+19
6.93576e+19
6.864624e+19
6.8184e+19
6.701472e+19
6.602832e+19
6.586128e+19
6.61248e+19
6.498576e+19
6.467616e+19
6.391152e+19
6.313392e+19
6.226416e+19
6.150096e+19
6.090336e+19
6.0804e+19
5.944464e+19
5.806944e+19
5.802048e+19
5.657328e+19
5.646384e+19
5.555808e+19
5.537808e+19
5.428656e+19
5.351616e+19
5.357376e+19
5.2956e+19
5.15448e+19
5.101632e+19
4.953312e+19
4.896864e+19
4.827744e+19
4.760784e+19
4.739328e+19
4.698288e+19
4.662864e+19
4.546368e+19
4.449312e+19
4.390128e+19
4.314528e+19
4.203936e+19
4.217904e+19
4.15872e+19
4.101696e+19
4.025376e+19
4.028688e+19
3.90096e+19
3.792816e+19
3.745728e+19
3.629088e+19
3.538512e+19
3.47832e+19
3.400704e+19
3.364128e+19
3.287664e+19
3.224016e+19
3.108384e+19
3.145104e+19
3.053232e+19
3.0492e+19
3.0276e+19
2.898432e+19
2.865744e+19
2.79288e+19
2.734848e+19
2.68632e+19
2.574e+19
2.462256e+19
2.47752e+19
2.340864e+19
2.273184e+19
2.18088e+19
2.222784e+19
2.117088e+19
2.045088e+19
1.974816e+19
1.911888e+19
1.826064e+19
1.759248e+19
1.651392e+19
1.628784e+19
1.534608e+19
1.441728e+19
1.375488e+19
1.301184e+19
1.219536e+19
1.140192e+19
1.07568e+19
1.014336e+19
9.65376e+18
8.98128e+18
8.14176e+18
7.56864e+18
7.05168e+18
6.46128e+18
5.76e+18
5.076e+18
4.28112e+18
3.60288e+18
2.76624e+18
1.85472e+18
1.388808e+20
1.3652064e+20
1.3658976e+20
1.3465008e+20
1.343664e+20
1.3450608e+20
1.3435344e+20
1.3302432e+20
1.3302576e+20
1.3180464e+20
1.30572e+20
1.2932064e+20
1.2968208e+20
1.2981024e+20
1.2920256e+20
1.2892896e+20
1.2907872e+20
1.2732048e+20
1.2555936e+20
1.254456e+20
1.2570912e+20
1.2356928e+20
1.22436e+20
1.2223296e+20
1.2192336e+20
1.2144816e+20
1.2109392e+20
1.2004848e+20
1.1752704e+20
1.1615904e+20
1.1681712e+20
1.160064e+20
1.162944e+20
1.1413584e+20
1.148328e+20
1.1394288e+20
1.1216736e+20
1.1214432e+20
1.1171664e+20
1.103904e+20
1.0999728e+20
1.104984e+20
1.0908576e+20
1.0902528e+20
1.0797984e+20
1.0669248e+20
1.0627776e+20
1.0568592e+20
1.040472e+20
1.0462032e+20
1.0396224e+20
1.0142208e+20
1.0202976e+20
1.0223136e+20
1.0153296e+20
1.016568e+20
9.97272e+19
9.914544e+19
9.862704e+19
9.794592e+19
9.706176e+19
9.664128e+19
9.540432e+19
9.418464e+19
9.32112e+19
9.305712e+19
9.19584e+19
9.290736e+19
9.200304e+19
9.019008e+19
8.964432e+19
8.961984e+19
8.933904e+19
8.782848e+19
8.657136e+19
8.631648e+19
8.580384e+19
8.481456e+19
8.570592e+19
8.479152e+19
8.377056e+19
8.330832e+19
8.145792e+19
8.146224e+19
7.982352e+19
7.984944e+19
7.937136e+19
7.833024e+19
7.733088e+19
7.688736e+19
7.72344e+19
7.668432e+19
7.487712e+19
7.40736e+19
7.353072e+19
7.232544e+19
7.177536e+19
7.187904e+19
7.120944e+19
6.96168e+19
6.975072e+19
6.975648e+19
6.89112e+19
6.75e+19
6.65496e+19
6.593616e+19
6.540048e+19
6.47712e+19
6.452208e+19
6.343776e+19
6.372144e+19
6.254496e+19
6.092208e+19
6.077952e+19
6.076656e+19
6.021216e+19
5.888448e+19
5.850144e+19
5.71032e+19
5.616e+19
5.5116e+19
5.488416e+19
5.427072e+19
5.353344e+19
5.381568e+19
5.259744e+19
5.179968e+19
5.134032e+19
4.976208e+19
4.909104e+19
4.936032e+19
4.840272e+19
4.739184e+19
4.66488e+19
4.687344e+19
4.49064e+19
4.374e+19
4.285296e+19
4.304016e+19
4.300272e+19
4.18968e+19
4.20552e+19
4.077936e+19
3.99888e+19
3.949776e+19
3.872448e+19
3.79728e+19
3.702672e+19
3.68784e+19
3.612096e+19
3.523824e+19
3.463488e+19
3.341088e+19
3.24648e+19
3.16872e+19
3.173184e+19
3.123504e+19
3.041712e+19
3.004704e+19
2.980224e+19
2.89152e+19
2.917296e+19
2.830608e+19
2.737152e+19
2.650896e+19
2.605104e+19
2.463984e+19
2.441088e+19
2.369808e+19
2.27664e+19
2.228256e+19
2.130768e+19
2.122272e+19
2.026656e+19
1.958544e+19
1.882512e+19
1.832832e+19
1.74672e+19
1.652976e+19
1.58904e+19
1.505664e+19
1.447344e+19
1.368864e+19
1.308672e+19
1.24488e+19
1.153008e+19
1.096992e+19
9.86976e+18
9.61488e+18
9.08208e+18
8.0064e+18
7.596e+18
6.97968e+18
6.49008e+18
5.71392e+18
5.11776e+18
4.48272e+18
3.69936e+18
2.83968e+18
1.98864e+18
)
;

boundaryField
{
    bottom
    {
        type            calculated;
        value           nonuniform List<scalar> 
200
(
1.383048e+20
1.3742928e+20
1.3624128e+20
1.3379904e+20
1.3513536e+20
1.3453632e+20
1.3376592e+20
1.329696e+20
1.3293216e+20
1.3356864e+20
1.3197888e+20
1.310976e+20
1.3020624e+20
1.2860352e+20
1.2815136e+20
1.2770496e+20
1.2876624e+20
1.2830976e+20
1.2616272e+20
1.2534912e+20
1.2493296e+20
1.23984e+20
1.2344112e+20
1.2285072e+20
1.2181968e+20
1.2196512e+20
1.2004272e+20
1.1884896e+20
1.1798208e+20
1.1715984e+20
1.163808e+20
1.1691504e+20
1.1480688e+20
1.1390544e+20
1.1353392e+20
1.1528928e+20
1.1308752e+20
1.1190528e+20
1.1253744e+20
1.1149776e+20
1.1036736e+20
1.0932336e+20
1.089504e+20
1.0721952e+20
1.0786896e+20
1.0884672e+20
1.0853424e+20
1.0629072e+20
1.0524816e+20
1.0524816e+20
1.0392912e+20
1.0297008e+20
1.0196784e+20
1.0215792e+20
1.0192176e+20
1.0025136e+20
9.947088e+19
9.770832e+19
9.72864e+19
9.686592e+19
9.642384e+19
9.527184e+19
9.43056e+19
9.509904e+19
9.3996e+19
9.394128e+19
9.27576e+19
9.300816e+19
9.310752e+19
9.141984e+19
8.930016e+19
8.924544e+19
8.80344e+19
8.752032e+19
8.74008e+19
8.725536e+19
8.707968e+19
8.638992e+19
8.626752e+19
8.350272e+19
8.427024e+19
8.36496e+19
8.297712e+19
8.1936e+19
8.017056e+19
8.06112e+19
7.948512e+19
7.830432e+19
7.775856e+19
7.717824e+19
7.682832e+19
7.53552e+19
7.477344e+19
7.431408e+19
7.310304e+19
7.201296e+19
7.112592e+19
7.136496e+19
7.121376e+19
7.015536e+19
6.945264e+19
6.888672e+19
6.908256e+19
6.746832e+19
6.620544e+19
6.521616e+19
6.428736e+19
6.378336e+19
6.3936e+19
6.285024e+19
6.229872e+19
6.246576e+19
6.136272e+19
6.028272e+19
5.954688e+19
5.96448e+19
5.875632e+19
5.887728e+19
5.759712e+19
5.6556e+19
5.578704e+19
5.515776e+19
5.361984e+19
5.410512e+19
5.305824e+19
5.142672e+19
5.0976e+19
5.071968e+19
5.044176e+19
4.928544e+19
4.782096e+19
4.79952e+19
4.749264e+19
4.613616e+19
4.553424e+19
4.54176e+19
4.453056e+19
4.332528e+19
4.32936e+19
4.275936e+19
4.179456e+19
4.20048e+19
4.07592e+19
3.958128e+19
3.909888e+19
3.861936e+19
3.77424e+19
3.711888e+19
3.716784e+19
3.569616e+19
3.5136e+19
3.378672e+19
3.365568e+19
3.225456e+19
3.309264e+19
3.193776e+19
3.157776e+19
3.046752e+19
3.084048e+19
2.971728e+19
2.883168e+19
2.811312e+19
2.767824e+19
2.70216e+19
2.681568e+19
2.55888e+19
2.489616e+19
2.450448e+19
2.414304e+19
2.281824e+19
2.264688e+19
2.150784e+19
2.136096e+19
2.027232e+19
1.957536e+19
1.916928e+19
1.850256e+19
1.706112e+19
1.63224e+19
1.564848e+19
1.511712e+19
1.408752e+19
1.371888e+19
1.308384e+19
1.283616e+19
1.182672e+19
1.125216e+19
1.045728e+19
9.60624e+18
9.24048e+18
8.6256e+18
7.7184e+18
6.85296e+18
6.30576e+18
5.65488e+18
5.09472e+18
4.5072e+18
3.77568e+18
3.02976e+18
2.16864e+18
)
;
    }
    top
    {
        type            calculated;
        value           nonuniform List<scalar> 
200
(
1.388808e+20
1.3652064e+20
1.3658976e+20
1.3465008e+20
1.343664e+20
1.3450608e+20
1.3435344e+20
1.3302432e+20
1.3302576e+20
1.3180464e+20
1.30572e+20
1.2932064e+20
1.2968208e+20
1.2981024e+20
1.2920256e+20
1.2892896e+20
1.2907872e+20
1.2732048e+20
1.2555936e+20
1.254456e+20
1.2570912e+20
1.2356928e+20
1.22436e+20
1.2223296e+20
1.2192336e+20
1.2144816e+20
1.2109392e+20
1.2004848e+20
1.1752704e+20
1.1615904e+20
1.1681712e+20
1.160064e+20
1.162944e+20
1.1413584e+20
1.148328e+20
1.1394288e+20
1.1216736e+20
1.1214432e+20
1.1171664e+20
1.103904e+20
1.0999728e+20
1.104984e+20
1.0908576e+20
1.0902528e+20
1.0797984e+20
1.0669248e+20
1.0627776e+20
1.0568592e+20
1.040472e+20
1.0462032e+20
1.0396224e+20
1.0142208e+20
1.0202976e+20
1.0223136e+20
1.0153296e+20
1.016568e+20
9.97272e+19
9.914544e+19
9.862704e+19
9.794592e+19
9.706176e+19
9.664128e+19
9.540432e+19
9.418464e+19
9.32112e+19
9.305712e+19
9.19584e+19
9.290736e+19
9.200304e+19
9.019008e+19
8.964432e+19
8.961984e+19
8.933904e+19
8.782848e+19
8.657136e+19
8.631648e+19
8.580384e+19
8.481456e+19
8.570592e+19
8.479152e+19
8.377056e+19
8.330832e+19
8.145792e+19
8.146224e+19
7.982352e+19
7.984944e+19
7.937136e+19
7.833024e+19
7.733088e+19
7.688736e+19
7.72344e+19
7.668432e+19
7.487712e+19
7.40736e+19
7.353072e+19
7.232544e+19
7.177536e+19
7.187904e+19
7.120944e+19
6.96168e+19
6.975072e+19
6.975648e+19
6.89112e+19
6.75e+19
6.65496e+19
6.593616e+19
6.540048e+19
6.47712e+19
6.452208e+19
6.343776e+19
6.372144e+19
6.254496e+19
6.092208e+19
6.077952e+19
6.076656e+19
6.021216e+19
5.888448e+19
5.850144e+19
5.71032e+19
5.616e+19
5.5116e+19
5.488416e+19
5.427072e+19
5.353344e+19
5.381568e+19
5.259744e+19
5.179968e+19
5.134032e+19
4.976208e+19
4.909104e+19
4.936032e+19
4.840272e+19
4.739184e+19
4.66488e+19
4.687344e+19
4.49064e+19
4.374e+19
4.285296e+19
4.304016e+19
4.300272e+19
4.18968e+19
4.20552e+19
4.077936e+19
3.99888e+19
3.949776e+19
3.872448e+19
3.79728e+19
3.702672e+19
3.68784e+19
3.612096e+19
3.523824e+19
3.463488e+19
3.341088e+19
3.24648e+19
3.16872e+19
3.173184e+19
3.123504e+19
3.041712e+19
3.004704e+19
2.980224e+19
2.89152e+19
2.917296e+19
2.830608e+19
2.737152e+19
2.650896e+19
2.605104e+19
2.463984e+19
2.441088e+19
2.369808e+19
2.27664e+19
2.228256e+19
2.130768e+19
2.122272e+19
2.026656e+19
1.958544e+19
1.882512e+19
1.832832e+19
1.74672e+19
1.652976e+19
1.58904e+19
1.505664e+19
1.447344e+19
1.368864e+19
1.308672e+19
1.24488e+19
1.153008e+19
1.096992e+19
9.86976e+18
9.61488e+18
9.08208e+18
8.0064e+18
7.596e+18
6.97968e+18
6.49008e+18
5.71392e+18
5.11776e+18
4.48272e+18
3.69936e+18
2.83968e+18
1.98864e+18
)
;
    }
    inlet
    {
        type            calculated;
        value           nonuniform List<scalar> 5(1.383048e+20 1.3696128e+20 1.3830768e+20 1.3736736e+20 1.388808e+20);
    }
    outlet
    {
        type            calculated;
        value           nonuniform List<scalar> 5(2.16864e+18 2.08224e+18 1.81728e+18 1.85472e+18 1.98864e+18);
    }
    back
    {
        type            symmetry;
    }
    front
    {
        type            symmetry;
    }
}


// ************************************************************************* //
