/*--------------------------------*- C++ -*----------------------------------*\
| =========                 |                                                 |
| \\      /  F ield         | OpenFOAM: The Open Source CFD Toolbox           |
|  \\    /   O peration     | Version:  v1706                                 |
|   \\  /    A nd           | Web:      www.OpenFOAM.com                      |
|    \\/     M anipulation  |                                                 |
\*---------------------------------------------------------------------------*/
FoamFile
{
    version     2.0;
    format      ascii;
    class       volScalarField;
    location    "0.55";
    object      translationalT_mixture;
}
// * * * * * * * * * * * * * * * * * * * * * * * * * * * * * * * * * * * * * //

dimensions      [0 0 0 1 0 0 0];


internalField   nonuniform List<scalar> 
1000
(
272.503866
272.6321968
274.2997245
272.8137142
271.6499122
274.1479455
271.9027132
272.9298249
269.2998693
270.3072192
271.0886012
272.4367468
273.2765873
273.1754318
274.2543256
272.7543125
270.3179874
269.8496684
270.403485
271.6353658
270.071606
273.2949492
272.715677
270.5479279
270.9292554
272.3168536
271.655329
272.9087167
274.2146505
272.7743548
272.022623
272.0371142
274.5127398
274.0287453
274.6898086
272.4553208
272.4352901
272.0635891
269.8397863
271.5930646
271.7252342
271.8270889
271.6198665
269.8996733
269.4205993
271.346515
270.969456
270.4401803
270.2180113
270.989916
270.8245868
270.9499821
270.3831426
272.7344056
272.2603467
271.5475224
270.544163
272.7988889
272.9971293
274.7567094
270.5470051
273.0745663
273.0806015
271.922707
271.9991938
271.8932884
272.5555945
270.1890357
269.9634812
270.5378469
272.7700714
272.7512889
271.2825868
271.3912084
270.4032966
270.0957902
270.2392338
271.5924881
272.0644841
274.2829733
271.9360145
273.0775438
271.9517289
273.0106019
273.4530438
273.4750955
273.271583
271.9730085
271.416173
271.0174112
271.5361102
273.3515603
273.3819238
272.647919
271.3289754
271.6393186
271.789119
271.292947
269.0030801
269.8695644
270.1874254
273.4897454
272.3958104
272.3271008
272.3803354
272.7986411
272.0302153
271.6077166
273.2731085
272.0657542
273.4572106
271.7762633
272.275413
273.1653552
273.1206381
274.2650343
270.9486735
273.2708661
272.1087975
272.4515231
273.5571518
273.3091098
274.376792
273.1474023
273.0612461
274.5410543
274.0012463
275.9302111
276.0760062
275.2849482
276.2946698
275.3628943
275.2322614
272.9889363
273.1500788
273.5706546
274.9542799
277.3790813
275.9746705
276.2506112
276.5771207
275.8446257
275.3583615
273.5363389
275.2998997
276.943223
274.9430829
276.0535987
274.4727408
272.3587481
273.5621632
276.6904849
276.4821779
277.3048332
275.0599785
275.0417043
274.0934837
274.2398907
273.8529239
271.939392
273.3488346
273.1715127
273.7779256
273.0748158
274.0059128
274.8030713
273.6333916
272.7813648
272.9741036
274.6459408
272.4034468
272.3993819
272.4201811
273.1333747
272.5441952
274.5627951
272.4645133
273.8713655
275.0499201
273.6195561
273.1779349
273.3907891
276.3788973
277.034805
271.747151
273.4353115
273.1759824
275.3539396
274.8918686
274.6512175
273.0732009
272.7186551
274.1465633
273.8403784
273.960822
272.4384797
272.6951286
275.1322334
274.274623
273.7789838
273.8372622
273.633161
272.8413909
271.9466904
271.5643471
272.9753363
273.936055
271.6588047
270.1826972
271.7806314
273.1338309
272.3386965
272.3646924
273.6689434
272.3332316
272.8066075
272.8251203
271.6809577
270.4807472
272.9644406
274.1618966
270.9338496
272.0445223
272.5155253
272.128562
271.9818147
270.8621054
272.8543402
272.988225
272.5616419
272.5735803
274.2055574
272.9404329
272.4416368
274.3587758
272.804579
273.1445201
270.0417558
270.9934692
269.739701
272.3167664
272.6653917
271.6870563
272.0766762
272.5170906
273.7876606
270.5642183
270.0731726
271.2189402
269.6064492
271.5142134
271.3089711
272.9135493
274.3092187
274.8620289
271.779637
270.4365496
272.8609917
272.7933115
273.8264684
270.5707747
272.1789095
272.0676294
270.8853734
270.4236376
270.5596181
270.2826188
269.0789689
268.9886469
270.8779931
269.9073204
270.5849902
271.6915409
273.3378836
269.738269
271.6124215
270.9449004
273.4002905
271.1580049
272.0591308
270.7664197
271.4454046
272.9836822
271.197979
272.7449363
271.5917925
272.2412012
272.1099294
270.8484808
271.0550372
271.676028
273.3861161
271.6250026
271.6124996
272.3195698
271.803428
271.5762492
270.8807596
270.5046674
270.2421016
273.0273083
273.8273085
273.0660895
272.384236
273.2122711
272.1840959
273.1539818
273.5919994
270.4363478
271.85633
273.3056405
271.9872124
272.6506472
271.6954071
272.6750202
274.2860876
273.5896695
275.9324131
272.4438589
272.6458118
271.6411081
274.4001633
275.7089049
275.133129
274.3277217
274.1647734
276.1845272
274.256086
274.9556264
275.6560507
274.7496564
275.043432
275.3780626
273.9184274
273.2698235
273.7440286
273.595449
273.8680541
275.2415135
274.831629
274.2176912
275.758667
274.9827997
273.6290403
274.4817789
276.0264609
276.2719066
276.6793797
275.6345241
275.3446783
274.4284285
275.5571211
277.7331493
277.1797288
275.5886878
273.8036287
274.044413
274.385041
274.365955
273.3265246
273.0773759
273.6981507
274.7534364
273.9136161
274.2644163
275.4501189
275.5035109
274.3086307
274.0066382
272.6392281
273.3206833
273.5603833
273.8607065
273.3258417
274.0347681
274.1889508
273.5518601
273.1624839
274.6054911
274.4983148
273.9499627
274.1951742
275.38214
275.170875
272.3440162
274.4490019
273.6363365
274.6016193
274.2736351
275.4675387
274.651335
272.3333509
274.3315682
274.776069
275.4539917
275.1221927
274.0412457
272.6093377
272.5779689
273.7194935
273.6256896
272.0745332
273.9561863
272.3431476
273.3292365
272.5508681
271.5142249
271.6456494
270.6877751
271.7344531
272.3707573
271.8039366
274.3559984
272.0447098
272.6270892
273.6467177
271.0596804
269.7035728
270.7671944
271.1910685
269.3347251
270.275216
271.4113597
271.3654546
271.8876554
272.5600317
270.5148954
274.0733403
271.8479991
272.8232172
271.6659371
273.3386056
272.6850519
272.4089036
273.7792289
272.6136278
274.3398263
272.5470155
271.1859544
271.6290506
272.9553616
272.9256679
273.6279103
272.8210092
271.7162686
272.3584144
270.6889102
270.8440137
269.3930182
271.5107021
272.2908704
270.8034117
272.8131235
272.7224659
272.0253272
271.4854156
271.5235672
272.0081691
272.4487374
273.8141233
269.7260228
272.1033741
272.3358841
269.8700222
272.2051569
271.3827239
272.1134205
270.4477343
269.3087631
269.8419186
271.0166895
271.561936
269.2365657
271.5975603
271.975085
271.4543806
271.4977725
271.7733201
269.1007292
272.063191
271.7549265
271.4566888
271.1835247
272.0896015
272.2967466
271.9149518
272.5214883
273.2913884
271.4106977
272.573686
272.8520425
273.0502628
273.5044484
272.6887449
272.9153968
273.6802579
273.3291565
271.7894375
273.3708121
271.3355342
271.3991154
274.3127483
272.4860655
272.2646629
272.5992347
272.5886727
272.347548
273.009883
271.8693236
272.2526625
271.1958547
272.7934822
271.8579098
271.8678298
272.50511
273.1472079
273.8019842
275.2359911
273.5403545
272.3387908
273.1561429
272.3153152
275.0879333
274.4113549
273.1351841
273.995751
274.440597
275.3584926
274.8081354
274.4558514
274.3773593
274.6910228
275.5508697
274.4870925
273.0433313
274.4323805
274.0261818
275.1517138
275.1646887
274.5996791
276.65091
276.4398599
274.5543345
273.8605918
274.269428
274.8356649
275.558096
275.0598228
274.7873394
274.8942028
275.5695797
277.5383936
277.140923
275.0974526
274.8062683
274.2381589
272.9738687
273.9991173
275.1288997
273.3037205
272.8330304
274.5352165
274.5010709
272.6917634
272.9292523
271.9665957
274.622275
273.5533268
272.9926862
274.1486039
274.0456209
273.1773332
272.4692343
272.9557798
272.8398617
273.0175737
273.5166307
272.6508487
275.0339106
274.2675543
275.2731577
275.0826553
273.6229746
273.9406031
272.859059
273.5954764
273.0137224
272.3824843
273.7403288
275.4333007
273.9040047
274.379868
275.6391154
274.5823705
273.7497413
274.0431065
274.4676478
275.0503797
274.8312644
274.9821727
274.0372721
272.8288865
274.4083368
274.143413
273.0941688
271.7218518
270.5054022
270.7217364
271.0455844
272.2888287
272.1563229
272.925579
271.1990421
271.3715426
273.2824821
273.7018126
272.1253499
271.0114006
271.4684487
270.4004636
270.2429737
270.9007204
270.4697996
270.7074046
272.3958219
271.4016533
271.873378
273.875299
273.6410929
274.0589462
272.7394076
272.5679943
272.4226009
274.1113254
272.8047827
271.3358196
272.2022234
272.8790051
272.0500211
272.8493433
273.3674974
272.9471749
271.6587904
272.1006309
271.1348633
269.8657903
269.5226303
270.7425543
271.4030224
270.6681668
272.686235
273.5977053
272.8811982
271.4488704
272.7971018
270.3623218
270.4550388
272.4204887
272.3672905
270.8176944
269.6663463
270.6589602
271.9810173
269.9013218
272.2196431
271.8925433
271.0914208
269.5858581
269.0158853
270.2430993
271.7123177
271.1424859
270.9126943
272.3584774
271.6238403
273.2643312
270.0606283
271.0123057
272.1171905
272.5970808
272.6748102
271.2719566
271.5214364
272.4577523
272.9685068
273.0271575
272.3307102
271.4897723
270.8957546
271.786412
272.3888705
271.6090191
270.6751233
270.542543
273.0352753
272.8076076
272.043845
271.3225378
271.6272479
271.0054052
270.0711144
271.9586595
271.8349549
272.2662861
273.5048369
271.4753471
271.036047
272.1896914
274.4272967
271.9664481
273.9793107
272.1118957
274.7458386
273.2425629
274.4830181
273.3876125
274.4327125
274.6577936
273.5126718
273.0543983
272.1772307
272.1507248
272.319736
274.4146796
273.3720974
273.7798438
275.1904033
274.5847731
275.2581798
274.5744833
274.6031612
274.2507051
273.8402512
275.9755931
274.8160647
273.1915803
274.2737266
274.7811306
274.101068
274.5285626
276.6061371
275.8797554
274.8990369
275.3676138
274.5911051
273.4981072
276.1773086
275.6562198
273.6976142
275.2419479
275.7500258
274.7906922
274.1023882
274.9516815
273.2614204
274.4904964
271.0324223
273.3440182
274.2544747
273.551324
273.0550356
272.5006806
274.533285
274.3098923
272.2079318
273.3602929
273.3567509
272.9645642
274.3889974
273.2247531
274.1409224
273.0068153
273.390794
273.1732873
272.4295646
273.9475332
272.8060968
274.612226
275.1721728
273.9633576
273.7964211
274.3525216
275.2874705
273.9976102
273.0248683
274.0595406
274.2801287
273.3254173
274.7353941
273.5511143
273.5652833
275.296757
276.0097271
272.8860367
273.0756868
273.0787949
273.0892797
274.2669362
273.4691388
276.4942785
271.53955
273.7528227
273.0585771
272.944213
273.6147551
271.7636579
270.0258436
271.0747311
270.2822512
272.8048003
272.343388
273.4641464
271.7069701
272.9425296
271.8334338
273.2955878
271.8876156
271.3577446
271.049235
271.8623883
270.7770266
272.2274785
272.157042
272.1021992
270.9530419
272.1897059
272.4926607
272.4742224
273.4885225
273.9967083
275.0548969
273.76116
276.1755257
273.9782906
272.6724749
272.263529
272.9956063
275.0171695
272.4182462
272.9349187
272.642721
271.813559
272.0025413
270.869515
271.5905334
270.1690946
270.8117649
271.9303619
272.9753867
272.351724
272.9291159
273.0320014
274.8204586
270.4176213
271.7732254
271.4022971
271.2838988
272.1578812
271.7563504
272.7042848
270.6698461
272.2945602
271.2654738
269.4554574
271.0553777
270.9464573
271.59653
268.5097851
270.7553123
271.5914773
270.8001906
271.7747987
271.6428497
272.1363043
271.8575834
271.2491085
271.6716481
270.4254541
270.2689859
269.5393684
271.7206786
273.0884587
272.6335761
273.8293699
272.8600958
270.7982064
271.7526482
272.8076893
272.2178762
272.8620148
272.1048153
269.3275122
271.8500411
273.4622779
270.1465021
272.8459149
273.5822945
272.0011607
270.9272328
270.2218766
270.9505198
270.9581184
271.2656212
270.3876337
271.291002
271.7749148
271.9114342
271.6538753
270.3248002
271.7995954
271.4591361
272.979114
272.6364922
273.2296008
274.0597205
275.5711715
273.1085479
272.035401
271.3605226
273.3902971
275.2720068
272.6784361
272.3632265
272.0415589
271.8270961
273.2825368
274.7998057
276.5390927
273.9446467
273.1973651
273.2715223
272.5645963
274.1929813
274.8293979
275.05841
275.2445289
276.2018665
276.1073973
274.9783294
276.0120866
277.3619452
276.3914688
275.7277955
275.3256897
275.5884452
275.8079857
273.8920849
275.1254842
274.7603964
273.0952937
273.7301998
273.5549718
273.6498293
274.9036333
274.4085019
274.4871054
272.3938986
272.2646343
273.2597846
273.3796683
274.9438316
272.8499625
273.968712
273.5952844
273.6055655
273.49886
272.9393954
272.0771654
272.7191791
271.913402
272.9894162
272.4012948
271.7871118
274.0412356
275.6287087
274.2272471
273.4990345
274.4608395
273.3378862
274.754888
274.627015
275.9508888
274.677226
274.7227927
273.6548561
274.7137289
274.780059
273.6329494
274.0328548
274.367432
274.758941
275.3556281
277.1653691
273.9454832
272.0860789
272.8640033
273.9709054
274.254055
271.5058007
272.5767732
)
;

boundaryField
{
    bottom
    {
        type            calculated;
        value           nonuniform List<scalar> 
200
(
272.503866
272.6321968
274.2997245
272.8137142
271.6499122
274.1479455
271.9027132
272.9298249
269.2998693
270.3072192
271.0886012
272.4367468
273.2765873
273.1754318
274.2543256
272.7543125
270.3179874
269.8496684
270.403485
271.6353658
270.071606
273.2949492
272.715677
270.5479279
270.9292554
272.3168536
271.655329
272.9087167
274.2146505
272.7743548
272.022623
272.0371142
274.5127398
274.0287453
274.6898086
272.4553208
272.4352901
272.0635891
269.8397863
271.5930646
271.7252342
271.8270889
271.6198665
269.8996733
269.4205993
271.346515
270.969456
270.4401803
270.2180113
270.989916
270.8245868
270.9499821
270.3831426
272.7344056
272.2603467
271.5475224
270.544163
272.7988889
272.9971293
274.7567094
270.5470051
273.0745663
273.0806015
271.922707
271.9991938
271.8932884
272.5555945
270.1890357
269.9634812
270.5378469
272.7700714
272.7512889
271.2825868
271.3912084
270.4032966
270.0957902
270.2392338
271.5924881
272.0644841
274.2829733
271.9360145
273.0775438
271.9517289
273.0106019
273.4530438
273.4750955
273.271583
271.9730085
271.416173
271.0174112
271.5361102
273.3515603
273.3819238
272.647919
271.3289754
271.6393186
271.789119
271.292947
269.0030801
269.8695644
270.1874254
273.4897454
272.3958104
272.3271008
272.3803354
272.7986411
272.0302153
271.6077166
273.2731085
272.0657542
273.4572106
271.7762633
272.275413
273.1653552
273.1206381
274.2650343
270.9486735
273.2708661
272.1087975
272.4515231
273.5571518
273.3091098
274.376792
273.1474023
273.0612461
274.5410543
274.0012463
275.9302111
276.0760062
275.2849482
276.2946698
275.3628943
275.2322614
272.9889363
273.1500788
273.5706546
274.9542799
277.3790813
275.9746705
276.2506112
276.5771207
275.8446257
275.3583615
273.5363389
275.2998997
276.943223
274.9430829
276.0535987
274.4727408
272.3587481
273.5621632
276.6904849
276.4821779
277.3048332
275.0599785
275.0417043
274.0934837
274.2398907
273.8529239
271.939392
273.3488346
273.1715127
273.7779256
273.0748158
274.0059128
274.8030713
273.6333916
272.7813648
272.9741036
274.6459408
272.4034468
272.3993819
272.4201811
273.1333747
272.5441952
274.5627951
272.4645133
273.8713655
275.0499201
273.6195561
273.1779349
273.3907891
276.3788973
277.034805
271.747151
273.4353115
273.1759824
275.3539396
274.8918686
274.6512175
273.0732009
272.7186551
274.1465633
273.8403784
273.960822
272.4384797
272.6951286
275.1322334
274.274623
273.7789838
)
;
    }
    top
    {
        type            calculated;
        value           nonuniform List<scalar> 
200
(
271.53955
273.7528227
273.0585771
272.944213
273.6147551
271.7636579
270.0258436
271.0747311
270.2822512
272.8048003
272.343388
273.4641464
271.7069701
272.9425296
271.8334338
273.2955878
271.8876156
271.3577446
271.049235
271.8623883
270.7770266
272.2274785
272.157042
272.1021992
270.9530419
272.1897059
272.4926607
272.4742224
273.4885225
273.9967083
275.0548969
273.76116
276.1755257
273.9782906
272.6724749
272.263529
272.9956063
275.0171695
272.4182462
272.9349187
272.642721
271.813559
272.0025413
270.869515
271.5905334
270.1690946
270.8117649
271.9303619
272.9753867
272.351724
272.9291159
273.0320014
274.8204586
270.4176213
271.7732254
271.4022971
271.2838988
272.1578812
271.7563504
272.7042848
270.6698461
272.2945602
271.2654738
269.4554574
271.0553777
270.9464573
271.59653
268.5097851
270.7553123
271.5914773
270.8001906
271.7747987
271.6428497
272.1363043
271.8575834
271.2491085
271.6716481
270.4254541
270.2689859
269.5393684
271.7206786
273.0884587
272.6335761
273.8293699
272.8600958
270.7982064
271.7526482
272.8076893
272.2178762
272.8620148
272.1048153
269.3275122
271.8500411
273.4622779
270.1465021
272.8459149
273.5822945
272.0011607
270.9272328
270.2218766
270.9505198
270.9581184
271.2656212
270.3876337
271.291002
271.7749148
271.9114342
271.6538753
270.3248002
271.7995954
271.4591361
272.979114
272.6364922
273.2296008
274.0597205
275.5711715
273.1085479
272.035401
271.3605226
273.3902971
275.2720068
272.6784361
272.3632265
272.0415589
271.8270961
273.2825368
274.7998057
276.5390927
273.9446467
273.1973651
273.2715223
272.5645963
274.1929813
274.8293979
275.05841
275.2445289
276.2018665
276.1073973
274.9783294
276.0120866
277.3619452
276.3914688
275.7277955
275.3256897
275.5884452
275.8079857
273.8920849
275.1254842
274.7603964
273.0952937
273.7301998
273.5549718
273.6498293
274.9036333
274.4085019
274.4871054
272.3938986
272.2646343
273.2597846
273.3796683
274.9438316
272.8499625
273.968712
273.5952844
273.6055655
273.49886
272.9393954
272.0771654
272.7191791
271.913402
272.9894162
272.4012948
271.7871118
274.0412356
275.6287087
274.2272471
273.4990345
274.4608395
273.3378862
274.754888
274.627015
275.9508888
274.677226
274.7227927
273.6548561
274.7137289
274.780059
273.6329494
274.0328548
274.367432
274.758941
275.3556281
277.1653691
273.9454832
272.0860789
272.8640033
273.9709054
274.254055
271.5058007
272.5767732
)
;
    }
    inlet
    {
        type            calculated;
        value           nonuniform List<scalar> 5(272.503866 273.8372622 273.6256896 274.0372721 271.53955);
    }
    outlet
    {
        type            calculated;
        value           nonuniform List<scalar> 5(273.7789838 273.7194935 274.9821727 276.4942785 272.5767732);
    }
    back
    {
        type            symmetry;
    }
    front
    {
        type            symmetry;
    }
}


// ************************************************************************* //
