/*--------------------------------*- C++ -*----------------------------------*\
| =========                 |                                                 |
| \\      /  F ield         | OpenFOAM: The Open Source CFD Toolbox           |
|  \\    /   O peration     | Version:  v1706                                 |
|   \\  /    A nd           | Web:      www.OpenFOAM.com                      |
|    \\/     M anipulation  |                                                 |
\*---------------------------------------------------------------------------*/
FoamFile
{
    version     2.0;
    format      ascii;
    class       volVectorField;
    location    "0.55";
    object      UMean_mixture;
}
// * * * * * * * * * * * * * * * * * * * * * * * * * * * * * * * * * * * * * //

dimensions      [0 1 -1 0 0 0 0];


internalField   nonuniform List<vector> 
1000
(
(0.1727444003 0.832554845 -1.216577104)
(1.179192735 -0.1047012288 0.3576912126)
(0.3298425124 -0.3540735875 0.6828783419)
(1.149493784 -0.9069850842 1.614016815)
(1.771109662 -0.06387191067 -0.293352843)
(1.650205099 0.5665640576 0.01623010461)
(1.540455055 -0.6890993892 -0.1319757847)
(0.3981940533 0.8269828992 0.4232835749)
(-0.7784232858 -0.3466356116 -0.03213785912)
(0.9303967608 -0.9484989539 0.3737282936)
(0.05916199135 0.3591167418 0.4673713297)
(-0.5759085057 -0.8690048696 0.1183786113)
(-0.932610973 0.1241261736 -0.2669895031)
(-0.248367959 0.3802386846 0.08411685129)
(-0.07606415145 0.1619986809 0.792711033)
(-0.5434095919 -0.01632144389 -1.082491785)
(-1.162191075 -0.01557877422 -0.5332475637)
(-0.9820401425 -1.085788814 0.08792119929)
(-0.1525143636 0.4816495134 -0.09370307217)
(0.6356740698 0.2214806581 0.1995062467)
(0.03530486527 -0.8045370609 0.6444404496)
(-0.4498900138 1.07621685 -0.8159033929)
(-0.6399712773 -0.7259388831 -0.6575576963)
(0.9929640008 -0.191125859 0.066589336)
(1.142918652 1.325653065 0.114221063)
(0.4750869463 -0.9108239615 0.4960465979)
(1.16570809 -0.6108074439 -0.5078445275)
(1.236963507 0.9970580505 -0.7472221993)
(0.688049242 0.6060149676 0.2577567682)
(-0.5280698688 0.5838541473 -0.08767734446)
(0.04455981746 -0.339852312 0.08999505356)
(-0.3856907125 -0.3873986573 -0.01527255207)
(0.004829961877 0.3441630014 0.5953340305)
(0.4867190477 -0.3037802225 1.860111871)
(0.7322078337 0.1844060057 0.4521188876)
(-0.5918763184 0.579845208 -0.1883119966)
(0.3758032598 0.2565039244 -0.388388361)
(-2.034819845 0.1254059919 -0.3890284203)
(-1.015839026 0.3429334705 -0.6516071019)
(-0.2400277102 0.1091438409 -0.4848953131)
(0.1586586931 -0.3638180307 -0.4090962811)
(-0.5258646116 -0.3101291816 -0.4026128897)
(1.243181607 0.0967055888 -0.6358906423)
(0.5117881973 -0.07681941892 -0.1088551756)
(1.553426161 -0.6924815561 0.1172755794)
(1.575601012 0.2860403385 -0.3769206921)
(1.271630579 1.482219479 0.6192785152)
(0.6684161221 -0.01257134346 -0.814123428)
(-0.01966790398 0.4376955043 0.6294342392)
(-0.9397904711 0.1388947012 -0.02240946714)
(-0.8686252693 -0.7074910726 -0.4038136532)
(0.1689459056 -0.2868273741 -0.02146441827)
(0.8614858385 0.3893011094 0.417538826)
(-0.9040136657 -0.07094272446 -0.01589902921)
(-1.163097568 0.4447022241 -0.1059319432)
(-1.033730487 0.7826393489 1.197825289)
(-0.6286965562 -1.361680752 -0.6261823475)
(-0.1957606988 0.1150572619 0.2184008954)
(0.63177121 -0.9052182569 0.002197685585)
(-0.1801867127 1.12950131 -0.1784912016)
(0.333750218 -0.7012589661 0.4142715526)
(0.2300856206 1.195619007 -0.555526742)
(-0.4424977122 0.08964695303 0.4628081598)
(-1.480456847 0.8989372941 1.07733065)
(-1.77531885 0.1845386186 0.1053719808)
(-0.9631650182 -0.4331821287 -0.8843057402)
(-0.6013857597 0.2066243566 0.290124667)
(0.4891860473 -0.6255309049 0.1347216545)
(0.8779493831 -0.625327283 0.4010399949)
(1.044670806 1.134030048 -0.01123047376)
(-0.4305243771 1.032173532 0.777151287)
(-0.07485349748 -1.050895565 0.1057782769)
(-0.2094437636 0.9548672205 0.2652625563)
(-1.353772243 0.3083380721 0.244919312)
(-0.7670798427 0.4865520381 -0.5206846779)
(-0.8864451573 -0.434348846 -0.5096597458)
(-0.03630784059 -0.594238097 0.2919272637)
(-0.2950897747 0.1065903777 1.007875511)
(0.2015252246 -0.7670616144 -0.8921420786)
(0.3116149929 0.3632701287 0.7318730694)
(0.3101351409 -0.4957469229 -0.4167912265)
(0.6663561349 0.3717897557 0.9557866371)
(0.4980053697 0.1896209435 -1.136140712)
(1.042293952 -0.103918737 0.1119951153)
(0.617788203 -0.4656777472 -0.08745307065)
(1.235375313 0.3723031022 -0.1439935929)
(0.4572193175 1.239830468 0.1260311366)
(-1.023517098 0.9209163838 0.09318421704)
(-1.466349238 -0.3578635904 -0.197585687)
(-1.1069622 -0.7084390125 0.8467472057)
(0.2778064981 -0.1226917216 0.6257035793)
(0.08470268994 0.4995654178 -0.8819537169)
(0.1762233799 -0.5554745187 0.6289100991)
(-1.038012939 1.140193988 -1.021826119)
(-0.8965662811 -0.04416187115 0.6701906309)
(-1.487679398 -0.3282929645 -1.049533623)
(-1.444919962 -0.2121493879 -0.2993375452)
(-1.5343566 0.6399726955 -0.05497976528)
(-0.8141100025 0.3866530792 0.1998309533)
(-0.7318815586 0.0286866116 1.650110641)
(-0.6155422946 -0.2640461184 -1.345194667)
(-0.2968727658 -0.3010019998 1.209495407)
(-0.1325490368 0.07381226181 -0.133869289)
(-0.9812036083 0.242120012 -0.9871745604)
(-0.3727770104 -1.465915272 -0.2247553719)
(-0.7363373352 1.064230226 1.69703306)
(0.131656732 -1.393981712 0.2666830924)
(0.2290909039 0.6512241278 -0.2893055245)
(0.5217426738 -0.6588265368 0.8252429911)
(0.1579810803 1.86862262 -0.2978413886)
(-2.657742881 0.187659379 1.093488208)
(-1.372243222 -1.266520515 -0.3211295773)
(-0.7687813436 0.1571609416 0.124657338)
(-0.4415773285 -1.202971031 -0.6420523308)
(1.074461128 -0.2236353061 0.4443373224)
(0.00169707426 1.797414557 0.2047391064)
(-1.088636139 0.6694777525 0.03795353115)
(-1.203581015 0.3104271693 0.1175171752)
(-1.095537999 -0.7942587016 -0.5183039803)
(-0.8473620629 -0.3024413134 -0.23096609)
(-0.3449956634 -1.035585558 -0.9326086825)
(1.892851463 -0.3897889456 0.3011425191)
(1.164367167 0.3805535903 -0.4229474398)
(-0.4486986695 0.6912713165 -0.3123193965)
(-1.474339341 -0.3458816796 -0.3813279562)
(-0.6855917989 -0.9640146565 0.3402335536)
(1.074642167 -0.04222724114 -0.2305977647)
(0.8513200573 -0.5088787262 -0.03060979348)
(1.453779297 -0.05636927814 0.205233002)
(0.7167559557 -0.07461488515 -0.5031031466)
(1.136706104 0.0692732692 0.2894321531)
(0.4019248222 -0.1017627872 -0.8620576019)
(1.376178636 0.2429910424 0.8078269789)
(0.6982004461 0.4450166349 -1.221115898)
(0.5508959879 0.9003330015 -0.1600894916)
(-1.694576983 0.5816743501 0.0527751933)
(-0.7559166314 -1.004132286 0.006996158583)
(-0.7658844359 0.4096789809 -0.3002640681)
(-0.9331067511 -0.897659505 -0.4955211763)
(-0.4614730749 -0.2324417133 -0.5523424364)
(-0.1013768685 0.4934230706 1.34547926)
(0.1292428185 -0.4961301147 -1.220563235)
(-0.4346780992 1.153251003 0.8245955354)
(-1.086872616 -0.01559591513 -0.9310879464)
(-0.5125848505 -0.5357077993 -0.1743229354)
(0.03902912295 -0.4041956494 0.5922130669)
(0.6632983468 0.5333686764 0.3669659937)
(0.6280950585 -0.1086804077 -0.4534219354)
(0.1770728752 0.03705055938 -0.7298496718)
(0.9723040617 -0.4052911128 -1.487429622)
(0.03106930894 -0.3234761875 0.1609662882)
(0.9150649217 -0.6185345098 -0.3025832555)
(2.301272502 0.112256333 -1.024328818)
(1.761502385 -0.1238692622 0.6627175268)
(1.330311627 0.9679439244 0.3021823765)
(0.7791206604 -0.3293653512 -0.2080293879)
(0.1745866478 -0.164189789 0.06925244472)
(0.07731464606 0.4564770008 0.2668978857)
(0.1939911398 -0.6354113777 -1.396250517)
(1.041424699 0.6831718831 0.3702446139)
(-1.572421772 1.356700354 0.6529053268)
(-1.238522573 -0.675618182 0.5230152959)
(0.5085115242 -1.162058303 -0.3447892046)
(0.71912548 0.4459739375 -0.3383508659)
(0.4145062361 0.09315525517 1.141722415)
(-0.5419166333 -0.3772104219 -0.5902631926)
(-0.8618907975 0.3659767559 -0.3704096138)
(0.4134035028 -1.171581311 -0.6079568419)
(1.545902241 -1.026504717 0.3632724194)
(1.302487342 0.4767394913 -0.3986833517)
(-0.248025498 0.7874474645 0.8732492792)
(-0.5461839594 -0.6051051319 -1.292690527)
(-0.9009573679 -0.4690782331 0.5852273923)
(-0.09549604138 0.009808445344 0.03177747293)
(0.5975261699 -1.537996209 -0.3639299212)
(1.348204312 0.2804574803 -0.05231131661)
(1.948801376 0.14129283 0.9702673598)
(0.1487108363 0.9667005437 -1.196729035)
(0.09271072059 0.4590589865 -0.136982414)
(0.3595490181 -0.63585155 0.6406995443)
(0.3758607988 0.5640164037 -0.1151527566)
(-0.6432307656 1.302998171 -0.1214607323)
(-0.7698100718 0.5836710469 -0.686663282)
(-0.9735087976 -1.047774214 0.3209105863)
(-0.5717206315 0.9014908786 -0.04050578455)
(-1.281320267 0.4954043013 1.144714477)
(-1.137349669 -0.6983623122 0.6011041911)
(-1.774968027 0.2851199288 -0.1014661836)
(-1.044566751 -0.1152265225 0.5266894632)
(-1.124261972 0.4747900671 0.6274525364)
(-1.210398585 0.3641187988 0.6614881014)
(-0.9100206439 0.3376055142 0.27031634)
(-2.364005184 -0.03963760834 -1.100572517)
(-1.736531155 -0.8678161707 0.09546224702)
(-0.9760267462 0.04939452692 0.3782682673)
(-0.9692466038 1.286306328 0.2954635738)
(-1.141570688 -0.7192347629 0.003523748061)
(0.8086976054 -0.7525131779 0.19100023)
(0.1118485555 -0.1239170549 -0.2181996441)
(0.45056125 0.2211638064 -0.3160036871)
(0.2778276055 -1.053283473 -1.01521738)
(0.0219448631 -1.249702261 -0.01214324056)
(0.4841069898 -0.4537707205 0.6341696686)
(-0.8799461666 -0.3906934487 0.07406525107)
(1.212343283 -0.2864062205 -1.770823552)
(-0.3658995401 -0.5753724999 -0.1971661532)
(0.7142971757 0.1486311699 -0.2265354434)
(0.9701088001 1.846048042 0.3841682218)
(1.498749945 -1.312768823 -0.4683114697)
(0.644005007 -0.09590202636 -0.03751923817)
(1.220950533 2.029213206 0.1544553277)
(0.05702660091 0.4534606948 -2.001257008)
(0.3415401543 0.6152603175 0.9463034255)
(-0.3117255666 -0.8969085949 0.2028224025)
(-0.7333767125 -0.05453488304 -0.03063962982)
(-1.115841361 0.924590822 0.3132130238)
(0.2631633541 -0.2789368136 0.4369866101)
(-0.151598021 -0.1410286518 1.034169714)
(-0.1870490752 -1.351414472 0.9688694288)
(-0.3660451886 0.2495174075 0.2400508479)
(0.2017810859 1.090918601 1.190267959)
(0.1721910526 -0.7104533425 0.7815655279)
(0.8787275425 -0.2091181294 0.3375484796)
(-1.043534354 -0.7249558729 -1.06597064)
(0.1584810019 0.1468782056 -0.3219249165)
(0.7337811092 -0.9196895319 0.08405297047)
(0.2140006192 1.410689815 -0.2490746946)
(-0.8789287634 -0.2670507827 0.4052429027)
(-0.5206807343 -0.09147709655 0.3256636335)
(0.3536031641 0.7302445248 -0.4176390717)
(0.6731601248 0.4766691414 1.605715415)
(-0.8743857421 -0.2347870593 -0.8255988331)
(-1.07356417 -0.1485656181 -0.6176316406)
(0.2045613422 -0.5196739404 -0.3249988665)
(-0.5773724564 0.2912299629 -0.1354454819)
(-0.2077689668 1.051401506 -0.4504925995)
(-1.289195633 0.9737668202 0.01221663389)
(-0.3538810183 0.6127849764 0.4808251524)
(-0.009675021114 -1.739876557 0.402166064)
(-0.4407398897 0.4225437265 -0.3857795042)
(0.2101883923 0.226610444 1.148950654)
(0.5326890874 -0.976988181 -0.4716317143)
(-0.1237569066 -0.9885541647 0.003138328331)
(0.8853014263 0.4805407619 -0.07748481832)
(0.5759204765 -1.633451477 0.5676377744)
(0.1680485546 1.053410399 -0.9073182597)
(0.1335708818 1.607358519 1.173405377)
(0.2868229843 -0.4557263794 -0.3521647667)
(0.6687670894 0.4603705319 -0.04059944562)
(0.5825302282 1.143880171 -0.2741517362)
(-0.4380723201 -0.8112978003 0.3793039071)
(-0.3196996726 -1.69260081 -0.04977683183)
(-1.730418278 0.9565997547 0.3011132547)
(0.2861398578 0.9179658547 -0.411797215)
(-0.1624600158 0.180655057 0.02104901999)
(0.6617537044 -1.996559896 -0.4968887565)
(-0.3063774354 1.101440468 -0.2521634737)
(-1.047432188 -0.5593820056 -1.444317026)
(-1.499762169 -0.01505629321 0.2077142928)
(0.04352599994 0.4543907937 0.07765624469)
(-0.7222700055 -0.6647522937 -0.802722635)
(-0.3006044938 0.5304712042 0.1579520203)
(0.447355651 0.2591987263 0.512983504)
(-0.1585953268 1.203605077 -0.03470851981)
(1.351955893 -1.052263593 -0.5162064202)
(0.007179492996 0.2556290073 0.1662367914)
(0.2589724294 -1.211714648 0.03175693447)
(-0.6869030672 -1.190877633 0.1388474053)
(-0.3374854325 0.5807294246 -0.03321846437)
(-0.7447781074 0.09245509815 -0.6291565714)
(1.189753496 -0.1678014449 1.682037455)
(-0.2126864424 1.066771023 -0.2191321785)
(-0.003461271311 -0.001108028663 0.27198882)
(0.04114993115 0.5708360963 -0.2551313836)
(-1.55724241 0.01392056903 0.5663266208)
(-0.01901609159 -0.8269014018 -0.6501204336)
(-0.3616576342 -0.7292095914 0.1349470817)
(-0.6153075655 0.7955989837 0.2859985423)
(0.2836469133 -1.058917648 -0.06692713418)
(-0.1700770089 0.1504989842 -1.323599827)
(-0.5069028917 0.1529520191 -1.036004092)
(0.1025511888 -1.914141535 -0.04533157833)
(-0.4570587685 0.8126855753 0.2958832333)
(-0.6275901807 0.5438481227 0.8772528796)
(-0.9187470341 0.3353226389 -0.8630584918)
(-2.656051563 -0.01397903948 -0.4258926461)
(-1.681998823 -0.09916678764 1.106685206)
(-0.2602999202 0.75831923 0.2542163885)
(-0.006669696055 -0.7351590525 0.2235947761)
(0.09454609875 -0.9665449582 0.1496269759)
(-0.6923745832 -0.751732234 0.6272004453)
(0.9922542212 -0.3298019918 -0.5518634761)
(0.9923637048 0.2666733941 -0.1471401993)
(1.008089637 1.049279583 -0.04339160343)
(1.242739793 0.9147503539 1.7798525)
(-0.4559604716 -0.9062489192 -0.812069618)
(0.2445319424 1.727016667 -0.06264182747)
(-0.06770278175 -0.5538970253 -0.9884287013)
(-0.2488330833 -1.222673987 0.3050452957)
(-0.6301910216 -0.6152227735 -0.5368061012)
(-0.7847895446 1.172188044 0.2985623106)
(-1.104667449 -1.127445428 0.6124644104)
(-0.4040093485 0.3293631449 -0.2307407371)
(1.77060411 0.1479868995 0.1244745599)
(0.4631352583 -0.4841262984 -0.2609448903)
(0.1500262213 -0.0280327144 0.2279979919)
(-0.5667910563 -0.1220715941 -1.680624527)
(-0.1769392327 -0.4658739395 -0.004998228229)
(-0.9476928804 -0.4505786724 0.3116898062)
(-0.7696196263 0.6552566035 0.1696022136)
(1.596828085 1.133148489 0.4843339012)
(1.222553369 -0.6712661085 -0.2832627476)
(-0.5313218389 -0.8565161165 0.02703825322)
(0.1243788049 -0.4775153518 0.5556454188)
(-1.847325333 -0.1120890061 0.6738780145)
(-0.7020185033 0.4862602939 0.2270169505)
(-0.1264947022 -1.054805561 -0.01805004253)
(0.04481779657 0.5015523032 0.2005328711)
(0.9493451533 -0.2645496799 -0.4670657117)
(-0.4478394288 0.07437815497 0.1173262465)
(-1.143060409 -1.863406805 0.6282124775)
(-0.5697449363 -0.7962816697 -0.08058299909)
(-1.619485802 0.3376002786 0.1761525232)
(-0.4953446624 1.416988211 0.5412472847)
(-0.6210071011 1.455093157 -0.0734015734)
(-1.452570221 -2.013342892 -0.4447435739)
(-1.713236832 -0.3085416117 0.212046849)
(-1.031747401 -0.7334223278 1.164992675)
(0.1594527312 -0.9989800333 0.6727386375)
(1.470652159 0.7136646308 -0.7416335864)
(0.6494098565 0.4167423275 0.6295091646)
(0.1095433195 0.520338077 -0.3824686946)
(-0.0666637454 -0.370279512 0.9407695668)
(0.08717857323 0.2982860726 0.1718863597)
(0.06595961311 0.9920103081 0.4688269259)
(0.6869429427 0.4653256791 0.4439904555)
(-0.2814048714 -0.5584934141 0.8214033553)
(-0.7106645923 0.9099217307 0.2227102256)
(-0.6345921118 -0.7358281266 1.049529258)
(-0.4109548625 -0.832938704 -0.7778731139)
(0.475764674 -0.1754959573 0.5935031617)
(0.2945879235 -0.4210835941 -1.044029054)
(-0.3243749747 0.8197121258 -0.371776822)
(0.07030249316 1.113411259 -0.1704601416)
(-1.171916283 -0.5813093411 -0.4251443815)
(-1.129624873 -0.3991611248 -0.1596850535)
(-1.328652321 -0.3861300675 0.7326428512)
(-0.2794993194 -0.08510578581 -1.013025896)
(-1.192550524 -0.5605139998 0.6753360753)
(-0.009622004486 0.6715238543 0.0541464077)
(-0.4978697218 -0.6701908815 0.6462946175)
(-0.3548768939 -1.038942219 0.2130862713)
(-0.3208731716 0.2514777383 -0.4303564374)
(-1.38327286 0.203410115 0.7706315096)
(-0.252311431 0.2567059361 -1.13618123)
(-0.5500453709 0.4923876465 -0.07089861525)
(0.1871394483 0.441909034 -0.5230398296)
(-0.001270907211 0.864578266 0.04353288066)
(0.01652022122 -1.293078006 0.587513672)
(-0.1011121404 0.6570785311 -0.03025581292)
(2.092531182 0.3800639341 -1.391819523)
(0.5295782491 0.5088332502 -0.8125375073)
(-0.8732796887 -1.413717389 0.2398369788)
(-1.425638257 -0.03211515114 0.5851145034)
(-0.3795853232 1.429959596 -1.094182265)
(-0.1308863792 0.3963467314 0.5764160292)
(-0.2094619216 0.1780948226 0.5417538936)
(-0.1277314836 -1.039302578 -0.173503619)
(-0.9897609079 -0.8822014395 0.5213099951)
(-1.312564782 1.742425492 1.702680081)
(-0.7660036427 1.411155296 0.1841999163)
(-1.746537851 -0.6505090887 0.1956320885)
(-1.11890311 -0.6824347747 -0.5200459472)
(0.0970576445 -1.192895322 -0.9468525622)
(-0.3453331648 -0.4426141499 -0.6324915759)
(-0.531755717 0.01265125644 0.03019014361)
(-1.135554444 -0.2494548106 0.3233070784)
(0.598144436 0.616070641 0.01840597234)
(0.2729833943 -0.1654968266 1.295490552)
(-0.1876631179 0.08735583518 0.3077542048)
(-1.486856152 0.9180284212 0.549857487)
(-1.290402175 0.9950253679 1.351425598)
(-0.7308228397 0.01621738202 0.4055782638)
(-0.9406531428 -0.5453680485 -0.4511141863)
(-1.103470897 -0.5671649636 0.5882703052)
(0.0176799389 0.523509887 -0.7151073026)
(-0.4223271756 1.130962426 -0.7516697223)
(-1.214099088 -0.5568997722 -0.3461440179)
(-1.251142304 0.9043956364 0.6446183036)
(-0.2678333795 -1.605925574 -0.008767678856)
(0.4321387753 -0.1032298896 0.2361940989)
(-0.2527524795 1.929398945 -0.3987769182)
(0.1050803945 -0.4544423853 0.6977517138)
(-1.238411888 0.06836954799 0.1208713258)
(-1.1417434 -0.1465185561 1.277631209)
(-1.249948423 0.7483306878 -0.4673195999)
(-0.5035139692 -2.036498879 0.4727507784)
(-0.9487478408 0.05171926676 0.03288695419)
(0.4521279923 -0.7868938937 0.2584195002)
(0.3273610803 -1.053527794 -0.1018106457)
(0.2860086135 -0.1656244666 1.213641555)
(-1.056889866 0.18478811 0.3343972335)
(0.1699722309 1.680082407 -1.510959538)
(-0.5781891851 -0.6636278546 0.2453840356)
(-1.07587253 0.1831968357 0.4582258939)
(-0.3165195255 -0.5568554466 -0.8873834857)
(0.9525687971 -0.7024294824 0.4052465135)
(0.6833099996 2.495226544 0.1956937307)
(0.1102783372 0.06880255277 -0.5912377211)
(-1.581977079 -0.04578768096 0.4970073418)
(-1.217769082 -0.5119288874 -0.3470575482)
(0.800537685 0.5544664199 0.8402264872)
(-0.23925838 0.06295717058 0.2866807173)
(0.240910057 0.08369489271 0.4932193619)
(0.9754341624 0.5727045942 0.3876247133)
(-0.2472713798 0.6650519454 -0.5951426006)
(0.9850914009 -0.1615642028 0.5919799964)
(0.4431773145 0.1853354458 -0.7677918426)
(-0.7512175569 -0.8097071807 -1.487351448)
(-1.26134435 0.1023945492 -0.5683124347)
(0.1357123946 -0.1461988491 -1.308896342)
(0.2993463306 -0.06100552522 -0.5825349205)
(-1.150031754 0.3453698093 0.7407812016)
(0.9448065908 -0.1115436918 0.1206921089)
(-0.4328776996 -0.7361306335 -1.143893358)
(-0.3530526106 -0.2638955871 0.9923717147)
(0.3968932252 1.880911515 -0.1953343966)
(-0.4313311436 0.1315394542 -0.1589664465)
(0.7555578068 0.04533475571 0.2941665817)
(0.06326709454 -0.8012828455 0.4561317858)
(-0.4930035872 0.6107872637 -1.489986466)
(0.8064806344 0.2449424577 0.4937036849)
(0.9578929781 -0.4357297615 -0.6148063069)
(-0.578375359 -0.9769744216 -1.012756225)
(0.288151167 0.5538967199 -0.01942307556)
(0.5821417752 1.269093633 -0.8815266304)
(-0.1212852257 0.7314531079 -0.08036172697)
(0.5348333221 0.1176714788 0.3912362387)
(-0.1035240403 -1.251131093 -0.3460805275)
(0.1761714933 -1.248482805 -0.5892852343)
(0.3688979557 0.2514775959 1.201209802)
(0.4787872169 -0.9178566944 0.5153552465)
(-0.3004164596 -0.3874270769 0.5493602972)
(-0.6505261117 0.3450650195 -0.55344828)
(-0.5241380202 -0.1483068317 0.2591966221)
(-0.9062870818 -0.5202055572 -0.1456348574)
(0.1587248343 0.7562241276 -1.139033653)
(0.1971288719 0.08790761418 -1.332693013)
(0.9158607729 -0.1870788088 1.15022169)
(1.288165026 1.596880762 0.4850383294)
(1.636565196 0.3109537494 -0.04106384184)
(0.2708203012 0.0187548304 1.072067955)
(0.4137763779 0.3156485045 -0.9776431916)
(0.1129929669 -0.2662401211 -0.229652548)
(0.1066684441 0.6292143384 -0.1638236428)
(-0.6023759218 -1.229779993 -1.316982192)
(-0.4197237512 0.5493192837 1.180474378)
(0.358092435 -0.5173837222 -0.2698427781)
(0.1099143067 0.6823754519 0.8344120816)
(-1.048024998 -0.9901970983 0.2580137837)
(0.3510023956 -0.7840860528 0.8698537287)
(0.6644777917 0.2292260688 0.09260487261)
(-0.2683384614 0.7757394356 0.1017297561)
(0.1676489889 0.05162097398 -0.02439991034)
(0.591692999 -0.7168359904 0.5563503502)
(-0.2679364806 0.6471353153 -0.1630478931)
(0.5105091949 -0.6884396631 0.4421933524)
(0.04818632116 -0.1982776858 -1.887143186)
(-0.05252312938 -0.3788315741 0.5368073687)
(0.6233852888 -0.8119154006 -0.3391691037)
(-0.2051643519 -0.01762135398 -1.428531192)
(1.157399116 0.9049816222 -0.1843037889)
(-0.7205382185 1.295152252 0.5439043528)
(-0.9910261673 0.3922500879 -0.3994426646)
(0.6081973959 -0.8985779532 -0.06152693792)
(0.6252912948 -1.295348324 -0.2973459091)
(1.024431622 -0.7101671266 0.9026211273)
(0.5843182544 0.3013099885 -0.4080503744)
(-0.0003992998528 0.1680650371 1.669557109)
(0.5201773604 -0.6358782042 -0.4014604142)
(0.3208899004 -0.2134133635 0.8787937301)
(1.991592134 -1.152702805 0.3352265088)
(2.103520866 1.352603145 -0.2280581851)
(0.6630030591 -0.08557113072 0.5732609542)
(1.247255789 0.9868141508 -0.1790222293)
(0.7673690773 0.6446717661 0.3496623829)
(0.6630916991 0.4040729959 -0.3371420794)
(0.9859237451 0.5075474136 0.7851162571)
(0.4599452501 0.657805365 0.463839164)
(-0.4408587514 -0.9968573284 0.2710620618)
(0.6483602211 -1.479886435 1.304725521)
(-1.177164666 -0.489244018 -0.396570379)
(0.1453164283 0.4137991627 -0.246062912)
(0.1723463345 -0.08162857564 -1.01372501)
(0.6974177175 1.717731488 0.1871037025)
(0.02686528325 0.2450545185 -0.4624670179)
(0.4798358418 -0.3957447897 0.2360318464)
(0.3442061144 0.5491830308 -0.173486268)
(-0.08654463734 -1.750166333 -0.5565888697)
(-0.9401540152 1.459723642 -0.04437318279)
(-0.007717530845 -0.2937891174 1.009662957)
(-0.05885860783 -0.7275461956 0.2877443206)
(-0.8716339457 -0.983234154 -0.8586661784)
(0.1814594803 -0.2898126292 0.2249872726)
(0.5924784196 -0.1064101591 0.6034605523)
(0.8823535859 0.7493989303 -0.696253301)
(-0.1675793528 -0.7123716271 0.168298721)
(-0.5235682365 -0.701428578 -0.2659951148)
(-1.580760572 0.4350461928 -0.08559537422)
(-0.3002384435 0.3553011638 -0.4834276228)
(-0.4291497569 1.369003834 -0.3234818716)
(-0.3195727825 -0.4641644843 0.1654183469)
(-0.3420001903 0.1484887629 -0.1089000652)
(-1.082967345 -0.6018498611 0.1162155515)
(-0.7396736602 1.279625434 -0.4111161484)
(-0.6223102806 0.1283287817 -1.933525784)
(0.009525979028 -1.114843859 0.7839328032)
(-0.3294400993 0.7597618657 1.517638674)
(-0.8544126119 -0.03899486533 -0.6754073731)
(-0.6454953637 0.8988854266 -0.9203833897)
(0.6674911772 -1.286337749 0.4658405756)
(-1.594531819 0.5625134123 -1.093131541)
(0.03683907909 -0.09448510951 0.7623811187)
(-1.814680974 1.324955231 0.104690066)
(-0.6294289927 0.348873438 0.7642520224)
(-0.04966148106 0.04054413144 0.2238731327)
(-0.01023462279 -0.3890664848 0.1202609557)
(-1.829341542 -0.4621132356 -0.03166281692)
(-1.408582529 -1.61453369 -0.3956249328)
(-0.09512855911 -1.419256029 0.01613200964)
(0.2844797805 2.040746747 0.4366620658)
(-0.7103732921 0.08654607588 -0.4168732507)
(-1.290128507 -0.2771909529 0.3310541175)
(-0.4074722643 0.7065160073 -0.02972737425)
(-0.312988758 -0.9569474079 -0.209957807)
(0.07574858636 1.555586064 -0.04665925245)
(-0.2670394121 -0.01231990678 -0.6304484091)
(0.120909862 1.788991774 0.5211348844)
(-0.6375434254 -0.2147805954 -0.8688113878)
(-0.8873397899 -1.710211558 -0.4434226645)
(-0.5490470375 -0.4063824218 -1.017900797)
(-0.6992148463 0.5186734242 0.2914111218)
(0.6706621096 0.9725451815 0.5703413346)
(0.7260297246 0.5665095453 0.4993789586)
(0.4398270841 -0.3510367483 -0.06027436737)
(-0.6939999438 -0.1684398701 -0.3733385244)
(-0.5365036252 -0.4294230487 0.01087826101)
(-0.1857490801 -1.015554742 -0.2185569675)
(-0.2041524735 -0.1946576986 0.7723633135)
(-1.250004711 1.074761191 0.7999849077)
(0.4472361926 -0.7050396144 0.9108804689)
(-0.8124981854 -0.597751064 0.3076902595)
(-1.656037841 0.4604190021 0.2973428047)
(-0.669980209 -0.4541793214 0.489548607)
(-1.691724707 -0.4434086874 -0.584168206)
(0.3646914449 -0.07618326659 1.10035751)
(0.03642142931 0.1929992491 -0.1028569535)
(0.7192095168 0.3407712118 1.062426069)
(0.8769744957 -0.3109016841 0.08931538516)
(0.03509399282 0.1403818282 -0.5511144984)
(0.6010032249 0.3772369037 0.8780943429)
(-0.0262865557 0.7755084087 0.07693937987)
(-1.775470456 -0.2338307563 0.3073457591)
(-1.067772789 0.168590112 -0.9763251226)
(-2.217031367 -0.6884521856 0.1239762852)
(-0.6572590358 0.1809900907 1.363285838)
(-0.4559197043 0.7114080465 0.3684957801)
(-0.464895017 -1.160204769 -1.131011327)
(-1.550462954 0.3992629543 -0.1410935986)
(-0.9329719881 2.057731163 0.1682439307)
(0.5068167644 0.7188324228 -1.40122281)
(-0.2026935008 0.9367266686 0.2417633828)
(-0.8531439573 -1.469710565 0.5954237233)
(-0.6391970433 -0.9939836702 1.059929567)
(0.3884651498 -1.06796586 1.318782237)
(-0.4668915162 0.4721324218 0.7743498154)
(-0.5840440112 -0.6557354958 -0.06717905685)
(-0.5406283764 1.759049738 0.154774805)
(-1.197290969 -0.5711093255 -0.1041531906)
(-1.348140597 1.493175937 0.229273144)
(-1.330620508 -0.1762084927 -0.2476538335)
(0.1048827472 0.05777127805 -0.1244160257)
(1.000128942 0.3836787389 -1.291953193)
(0.9217684448 -0.4209590846 -0.3259983861)
(-0.2057847926 -0.07351518458 -0.8384558115)
(-0.2263772683 1.442484148 0.1190859017)
(-0.2363772996 0.0193741255 -0.1783549495)
(-0.180191596 -0.6852743027 0.07170970842)
(1.223825356 0.2914008203 0.2879525569)
(-0.6320594186 -1.018014507 -0.07687254929)
(-1.039986824 -0.2826250892 -0.4656772372)
(0.3015455305 1.539435443 -0.152999323)
(0.1025288573 0.4158113681 -0.5829347781)
(1.023510819 0.1946442739 -0.5649488888)
(1.667307411 0.05049364195 0.8516611199)
(-0.00813774615 -0.7512592616 0.05107873645)
(1.098621058 -0.9263025609 -0.7466018963)
(0.7892716216 -0.9835922985 -0.3644689615)
(0.1767623359 -1.058281775 0.7363997639)
(-0.7844497077 0.9967071289 -0.3215943495)
(0.2898163181 1.089924675 -0.2859308387)
(-0.9652375856 -0.5028556035 0.4623204744)
(-0.6192991025 -0.2179103057 -0.3188355607)
(1.086621453 0.4712642714 0.5793628214)
(-0.03132849569 -0.2542075958 1.485029872)
(-1.001826128 -0.004276636514 -0.8817899212)
(-2.332787922 -0.8106876241 -0.5038492921)
(-1.087378482 1.187521845 -0.7032884278)
(-0.5466842982 0.9464325884 0.2251190028)
(-0.4220017069 -0.2289496729 0.1641830942)
(-0.240674971 0.3043353217 -0.1363942456)
(-0.5673628861 0.8825204173 -0.424480006)
(0.6716039018 -0.7493145604 -0.1791921297)
(0.1688792081 0.5430688722 -0.6832951163)
(-0.7110802732 -0.1183902571 -0.1658824713)
(-0.7261650144 0.893464478 0.3965076019)
(-0.1578721497 0.2987143226 0.3880201476)
(-0.9412813081 -0.337179213 -0.4135948111)
(-0.2613861676 -0.1244856154 -0.9025156883)
(0.4022588933 -0.1247703998 -0.1102633873)
(-0.6320653836 -1.713654795 -0.4768424852)
(0.7978347817 0.6035743435 0.160896086)
(-0.256318645 -0.510627159 -0.55907811)
(-0.00203641633 -1.161141541 0.4231551121)
(0.0046428832 0.8680444555 0.6876772854)
(-1.451734787 0.4947853171 0.1627243216)
(-1.740533845 0.543507809 -0.531906146)
(-1.242203169 -0.6582835086 0.3258964669)
(-0.6473580935 -0.5664439423 -0.04991293771)
(0.6224846082 -0.7407048563 -0.1835641031)
(0.3329678051 1.191368595 -0.824218627)
(-0.4212001753 -0.4487067408 0.307232572)
(-0.409060181 0.1942454469 1.62679015)
(-0.1929510841 -0.5902976777 -0.7116488116)
(-1.062486775 -0.131573768 0.8950701841)
(-0.9020052388 1.706297183 0.4746344769)
(0.3766288027 -0.5567104755 1.156453167)
(1.150636823 -0.3561151341 -0.6829158026)
(1.030695485 -0.4433175167 1.133253799)
(1.413054684 -0.6867543917 -1.177182087)
(0.6860272232 -1.101363177 -0.0368293467)
(0.7942200079 0.05975385553 -0.1485758956)
(-0.2810350905 0.5450731769 -0.7897310127)
(-0.2393325035 0.006985837865 -0.1803644452)
(-0.5562319491 0.8303322775 0.765645182)
(-1.091207369 0.361189575 0.3060415555)
(-1.485981101 -0.9937866293 1.226955557)
(0.3640174419 0.5205471498 -0.4804169881)
(-1.273765964 -0.659917334 0.4317079355)
(-1.291219943 1.132668057 -0.2527193818)
(0.02936142906 1.265536367 -1.293227972)
(-0.9639148002 0.5028389679 0.8236177086)
(-0.7193557578 -0.3368117378 0.1211345865)
(-0.9487267514 1.586480272 -0.1227179696)
(-0.5462477348 -0.5392503827 -0.09816120527)
(-0.3813001725 -1.381075593 0.4604618142)
(-0.3412183868 0.4832374668 0.4547849705)
(0.02566340527 -0.5342861863 1.006233234)
(0.1094619816 0.007704772438 -1.641353484)
(0.3451776952 -0.1430809378 0.01774324137)
(-0.9803038997 -0.04054282512 -0.1572170429)
(-0.2193090541 0.5876178164 0.03618027045)
(-0.8368878757 1.351648966 -0.8514225432)
(0.06024165244 -0.758656285 0.6504943038)
(-0.7702766832 -0.4108466707 1.158767692)
(0.7370398538 -0.3564504853 -0.6806399148)
(-0.09424257005 0.8042707327 -1.039736986)
(0.9258607739 -0.8414255224 0.3341152174)
(-0.690312112 -0.2711840891 -0.05928015747)
(0.2886878255 -0.1969530257 0.7156856797)
(-0.5072349405 -0.1469165587 0.2651897358)
(-0.277623817 1.748414 0.7051966721)
(0.3411344284 1.325385864 0.218965413)
(1.282998187 0.2165303169 0.4604261103)
(0.9625748798 -0.1126604215 -1.096866236)
(-0.4623110589 -0.4483685494 0.8999760762)
(0.4475060963 -1.005813595 0.224500046)
(0.1883195635 0.2624797145 -0.250466613)
(0.9369309061 -0.3905477669 -1.537418976)
(0.4669273101 -1.102132168 -0.1344760183)
(0.5346036626 -0.463656609 -0.05194329439)
(-0.9160583342 -1.076855082 0.4822571505)
(-0.756078974 0.4853358914 0.2552344015)
(1.087353285 0.6006001863 0.3713302201)
(-0.9032519467 1.097389025 0.6331746395)
(0.1698450968 0.9347801518 0.3034753378)
(0.9203493628 -0.4292681528 0.2011513276)
(0.373549084 0.3348802452 -0.3612594425)
(1.270256535 0.3789072234 -0.4588753814)
(1.308429029 0.7378809343 0.4905758676)
(-0.5156291382 -0.1392475206 0.1048121003)
(-0.5998274273 -0.7630264542 0.4477616085)
(-1.170183021 0.06306912352 -0.9877972705)