/*--------------------------------*- C++ -*----------------------------------*\
| =========                 |                                                 |
| \\      /  F ield         | OpenFOAM: The Open Source CFD Toolbox           |
|  \\    /   O peration     | Version:  v1706                                 |
|   \\  /    A nd           | Web:      www.OpenFOAM.com                      |
|    \\/     M anipulation  |                                                 |
\*---------------------------------------------------------------------------*/
FoamFile
{
    version     2.0;
    format      ascii;
    class       volScalarField;
    location    "0.55";
    object      variableHardSphereMeanFreePath_Ar1;
}
// * * * * * * * * * * * * * * * * * * * * * * * * * * * * * * * * * * * * * //

dimensions      [0 1 0 0 0 0 0];


internalField   nonuniform List<scalar> 
1000
(
0.009351492883
0.009411160662
0.009515280926
0.009671691363
0.009562293276
0.009629847063
0.009662324955
0.00973539623
0.009699142792
0.009661241263
0.009787156989
0.009867822109
0.009944048409
0.01006165105
0.01011562747
0.0101413807
0.01002311504
0.01004878365
0.01022849016
0.01030932828
0.01031456518
0.0104393868
0.01047735988
0.01050343287
0.01060528526
0.01060597799
0.01076639221
0.01088902662
0.01099212522
0.01105129405
0.01111163193
0.01105839736
0.01128158939
0.01138083698
0.01142627843
0.01121961785
0.01144506666
0.01155208397
0.01145953158
0.01158935536
0.01171464721
0.01182320422
0.01186419592
0.01202836777
0.01195433705
0.01187224581
0.01189598552
0.01215009941
0.0122590445
0.01225784068
0.01242447163
0.01256118152
0.01265707609
0.01266893843
0.01267669092
0.0128828941
0.01297407642
0.01322905705
0.01329982233
0.01338985093
0.01338054651
0.01358037817
0.01373408784
0.01358491244
0.01373443955
0.0137473865
0.01395336098
0.01387743125
0.01384411166
0.01412469228
0.01450220837
0.01451193511
0.01469553199
0.01477770753
0.01477402185
0.01478968387
0.01480023725
0.01496443726
0.01497777342
0.01552287469
0.01532746323
0.01546238967
0.01558739504
0.01578348936
0.01615943149
0.01606403363
0.01629067032
0.01652490389
0.01660336625
0.016737595
0.01683267021
0.01716267513
0.01732433216
0.01741512417
0.01772713445
0.01795631959
0.01820560287
0.01812062334
0.01810562826
0.01840709267
0.0185681559
0.01879253999
0.01872384343
0.01914801165
0.01955540798
0.01984754929
0.02014828954
0.02028885686
0.02027328331
0.02059631725
0.02079979275
0.02070234616
0.0210739013
0.02149229426
0.02170711318
0.02170528116
0.02197492753
0.0220098214
0.02240918423
0.02288506779
0.02324231715
0.02348445195
0.02424213898
0.02388260495
0.02434303444
0.02526168257
0.02545819507
0.02552873274
0.02567267091
0.02627589198
0.02715349514
0.02700281047
0.0272719882
0.02810091123
0.02849736484
0.0284812453
0.02915103941
0.03001851528
0.0300216189
0.03034828175
0.03114583981
0.03085020129
0.03183735665
0.03273274105
0.03317596333
0.03356241593
0.0342820423
0.03499188434
0.03487009008
0.03627569757
0.03682403974
0.03845703916
0.03853170512
0.0404259002
0.03916034029
0.04059906886
0.04090039032
0.0424486364
0.04193312318
0.04356113264
0.04472647053
0.04587987462
0.04673513914
0.04791869599
0.04842610851
0.05048643942
0.05215719969
0.05265595842
0.05357728196
0.05682983908
0.05691366977
0.06023656926
0.0604238506
0.0639743012
0.06596900428
0.06737727543
0.06999799857
0.07631911433
0.07948889219
0.08281313282
0.08578306582
0.09246908524
0.09473452191
0.09921389208
0.1000052503
0.1100000495
0.1156307707
0.1241588378
0.1358909202
0.1408379439
0.1500454684
0.1682023938
0.1878917518
0.2046315995
0.2289029489
0.2524749184
0.2852492663
0.3367990696
0.4195578532
0.5806958474
0.009458346033
0.009401615381
0.009446041249
0.009477253309
0.009542076657
0.009626337913
0.009673354312
0.009674294235
0.00964060171
0.009760361214
0.00986060947
0.009903861964
0.009950372275
0.01004778598
0.01010706087
0.01007765784
0.01014850803
0.01008687031
0.01021624861
0.01028359714
0.01045237658
0.01040190542
0.01051558347
0.01058277929
0.01066062602
0.01068383738
0.01069035273
0.0108341637
0.01098658899
0.01104460611
0.01108491696
0.01119811458
0.01112825476
0.01123316075
0.01126214437
0.01132314407
0.01146664119
0.01141639981
0.01136215089
0.01152352504
0.01166129859
0.01179300777
0.01188803473
0.01205828082
0.01205435712
0.0122221116
0.01214030575
0.01222208227
0.01232355292
0.01232556062
0.01246420254
0.01245055688
0.01269410921
0.01284017792
0.01287505398
0.01284778373
0.01293998801
0.01324679385
0.01323444681
0.01338972951
0.01335443562
0.01348942912
0.01356269108
0.01360424814
0.01365893582
0.01366256881
0.01392585003
0.013927361
0.01390006307
0.01408111417
0.01430711386
0.01442872801
0.0145825464
0.01477284806
0.01461950734
0.01486379774
0.01497530126
0.01511325018
0.01513458199
0.01543017899
0.01535837394
0.01542609888
0.01568578254
0.01596679414
0.01596516733
0.0161574084
0.01614278675
0.0164165067
0.01667714529
0.01676098029
0.01699207005
0.01723903125
0.01730220184
0.01755652443
0.01788446714
0.01808660867
0.01794717593
0.01809721898
0.01812821092
0.01856761164
0.01878355404
0.01880576137
0.01904718239
0.01904558362
0.01971756711
0.01983574989
0.02007187323
0.02014751245
0.02006535821
0.02031949798
0.02071414624
0.02081838995
0.02097916827
0.02123931568
0.02164865883
0.02182801675
0.02189949444
0.02245476549
0.02250290872
0.02296249905
0.02309702918
0.02356415777
0.0239022952
0.02443060702
0.02473281344
0.02504002957
0.02550867029
0.02558069363
0.02617239436
0.02646555289
0.02692235073
0.0271432645
0.02782876938
0.02787090187
0.02855706127
0.02852593899
0.02939083511
0.02967110261
0.03011661752
0.03044133285
0.03066392626
0.03117400426
0.03208380895
0.03243879044
0.03276595041
0.03379161316
0.03456545631
0.03532167677
0.03622945125
0.03652843213
0.03748633564
0.03856889685
0.0396040793
0.03976841872
0.04000078789
0.03977513081
0.04077476488
0.04157231142
0.04274260581
0.04408958582
0.04500519562
0.04569301416
0.0472704103
0.04812886815
0.04850378482
0.05019300135
0.05166722405
0.05399835595
0.0556355183
0.05643651553
0.05710331771
0.06001007698
0.06071667638
0.06484269733
0.0667045765
0.07008851253
0.07244940281
0.07492527057
0.0798054843
0.08245315047
0.08408768313
0.09082555715
0.09576685008
0.1018116628
0.1018983242
0.1087833165
0.1154612111
0.1296414074
0.1310321134
0.1402217018
0.1531011313
0.1639109734
0.1862485322
0.1992480827
0.2127225452
0.2487497927
0.2922942239
0.3422234389
0.4365916635
0.6071513287
0.009362017723
0.009421428091
0.009491068096
0.009603988385
0.009564383784
0.009682395355
0.00968578261
0.009677034615
0.009711523416
0.00980457655
0.009921877683
0.009970695386
0.01003852761
0.01001897175
0.01008479612
0.01004447351
0.01001531224
0.01014676609
0.01021492335
0.01027829345
0.01029916241
0.01040332517
0.01042973901
0.01049451645
0.01064710315
0.01078235937
0.01070282334
0.01085580482
0.01088911014
0.01095933697
0.0110077667
0.01111682725
0.01118711417
0.01123527329
0.01136181423
0.01133284002
0.01137794498
0.0113626965
0.01148811948
0.01159479341
0.01163141087
0.01182994257
0.01196484793
0.01200530073
0.01201766068
0.01206160935
0.01216641925
0.01214253668
0.01228571373
0.01230045263
0.01244476979
0.01228623287
0.01264561318
0.01260425738
0.01285565837
0.01291851203
0.01307182022
0.0129888802
0.0132270595
0.01332306582
0.0132651019
0.01331314242
0.01357879015
0.01375078671
0.01382326148
0.01378714116
0.0139402406
0.01395385274
0.01408010066
0.01415674943
0.01428781064
0.01454130053
0.01450627013
0.01471230187
0.01473443168
0.01487571664
0.01495779504
0.0152188507
0.01501423103
0.01536967996
0.01554051119
0.01558179852
0.0157031698
0.01584035403
0.01604721527
0.01608768654
0.01638506293
0.01658674682
0.01658783548
0.01681804267
0.01699940136
0.01718218448
0.01750092456
0.01747644934
0.0176473706
0.01814454999
0.01801073889
0.01825029901
0.01846140846
0.01867161034
0.01864945334
0.01909200766
0.01898220597
0.01929199439
0.01967963785
0.01950209726
0.01987509449
0.01972681156
0.02003928763
0.02019290255
0.02039494999
0.02084460575
0.02096065313
0.02122746937
0.02131014729
0.02167594089
0.02216242638
0.02263156627
0.02287015415
0.02321359996
0.02340657922
0.02347379587
0.02401707768
0.02413501179
0.02429196962
0.02466432039
0.02523108399
0.02564810553
0.02620838731
0.02696963088
0.02682911517
0.02733652454
0.02760633144
0.02768978654
0.02801211858
0.02828269297
0.02916607324
0.02946751032
0.03012295343
0.03069858459
0.03111638534
0.03107397505
0.03177265122
0.03225319706
0.0331017836
0.03323421704
0.03400644624
0.03504662722
0.0353558017
0.03653727963
0.03694291287
0.03808245783
0.03895570192
0.040055601
0.0402343819
0.04086750876
0.04133072751
0.04187965254
0.04327813308
0.04291815595
0.04404368058
0.04499146073
0.04804638496
0.04769566949
0.04804220099
0.0493784825
0.05138814548
0.05354303963
0.0564863812
0.0576725447
0.0587861322
0.05920243156
0.06206249816
0.06385433431
0.06556681368
0.06839921205
0.07227064207
0.07536100498
0.07789574718
0.08087005812
0.08777350152
0.09059618877
0.09632794687
0.09901111435
0.1026450358
0.1111442501
0.1167890304
0.1267076143
0.1312870973
0.1452351374
0.1557966567
0.1706596494
0.1847214346
0.2038361285
0.2368120454
0.2611209072
0.2902917167
0.3643237717
0.4524462972
0.6905995279
0.00943202997
0.009433658398
0.009538217394
0.009576724213
0.009673165663
0.009636814817
0.009602254149
0.009706877676
0.009795421165
0.009881108488
0.009865700009
0.01002377044
0.009916899649
0.01003519254
0.01007262164
0.01008899412
0.01008449055
0.01022102591
0.01027081297
0.0102635194
0.01029422916
0.01041875211
0.01043767334
0.0104276434
0.01060698438
0.01068191965
0.01072585262
0.01080930141
0.01096785699
0.01103430056
0.01107558007
0.01110889715
0.0110980147
0.01135056929
0.0112440393
0.01130779131
0.01149898974
0.01145631392
0.01149725544
0.01166723006
0.01167424646
0.01180799811
0.01190076883
0.01189674382
0.01193638805
0.01203798845
0.01203978066
0.01232300479
0.01237140827
0.01235726474
0.01247272437
0.01259614897
0.01263930985
0.01267781402
0.01281850034
0.01288798204
0.01281356025
0.01302212092
0.01309190855
0.0131277108
0.01322347965
0.01340682128
0.01357842504
0.01359732406
0.01377573711
0.01381793633
0.01405120117
0.01403260768
0.01405552679
0.01427522729
0.01435804657
0.01442597975
0.01468476108
0.01481641726
0.01486729096
0.01501693725
0.01478848405
0.01515016771
0.01523526001
0.01542627765
0.01567051258
0.01559330156
0.01568910697
0.01589713256
0.01613198242
0.01623021292
0.01608904633
0.0166265398
0.01646140574
0.01683346744
0.01694426575
0.01695049466
0.01702159057
0.01729588538
0.01777752736
0.01797561494
0.01813021358
0.01795430242
0.0182928427
0.01850992824
0.01858842903
0.01884316052
0.01894489042
0.01931329842
0.01963739833
0.019638547
0.0195447975
0.01988344521
0.02002411554
0.02023027831
0.02048679287
0.02074929501
0.0210580729
0.02124113351
0.02129158963
0.02175792155
0.02231489485
0.02239021545
0.02293385187
0.0229390483
0.02327497144
0.02330715047
0.02379866879
0.02422386967
0.02415106202
0.0244541563
0.02518161306
0.02543027848
0.02622349323
0.02645039933
0.02683372877
0.02715677809
0.02727463947
0.02761968026
0.02777069662
0.02840538889
0.02907301851
0.02960223848
0.03006285082
0.0308453449
0.03076858255
0.03125889038
0.03160559183
0.03223733941
0.03213405863
0.03317909621
0.03423065669
0.03456528098
0.03567893036
0.03669306421
0.03745624086
0.03822737222
0.03853207281
0.0394099083
0.04022789603
0.04175112467
0.04115860522
0.0425051731
0.04253690912
0.04268828773
0.04482003468
0.04520375777
0.04630386205
0.04737181525
0.0480918086
0.05013183948
0.05274028253
0.05225283841
0.05544307505
0.05671124937
0.05949995921
0.05806579169
0.06104850391
0.06334277743
0.0655168309
0.06761954032
0.07086368465
0.07377607605
0.07864359119
0.0793342803
0.08447096456
0.08992916344
0.09485172072
0.09989259651
0.1064693336
0.1136836303
0.1197135709
0.1270374138
0.1338745089
0.1438500875
0.1589562586
0.1720410023
0.1823663775
0.199013894
0.2240580749
0.2541361188
0.302810909
0.3586711506
0.4663683435
0.6880022872
0.009301476871
0.009486648501
0.009472759171
0.009613303942
0.009639724053
0.009610130014
0.009603715387
0.009715057759
0.009702647418
0.009814750483
0.009906170181
0.01001483747
0.009963779087
0.009963452988
0.01000044406
0.01004119352
0.01001334566
0.01014304469
0.01028678398
0.01030307204
0.01027840231
0.0104658815
0.01056623418
0.01058308595
0.01059924117
0.01065298311
0.01068806736
0.01077718696
0.01102205893
0.01115871387
0.01110428021
0.01116357992
0.01116041294
0.0113556978
0.01127102796
0.01134467083
0.01154409596
0.01156359656
0.01158727528
0.01172686853
0.01176926773
0.01170096262
0.01183577974
0.01184977442
0.01196753645
0.01208974237
0.01216167203
0.01223534808
0.01243866533
0.012365257
0.01245503136
0.01276871949
0.01272637145
0.0126125241
0.01272408959
0.01269637742
0.01294344885
0.01304296566
0.01309892314
0.0132182426
0.0132791469
0.01337706475
0.01354452159
0.01366810531
0.01386578241
0.01388827505
0.01405963739
0.01385707355
0.01402445109
0.01431497531
0.01439401289
0.01443389512
0.01445999082
0.01474430052
0.01492202098
0.01496120985
0.01506164856
0.01522577572
0.01503037245
0.01518272263
0.01539808058
0.01553019989
0.01588694972
0.01591040857
0.01623700253
0.0161774071
0.01629532149
0.01652163113
0.01672600372
0.01684948651
0.01672738885
0.01680884172
0.01726704045
0.0175059419
0.0175542035
0.01794487852
0.01805374771
0.01800373231
0.0181363876
0.01856598512
0.01854041061
0.01852685727
0.01870331068
0.01912397633
0.01941699095
0.01959642702
0.01979609956
0.02000663702
0.01998910464
0.02038890843
0.02023613512
0.02065736198
0.02125371254
0.02135286336
0.02135858672
0.02150893516
0.02200611566
0.02207407593
0.02263494233
0.02308205432
0.02354655448
0.02358465446
0.02386388015
0.02415015651
0.02397392535
0.02465364
0.02506257231
0.02529464318
0.02602558007
0.026376977
0.0261483903
0.02662120566
0.0273123344
0.02777962772
0.02764765126
0.0288792814
0.02974940862
0.0303902066
0.03017316008
0.03011833824
0.03106688823
0.03080275023
0.03185586779
0.03241194287
0.0328967839
0.03347614748
0.03402190629
0.03496219018
0.03507218703
0.03579205965
0.03678112492
0.03742420052
0.03860015695
0.03996607665
0.04095994329
0.04090603976
0.04134580212
0.04241021932
0.0430457878
0.04335624172
0.0448833737
0.04439770863
0.04582500846
0.04708266344
0.04894011614
0.04960156961
0.05247268872
0.05306527867
0.05464540504
0.05690132648
0.0583671502
0.06088175932
0.06090334396
0.06386598654
0.06642606036
0.06877605001
0.07048251468
0.07403337603
0.07827304648
0.08121049931
0.08606167957
0.08946691223
0.09476104299
0.09983961305
0.1044748504
0.1123847458
0.1176168944
0.1307493652
0.1339498636
0.1419226498
0.1615194341
0.1703580866
0.1870453013
0.1996327397
0.2246264109
0.2514489092
0.2897747506
0.3524496779
0.4542852225
0.6492568062
)
;

boundaryField
{
    bottom
    {
        type            calculated;
        value           nonuniform List<scalar> 
200
(
0.009351492883
0.009411160662
0.009515280926
0.009671691363
0.009562293276
0.009629847063
0.009662324955
0.00973539623
0.009699142792
0.009661241263
0.009787156989
0.009867822109
0.009944048409
0.01006165105
0.01011562747
0.0101413807
0.01002311504
0.01004878365
0.01022849016
0.01030932828
0.01031456518
0.0104393868
0.01047735988
0.01050343287
0.01060528526
0.01060597799
0.01076639221
0.01088902662
0.01099212522
0.01105129405
0.01111163193
0.01105839736
0.01128158939
0.01138083698
0.01142627843
0.01121961785
0.01144506666
0.01155208397
0.01145953158
0.01158935536
0.01171464721
0.01182320422
0.01186419592
0.01202836777
0.01195433705
0.01187224581
0.01189598552
0.01215009941
0.0122590445
0.01225784068
0.01242447163
0.01256118152
0.01265707609
0.01266893843
0.01267669092
0.0128828941
0.01297407642
0.01322905705
0.01329982233
0.01338985093
0.01338054651
0.01358037817
0.01373408784
0.01358491244
0.01373443955
0.0137473865
0.01395336098
0.01387743125
0.01384411166
0.01412469228
0.01450220837
0.01451193511
0.01469553199
0.01477770753
0.01477402185
0.01478968387
0.01480023725
0.01496443726
0.01497777342
0.01552287469
0.01532746323
0.01546238967
0.01558739504
0.01578348936
0.01615943149
0.01606403363
0.01629067032
0.01652490389
0.01660336625
0.016737595
0.01683267021
0.01716267513
0.01732433216
0.01741512417
0.01772713445
0.01795631959
0.01820560287
0.01812062334
0.01810562826
0.01840709267
0.0185681559
0.01879253999
0.01872384343
0.01914801165
0.01955540798
0.01984754929
0.02014828954
0.02028885686
0.02027328331
0.02059631725
0.02079979275
0.02070234616
0.0210739013
0.02149229426
0.02170711318
0.02170528116
0.02197492753
0.0220098214
0.02240918423
0.02288506779
0.02324231715
0.02348445195
0.02424213898
0.02388260495
0.02434303444
0.02526168257
0.02545819507
0.02552873274
0.02567267091
0.02627589198
0.02715349514
0.02700281047
0.0272719882
0.02810091123
0.02849736484
0.0284812453
0.02915103941
0.03001851528
0.0300216189
0.03034828175
0.03114583981
0.03085020129
0.03183735665
0.03273274105
0.03317596333
0.03356241593
0.0342820423
0.03499188434
0.03487009008
0.03627569757
0.03682403974
0.03845703916
0.03853170512
0.0404259002
0.03916034029
0.04059906886
0.04090039032
0.0424486364
0.04193312318
0.04356113264
0.04472647053
0.04587987462
0.04673513914
0.04791869599
0.04842610851
0.05048643942
0.05215719969
0.05265595842
0.05357728196
0.05682983908
0.05691366977
0.06023656926
0.0604238506
0.0639743012
0.06596900428
0.06737727543
0.06999799857
0.07631911433
0.07948889219
0.08281313282
0.08578306582
0.09246908524
0.09473452191
0.09921389208
0.1000052503
0.1100000495
0.1156307707
0.1241588378
0.1358909202
0.1408379439
0.1500454684
0.1682023938
0.1878917518
0.2046315995
0.2289029489
0.2524749184
0.2852492663
0.3367990696
0.4195578532
0.5806958474
)
;
    }
    top
    {
        type            calculated;
        value           nonuniform List<scalar> 
200
(
0.009301476871
0.009486648501
0.009472759171
0.009613303942
0.009639724053
0.009610130014
0.009603715387
0.009715057759
0.009702647418
0.009814750483
0.009906170181
0.01001483747
0.009963779087
0.009963452988
0.01000044406
0.01004119352
0.01001334566
0.01014304469
0.01028678398
0.01030307204
0.01027840231
0.0104658815
0.01056623418
0.01058308595
0.01059924117
0.01065298311
0.01068806736
0.01077718696
0.01102205893
0.01115871387
0.01110428021
0.01116357992
0.01116041294
0.0113556978
0.01127102796
0.01134467083
0.01154409596
0.01156359656
0.01158727528
0.01172686853
0.01176926773
0.01170096262
0.01183577974
0.01184977442
0.01196753645
0.01208974237
0.01216167203
0.01223534808
0.01243866533
0.012365257
0.01245503136
0.01276871949
0.01272637145
0.0126125241
0.01272408959
0.01269637742
0.01294344885
0.01304296566
0.01309892314
0.0132182426
0.0132791469
0.01337706475
0.01354452159
0.01366810531
0.01386578241
0.01388827505
0.01405963739
0.01385707355
0.01402445109
0.01431497531
0.01439401289
0.01443389512
0.01445999082
0.01474430052
0.01492202098
0.01496120985
0.01506164856
0.01522577572
0.01503037245
0.01518272263
0.01539808058
0.01553019989
0.01588694972
0.01591040857
0.01623700253
0.0161774071
0.01629532149
0.01652163113
0.01672600372
0.01684948651
0.01672738885
0.01680884172
0.01726704045
0.0175059419
0.0175542035
0.01794487852
0.01805374771
0.01800373231
0.0181363876
0.01856598512
0.01854041061
0.01852685727
0.01870331068
0.01912397633
0.01941699095
0.01959642702
0.01979609956
0.02000663702
0.01998910464
0.02038890843
0.02023613512
0.02065736198
0.02125371254
0.02135286336
0.02135858672
0.02150893516
0.02200611566
0.02207407593
0.02263494233
0.02308205432
0.02354655448
0.02358465446
0.02386388015
0.02415015651
0.02397392535
0.02465364
0.02506257231
0.02529464318
0.02602558007
0.026376977
0.0261483903
0.02662120566
0.0273123344
0.02777962772
0.02764765126
0.0288792814
0.02974940862
0.0303902066
0.03017316008
0.03011833824
0.03106688823
0.03080275023
0.03185586779
0.03241194287
0.0328967839
0.03347614748
0.03402190629
0.03496219018
0.03507218703
0.03579205965
0.03678112492
0.03742420052
0.03860015695
0.03996607665
0.04095994329
0.04090603976
0.04134580212
0.04241021932
0.0430457878
0.04335624172
0.0448833737
0.04439770863
0.04582500846
0.04708266344
0.04894011614
0.04960156961
0.05247268872
0.05306527867
0.05464540504
0.05690132648
0.0583671502
0.06088175932
0.06090334396
0.06386598654
0.06642606036
0.06877605001
0.07048251468
0.07403337603
0.07827304648
0.08121049931
0.08606167957
0.08946691223
0.09476104299
0.09983961305
0.1044748504
0.1123847458
0.1176168944
0.1307493652
0.1339498636
0.1419226498
0.1615194341
0.1703580866
0.1870453013
0.1996327397
0.2246264109
0.2514489092
0.2897747506
0.3524496779
0.4542852225
0.6492568062
)
;
    }
    inlet
    {
        type            calculated;
        value           nonuniform List<scalar> 5(0.009351492883 0.009458346033 0.009362017723 0.00943202997 0.009301476871);
    }
    outlet
    {
        type            calculated;
        value           nonuniform List<scalar> 5(0.5806958474 0.6071513287 0.6905995279 0.6880022872 0.6492568062);
    }
    back
    {
        type            symmetry;
    }
    front
    {
        type            symmetry;
    }
}


// ************************************************************************* //
