/*--------------------------------*- C++ -*----------------------------------*\
| =========                 |                                                 |
| \\      /  F ield         | OpenFOAM: The Open Source CFD Toolbox           |
|  \\    /   O peration     | Version:  v1706                                 |
|   \\  /    A nd           | Web:      www.OpenFOAM.com                      |
|    \\/     M anipulation  |                                                 |
\*---------------------------------------------------------------------------*/
FoamFile
{
    version     2.0;
    format      ascii;
    class       labelField;
    location    "0.004/lagrangian/dsmc";
    object      origId;
}
// * * * * * * * * * * * * * * * * * * * * * * * * * * * * * * * * * * * * * //


183290
(
9448159
15148285
14987582
15096079
9466932
15104867
15113068
906173
906202
9492009
906298
15137512
15040888
14963315
15170482
9492782
15030235
14983457
14994479
14931786
907306
15165661
9462498
907502
15070674
15079157
15055352
15136568
15058332
900024
908163
902027
15183226
15162850
9509701
9505235
908452
15173975
9500737
15204652
9504645
908715
15139378
15062058
15198614
908815
15165227
903443
908940
15142481
15202054
15202068
901232
15235275
15213685
9519253
909355
902422
14959352
9501915
15164003
15084165
902620
15045928
15097498
904633
904406
15196484
15210807
15185316
15104567
15118023
9518656
15188146
9532274
15164387
15233284
15145334
14978291
15204756
15224719
9532040
904206
904926
15214441
15210125
14917273
9543733
910286
15172097
15066660
15217667
15009800
15198299
9537491
910485
901666
9532066
15018798
9549169
15102861
15213538
9510343
905106
15201151
9535589
902735
905691
15173056
9532852
905510
15184073
15115269
14972335
9530508
910766
15165621
15186334
15216527
15219503
15147755
905585
15025476
15151812
15187196
9546655
9499952
15205648
15227744
15079987
15050282
904227
15196508
904849
910979
15198593
905889
15230848
15080410
15231670
15185381
9538479
15217928
9485374
9547417
15233282
911059
14954536
15244792
905419
9529116
9546825
15172082
15211418
15231778
15197610
15236313
15086039
902146
15220399
14995207
15205730
15273798
15246081
911294
15271315
911360
9543141
9548383
15256486
14950401
15132612
15182942
905963
9498591
911422
14965788
15065007
9534796
15244811
15299707
15241639
911466
911524
15165660
15276023
15230730
9563821
9542174
911626
15220680
15243252
9549947
15232271
15234417
15182047
15243863
9538884
15147125
15044643
15179432
911765
15310794
9527388
9584537
15153776
902567
15107276
905352
15254078
15094408
15245750
15142100
15257888
9558320
911870
15141519
15278032
905153
15260604
911904
15223117
15317701
906329
15252575
15219103
9558318
14898873
15086813
15265450
906651
15154421
15128951
15169930
15258023
9569639
9546244
15249714
9555189
15214723
15244812
15265580
15272654
907315
15163152
903045
906774
912098
15212318
15153004
9546447
9546429
906849
15243524
15221492
15205849
15258172
904717
15238532
15147760
15251916
15301576
15259675
903994
15266476
15256801
15258463
15107901
15187330
912257
15087144
15270451
15118737
15291581
15253788
904387
9565744
15204400
15116993
15179266
15263701
15144360
15198314
15059008
15234764
15244768
912345
9559302
9567649
15295819
9571914
15228857
15249141
15170426
9574499
15232691
9549389
9539061
15250109
15283506
9573698
897443
9561449
15292691
907326
912446
15328132
14885062
9537354
15284221
15206270
15235061
15172715
15255088
15242552
15238797
15222800
15299055
907492
912534
9536194
15245446
15262175
15212860
906076
907547
912552
912568
15220414
15200788
9552680
15200226
15256304
15255334
9562598
15233457
9545863
15255971
15121933
15140545
15263548
15242917
15106067
15259083
912651
15253674
15203281
906582
15256586
15047707
15295502
912706
912709
907084
912726
9573670
9577796
15260307
9560498
9566542
906176
15205970
15214607
15335304
907313
912810
15233214
15113242
15258757
15210995
907989
912829
15197439
905127
15247511
15276654
907810
15160030
15223139
906546
912854
912877
15178659
15261613
9583560
9547788
9553850
15161317
15241682
903767
15258438
908187
15152588
15213094
15203812
9564355
15210165
907669
912942
15238783
15211673
15209198
902021
15234775
15165845
15281437
9561617
15181381
9570582
9571168
9584201
15205613
9564559
15259638
15261859
15291379
9570584
15259070
15167976
15168936
9412467
9583212
15204192
15200498
15042078
15246012
905089
15204094
9541974
15270768
904629
15252524
902453
9492189
15313084
15224081
9559899
15112205
15139945
15286644
9562433
15249146
15312052
15245101
908112
913141
15051521
9567872
15279594
9571913
15281150
908148
913157
15167332
9568254
14937689
9581638
907265
15197956
15258084
15283493
15272647
15277687
15296071
913216
15254752
9574489
15247944
15287632
15305519
9578564
908511
913242
15209493
15020394
15271077
913269
15082080
15280215
903894
15252971
15243781
902701
15273165
15257775
902380
9542932
9545884
15084829
15247289
15255333
15154729
9579904
906992
913330
15193175
15136177
15228963
15279227
905184
15251602
907833
913351
15262194
15265231
906022
15196445
9599872
9579900
15246870
15310278
913383
9562189
15268320
15255068
15260575
905021
9587269
15253639
908540
15173326
15215025
15279469
15222777
15182023
15304263
15301069
908049
9559692
15257405
15203245
15236632
908556
15114501
15287179
9596958
9565346
15255533
15066256
15060187
15220543
15237912
9574640
906355
15223762
15182934
9560656
9583013
913481
905944
15180412
908172
15274207
15268008
9581254
9564951
15111162
15236644
9563383
15287310
15179128
15222829
15138696
15233567
15170732
15055281
904995
906792
913549
913550
15141211
15225253
15216836
15274563
15278339
15326685
15309504
15282577
15141406
913587
913589
15215909
15152346
15191843
15282058
14806119
15267109
15275558
15299729
15152696
15245449
15222123
15300804
15090874
15233459
9609403
15260280
9542160
15259885
15261842
15241621
9581271
15201742
15294853
15359726
913674
913675
913678
15303168
15214467
15240719
15148219
905461
9579528
906232
15211687
15239051
9571528
15296090
909206
913716
15306776
15266337
15271376
913730
913733
9552467
15147369
15274220
15275234
15134577
9565511
9587254
15303943
15170577
9559488
9554215
15286635
9568429
15285043
9580857
15319371
15225608
15240746
15212193
9568811
15223043
15247259
9570962
15252810
15239124
15294517
15326558
15293595
9581845
15277886
15179652
913805
15191373
15309806
15302042
908537
913826
15241986
15237268
15259540
15329096
9571985
9581674
9576258
14973980
9579902
15313738
15297201
15274779
15260620
15159115
15288847
15122335
15287925
15299530
15232968
9584739
913853
15261135
9577936
15304273
9582801
908089
913880
15118785
15186321
15257186
15271418
9574469
905529
15291085
905601
15318309
15295168
15239113
9589838
9584946
9586496
913897
15162882
15222762
15184443
15280530
903720
15284857
15271091
15289733
9587891
909183
913910
9530894
15289137
15277346
15266415
15291356
909207
913933
15274802
9547013
15167700
15336253
15294807
9588686
902770
907812
913951
15237262
904016
15224388
15298549
15259574
9582413
15187555
9589191
15185346
15212195
15185688
15122993
913989
913990
14978598
15294242
15311723
9584801
909387
914004
914005
914006
15195540
15339134
15135471
15278985
15265169
15247094
906955
9592351
914022
9547803
15277060
15302323
15333196
15293904
9581850
15286356
908590
15206858
15304586
906892
9594525
908380
909503
15159728
15266165
9582817
15284519
15262449
914071
9548211
15188446
15314870
15226508
914086
9538285
15258466
15228331
15279903
905402
9579901
914105
914108
15261834
15314227
15263395
15199575
9584549
908694
9558100
15217258
15221889
15108527
15303286
15192323
15235970
9592744
15093719
15002185
9555229
907161
15170139
909312
15214111
914180
914181
914182
15125892
15097015
15274586
15235664
9565329
15315481
9586922
15261874
15131245
15218133
914191
9541603
15233196
15242605
905369
15253104
15276463
15305516
908261
908551
15276439
15268006
15336584
9584438
15344918
909400
15218561
15283269
15218851
15052056
15301101
9592310
15211431
9525463
15246044
15319578
9591183
15327187
914254
15248407
903460
9573669
15287902
15169617
15295664
9586743
914269
15273010
15135206
15295162
15282999
15340087
15238178
9605819
15221873
15272651
15289114
9569604
15312991
9578319
9577356
15314354
9587475
15235065
908539
909663
914302
9568433
15259368
9576637
15263358
15237751
15302336
15262976
907277
15224562
9549371
15286633
9588834
15276657
15225472
15211660
9582015
15293135
9587687
9593512
907750
909619
15137429
9555380
9569597
15277982
15306780
15277577
9607712
907914
15334495
909427
914357
15181389
15090609
15203549
15302332
9589992
9626507
9594073
15297331
908312
15212586
15316747
9566495
15276106
9572531
15235411
15294828
14754404
9468480
15198332
15195434
9617762
15329213
15369084
908902
914408
914409
15268189
9565343
15034364
15267115
9576782
15202954
15317834
9586197
9604247
908397
906466
15241372
15246408
15280093
9561826
9573503
9588272
9594088
15179884
9583804
914444
914445
15099489
15251921
15278030
15294509
15327803
906209
15215002
914454
914455
914457
904771
15253985
15271733
15297313
907587
914485
15116545
15300037
9570169
9575627
9580462
15325132
9596608
15269099
15281081
15303625
15295019
9586120
9590777
15128061
15310275
15300111
15314358
908295
909771
909793
909895
15163690
15135884
15242224
15223356
15296592
15295680
15286659
9574291
9599429
15211374
909719
910087
914534
914537
914538
902583
15287496
15291088
15293555
9587309
15322895
9584518
15186308
15265848
15301072
9583079
15220671
15189834
9589083
15230796
909301
15196767
15190097
15206700
15272890
15278673
9586701
15132540
9591958
9596996
908296
909429
903375
15263693
15229555
15289468
905151
15296385
15298582
15295124
15239678
907905
914597
15274234
9564944
15242869
15289165
15339761
15359718
15353822
9600905
909499
909502
909583
914607
15257570
15237154
9580663
9575210
9561029
15317229
15332889
910243
914625
15236648
15238490
15272984
15262163
15295994
15211097
15345249
907768
15212291
914642
902063
15274472
903413
15295796
15250688
15251797
9588447
15313438
9595272
9600897
9603072
15325300
909224
908654
914660
15203862
15276450
15330399
15069958
905018
9577361
15282257
15302308
15309469
909478
914676
914679
15117712
9574847
15223638
15279896
15287923
9565201
15308659
15274205
15239954
914694
9571968
15307108
15253740
15217404
906704
15319394
15201345
910085
15107977
9565905
15222056
15303259
15300451
15313900
9584203
9597576
15315932
15287606
9604451
15330397
15332247
15294394
15148704
9564747
9580270
15299533
15350811
908841
910282
15226480
15235598
15309177
15284877
9599134
908485
909928
909975
910255
15173949
15259056
15124465
15292936
9579884
15179008
15258601
15336245
15319587
15117461
9576607
907311
15300335
914783
15269233
9580287
15302503
15311557
9578535
9595034
9595276
15246858
15211728
15286855
15249404
15301400
15329736
9594456
9588829
15324773
9590938
9597433
15322404
914813
914814
15260967
15299089
15273776
15275828
15241141
15186922
15234113
15178334
9589032
15279873
9592998
9590061
907428
15287497
909637
914824
15312373
15249706
15298575
15236642
9597793
15264350
15295440
9588187
9609990
908309
914834
15225501
15271087
15307408
15210185
15061404
15294165
15329825
914847
15268291
15233268
15274214
15297329
15298533
15185697
15194474
15318757
9584180
15198886
9599173
9584765
902519
9579513
15214327
9587504
9592119
9593686
15241014
9596394
9606794
15262152
914878
914879
914880
914884
15167800
15276774
15210478
9590199
15328272
15363141
914900
15279008
9579897
9579729
9602606
9582399
15309158
15232622
15318949
9572329
908117
910529
15221901
15233546
15255064
9578556
15317654
9581045
15290384
15243426
906933
9592916
9586760
9593346
9592155
15298778
914919
15173560
9546621
15271735
15290379
15329095
15302031
9564744
9550702
9580479
15334990
15304583
9577604
15079770
15332717
9596462
907991
15226020
909386
15121018
15239788
15234785
9575866
15298129
9575212
9574254
15266667
9581234
15311129
15237249
15291656
9596780
9589851
14986784
9599693
9628276
15161315
15274869
909842
914951
914953
903372
15222807
15283478
15307721
15304776
9605133
9579919
15170554
15286335
9603646
15243760
15194860
9597842
15235091
15216208
15256881
15245002
15312973
15282388
15308968
9590454
15273189
15346455
9622428
9596834
9596191
907585
9595808
9599735
9601387
910603
15234150
15293437
906412
15255005
15366242
9591420
9596590
15337323
9599664
15337835
15365931
15115796
15278346
15325924
15294558
15250564
15258404
15187915
15198540
15254760
9589878
9586753
9595746
15333313
915011
905219
15202012
15342519
15314059
15306760
9593107
9592141
9599934
15247811
9601214
9606295
909277
15223720
15280498
15201629
15289432
15315834
15295043
15302932
15367517
15317506
9596395
9592408
9597581
15303262
15274791
9605603
9599200
9599383
902716
15235993
15272357
15201013
9586518
15116100
15302527
15169335
9587941
15258392
15230458
15297650
9614564
908416
9613983
909263
915062
15265428
15209005
9569403
15118709
9564587
15241323
15190755
15198827
15234114
15322251
906623
9604577
15239463
9608370
15319695
909040
910759
15255970
15257191
15303601
15323089
15294421
15232782
9594313
15162126
9605944
9602453
15311230
908119
15218816
909309
904862
9548387
15293249
15307356
15300172
15010025
9581246
15305509
9588236
9591959
9601086
9601278
907544
15153545
15318714
15190059
909930
910199
15260310
15174896
15274915
9577758
15210183
15273631
15304144
15317225
15276103
15273639
15316269
15320638
15338506
9599915
9602875
9597757
909523
910354
915118
915119
915120
15185985
15254748
15283305
15214094
15242226
9582607
15300800
9591927
15324753
15186025
907264
9596099
15288839
15335405
15357529
15364071
15256160
915138
15311420
15299850
15098263
15289392
15255365
15309301
15309627
15274584
15189015
907786
15303554
9606382
15273316
15147095
15101849
15200504
15241038
15138935
15175836
15296072
9587079
15292007
9596422
15284497
9590428
9598951
15334516
9598717
9604090
909221
910191
15095369
15252841
15253469
15212039
15241325
15274598
15284836
15283622
15297011
15250947
9579161
15301384
9582215
15281401
15224754
15311533
9588671
15371822
15302293
907278
9593881
15153742
9593990
9603092
9602394
9562792
9602042
15349813
15268606
15272691
15365151
908901
910543
15248510
15280496
15292634
15286329
15087132
15020064
15212294
15327190
9595997
906988
9607567
9605767
9638185
15331076
15307102
909505
910785
15258435
15258730
15281739
15361910
9583188
15116081
15310911
15297492
9594252
9601717
9604243
908998
915207
15212866
15215313
15188837
15324363
15280523
15315478
14972823
9589223
9597774
9588083
15345862
15241549
15211904
9594653
15307704
15312425
15339767
9598334
15345546
9599342
9601857
9607492
908976
915215
14846216
15236203
15146822
15247590
15251919
15337526
15285501
15244280
9573276
15306303
15232369
15276128
15306453
15313075
15301078
907011
907162
15323559
15257152
9604828
15327304
908050
15286001
9604399
9608872
9615163
915227
15277105
906503
15175451
15301373
9575806
15305820
9588898
9593469
15312985
15268638
9603423
9601348
15263354
9585367
9607386
15341011
15242926
15095603
15311433
15302942
15240264
9580265
15241538
15302298
15272046
9585196
9589002
15311558
15235586
15292957
9598922
15315283
15302034
9597818
9595834
15329862
15312149
9585785
15322759
9598006
9607879
908068
15329091
15258926
9608440
15197893
915257
915259
15230736
9552663
903755
15269552
9580843
9591152
15312789
15329738
15209456
907032
9593910
9602704
9595060
15183888
9597891
15306380
9608314
908606
909080
909266
909464
15081887
915280
15252440
15266448
15271028
15300749
9594243
9592794
15314328
15297916
9592142
9592708
9601749
9594682
15128370
9593168
9607932
9611696
908882
910088
905707
15179549
15309819
15157822
15310918
15180965
9593517
15245400
15190042
9592614
9597184
9598732
15309580
9602435
15256169
9609898
9585351
15177901
15325645
15289660
15272325
9583036
9581265
15275219
15245654
9553476
15319094
9591524
15306777
15233502
15285608
9596656
15327338
15042047
9603065
9609800
15322484
9615092
910782
915317
15223099
15267079
15235628
15252514
15251003
9583792
15280169
15326680
15191385
9588103
15267403
9570588
15297928
9599553
9600900
15322557
9609108
9601867
9606793
15332710
915337
15307294
15250672
15192250
15259077
15284230
15293900
15291688
15294857
15236979
9587697
9593684
9593283
15142307
15262784
15266758
15229267
9602696
9604882
9599917
9606154
9607286
9612475
910198
910374
915361
9570162
15265250
15281747
15287184
15284177
15266020
9590943
9590377
15255335
9581423
15223138
15329219
15336899
9599322
15233242
15287871
15353659
908589
15319044
15365926
909558
9579493
906518
15261871
15269412
15319078
9596991
9587907
9596109
9579325
15252381
9624565
9593890
9603612
9602467
9598395
15334186
915392
15267990
15282722
15166834
15299538
15336583
15274589
15329439
15200803
906481
9582092
9593689
15289104
907938
15172475
9603223
9598209
9605604
15184465
15296128
910865
915402
15276328
15262495
15281128
15203248
15344331
15146105
9602830
9598733
15305490
9599701
15291582
9599943
9600111
9603776
9603430
9613919
9617198
915413
915415
15222446
9574061
15296396
9581416
9587499
9616986
9589211
9591573
15307895
9594075
9594741
15331314
907842
9592596
910558
15234162
15304469
15310902
9586321
9590021
15150508
15341312
15166232
9595836
9590409
15269715
9593921
15325128
15296963
15291263
9603094
9601339
9601864
15326342
9609230
15359859
910722
9572564
15307421
9584972
15280472
9583248
15208963
9589203
9592378
15312165
15311832
15371536
14997598
15317175
9600704
907954
15317471
9603186
15344784
9626107
909639
14974029
15269252
15332592
9573718
9580097
15278987
15140775
906571
15284821
9592133
9592319
9594831
9588884
15272329
15261555
15326350
9596007
9602482
15279543
15321316
9604476
9606968
9618052
9615911
15252264
911165
915467
9556975
15200481
15150484
15287502
15312787
9583778
15171477
15013782
15311246
15328588
9584609
9596794
15266419
9594505
9604876
15284764
9605674
9606790
15337654
15324365
9613563
15253087
9618010
15316424
911208
915484
15282272
9564941
15272954
15263077
15299184
15306457
15329836
15206890
9597265
15330795
15200510
9603173
9607502
15397008
15401753
9565070
9565132
15275198
9562034
15272349
15356944
15292355
15312170
15303281
15113832
15354459
15283483
15292562
15301958
9592822
15326041
9602050
909482
9627881
9590774
907832
15337607
9604615
9605392
9602314
15331741
9609664
15348027
15257394
15341732
9611431
9605134
910357
910483
15325906
15272617
15297636
15309604
15283010
9600865
9594307
9589054
15221552
15331108
907540
9598407
907626
9603234
9596242
15334225
9603321
9604098
9614505
908483
15286543
9607680
9610798
9614761
915526
15178932
15307606
15314661
15220876
15335129
9597798
9602507
9600699
9602845
15182949
15195183
9600678
15338285
15307729
9604843
15222146
15353051
15270373
915544
9554843
15257879
15070626
15267755
15287568
15233233
906299
9573712
9591746
15322248
15270077
15235895
907245
15310909
15286327
15235301
15320960
15338301
15266664
9605740
15353952
9608722
9603839
9605915
15162908
9573268
15263952
15305488
9583200
15311532
15328133
15323557
15221291
15137186
15305126
15277057
9589675
9599104
9603086
15297271
9604446
9605455
9608078
9604279
915580
15082322
14741432
15286988
15299521
15361296
15303289
15146783
15112712
15314347
9593098
15310930
15290939
15326054
15046764
15311245
15270410
9601853
9600135
9602045
15299414
9603104
904931
15345857
9606489
908554
9604229
9611315
910012
915596
915597
15229293
15305398
906725
15280177
907100
15214724
15319085
9591567
9600198
15245723
15330815
9603655
9601268
9620879
15326377
15262467
9602143
9607354
9607480
15058901
9607540
9606504
9604954
15270428
15351498
9605225
9622061
9474112
910762
15311736
15196753
9565901
9557174
15301082
15247485
15148960
15268613
9589438
15329440
9596898
9596792
15319723
15333785
15347048
9593028
15344423
15338622
15333008
9604981
15332695
9608833
15332684
9611988
908603
9602658
9609501
15358301
910300
901414
915624
14967250
15192976
15182937
15300478
9577794
15081919
15263975
15244459
15326689
15324143
9592541
9596805
15242594
15236020
15281013
15289128
9601742
9601510
9608660
9593942
9607704
15340203
9599534
9610107
9602349
9610882
9611269
9604260
9613239
9618425
9614667
15288521
910633
9568834
915642
15304468
15292927
9586033
907025
15331123
15317232
9600958
15304539
15291559
9597364
9604619
15200090
15304265
15342311
9598467
9599186
9592523
15338281
15242900
15202304
9611384
9608098
15309881
15360456
9610864
9607321
910970
915657
15179568
15014719
15283046
9569412
15285168
15243500
9580667
905942
15226201
9584171
15326868
15328921
9596808
15352919
9602257
15301381
9590038
9602615
15342651
15317778
15338491
9607154
9607337
9604074
9610847
9610627
15259625
9612994
9606447
9608358
9611234
15297193
15328903
9609151
15344769
9611665
9613428
910201
915673
915675
915679
15292566
15172692
15287920
15270618
9580883
15304268
9587861
15281629
9589593
15247864
15142370
9589208
15319705
9581828
15314978
9591926
907196
15267677
9588873
15307689
15322543
9600463
15299840
15278924
9617184
15385629
15262421
9601272
9598159
9603476
9606917
15289715
9602703
15342046
9605884
9608362
9608883
909480
910723
911355
915692
15267320
15267314
15248803
15274800
15275852
15144943
15299555
9590424
15306117
9594637
15110496
9597231
15288513
9594275
9599765
15318770
15289152
9598400
15142281
9629247
15317648
9602692
15221293
9610637
9609500
15297274
9604055
9610952
9610056
9613804
15352425
9621074
915710
15097343
15283029
15248531
9578899
15354469
9587273
15304929
15200491
15324485
15187261
15313446
15275147
15280502
9597960
15307719
15337667
15327330
9599727
9601265
9594464
15289423
9603238
15327648
9605447
9597643
9597694
15288508
9613333
909717
910668
15263400
15295999
15295689
9576388
15284525
15302597
15310575
9584829
15301034
15288801
15306781
15304881
9598338
15331759
9597181
9592733
9594145
9594465
9595252
9597575
9592936
15312444
15329558
15295130
9605445
9603029
9604203
9600282
15294514
15241944
15338619
15372742
9608502
9609238
9610976
9608321
9606116
9609680
9608142
15284742
9614880
9617950
9614682
910109
910256
913393
915736
15160701
15251207
15244439
15315490
9583626
15295777
15321134
15302340
15341625
15301720
9595436
9596230
15264915
9587474
15314956
15340389
9601471
15334505
15273911
9601317
9594663
15341158
15228235
15388820
9626115
15348962
9604779
15228306
9614237
9594321
15314943
15381907
9608526
9618501
15342663
9621795
915751
9544295
15245390
15285483
905979
15291681
15157318
9580471
15281124
15291209
9581657
9587071
9583237
15318126
15281446
9591396
15325425
15316267
15319374
15265049
9577750
9601846
9599891
9603228
15294094
15302201
15334234
15341453
15313530
908201
9603141
9609061
15328911
15347177
9615741
9608335
15211034
15315935
15312941
9613248
9615408
9608368
9617457
909679
909701
15246941
15257725
15234382
15209773
15318957
905985
15189245
15324169
9586913
15278871
9631002
15316759
9590793
15335079
9591399
15314510
9603396
908292
9612543
9602169
15332048
9608254
9605953
15343857
9607723
9614654
9617096
15354913
9625726
9613055
9612171
9617313
9612736
9613973
15339218
9615943
9621539
9613178
909167
909179
9623048
15333873
15188232
915775
915777
15290100
15155145
15297609
15307420
9584168
15326875
9585909
9588048
15233218
9587706
9596798
15294844
9593679
9630806
15262451
15338924
15299833
9602465
9591548
15308217
9608665
9607114
9606766
9606938
9613198
9613763
9614214
9609554
15280399
9610855
15328219
9632358
9614610
9611660
9620422
9616451
9618218
15211693
9575413
15215209
15286883
15270164
9581447
15248811
9562203
15277970
15319273
15231106
15309261
15268946
9581469
15339775
9594703
9581661
15268235
15302295
9595229
9582255
15221546
9595090
9591345
15206261
907638
15337650
15292327
15260857
9599530
15283765
15256868
9633324
9623009
15325100
15398259
9608706
9600085
9615158
9610074
9613650
9610214
9610950
9611816
15338920
9615849
15296950
9615152
9616367
9617104
910739
915799
915800
915802
15233842
15317704
15295498
15283309
15220368
15300779
15173943
9587651
15292809
15308986
15162761
907008
9597748
15311552
15318728
15324138
15279537
15263870
15341449
15332896
9598210
9599259
15334480
9603846
15248525
9601149
9605787
9605408
9603409
9608943
9607893
15347159
9611241
15342655
15264958
9622567
910141
910340
911375
911659
915813
15259707
15213100
15287296
9568448
9575422
15286050
15289984
15282654
9582031
9593922
15260133
9583256
15307406
15266504
15175146
15277416
9581077
9608824
15228360
907708
9590266
15295803
15332694
15346591
9605401
9608666
9637213
9610198
9610650
9610834
9611413
9608338
9635850
9608172
9615502
9610796
9611770
9612204
9609518
9608331
9612385
9614437
9619866
9614861
910813
911251
915841
15234734
15158794
15265712
15350808
15055010
9587897
9584560
9587876
15282991
15315303
9589229
9592917
15266789
15304901
15324793
9593943
15297630
15216989
15318319
15314518
15304546
9601294
9603295
9598998
908330
9609007
9636819
9597403
15234732
9605008
9609772
9608841
15355865
15380974
9614737
9609101
9610412
9616851
9613744
9609854
9613840
9615096
9600859
910648
910904
911436
915853
915855
915856
15251657
15265252
15302208
15266462
9570756
15304597
15308016
15312496
15301712
9616011
9591365
15238438
9593673
15192914
15309575
15327649
15234946
15311106
15319057
9597803
15210822
15336881
15325119
15336036
9597192
9596666
15335412
15303238
15143178
9595598
9606750
9602924
9611582
15105192
9605946
9608341
9609104
15323848
9602908
9608136
15309900
9610300
9638188
9613355
15353649
9619827
9621354
9616332
9617110
9620151
15360181
909633
909856
910223
910579
15307717
15261266
915875
915876
15230419
15262007
15303941
15144538
15255224
15305819
9586694
9597412
9593117
15286642
9601310
15318128
15270403
9599947
9607497
15211025
9601884
9601480
9600115
9604217
9603327
9608715
9608299
15341751
15339439
9607211
909208
9613737
15208839
911058
915896
15218853
15190673
15137226
15246668
15292042
9579129
15265841
15216498
15288796
15305095
9594652
15336705
15335107
15302853
9589797
15295122
9603253
9629245
9605151
9600551
9604984
15309820
9596248
15333909
15361599
15174810
9599600
9605726
9611057
908360
9611025
9604978
9610633
9609031
9609488
9612154
9612368
15330521
9599228
9619987
9619207
9609515
9620060
9618000
9613945
9610490
910393
911292
911542
911629
15276115
15260154
15300486
15306460
15174264
9582814
15285451
15307117
15304566
15239736
15143072
15320021
15242803
15269491
15207466
15249416
9574829
9600297
9594852
15233236
9582549
15360946
15310907
15304149
15337619
9594655
9599939
9601354
15294842
15333528
9598549
15329840
15345684
9605240
9609033
15353955
15357645
9609718
9614216
9617788
9609343
9612525
9603814
9615874
15332972
9620156
9612243
9620373
9615055
911455
915930
15150125
15246662
9563762
15289447
15282395
15235959
15285470
9580324
15230709
9589987
15307243
15325771
9595177
15337342
15309487
15302989
15342654
9601588
15297293
9598527
9600869
9604982
9595053
15296084
9606954
9607168
9608089
9601393
9606033
9602260
9608570
9604032
15385967
9606772
9610804
9609310
908793
9612582
15353648
9614002
9609820
15355537
9613026
9620084
909128
15247383
909220
9619973
9615760
910619
911377
915949
915950
915953
15270310
9576589
9575230
15259252
15299529
15295462
905332
15292657
9592723
9587099
15314644
15322249
9593484
9594117
15277702
15334809
15320327
907645
15334197
9604491
15388187
15336342
15293881
15345856
9603856
15253659
9609838
9607762
9611228
15395759
15364736
9605926
9607683
9612651
9612424
15346288
9610209
9617111
15284725
9614036
9618475
9612720
9614516
9608498
15256143
9620618
15222145
909181
9620935
9621925
9613661
15348549
15293833
9622966
15233508
15275225
15253787
15314052
15249756
9585135
15302612
15308663
9590993
15328267
9585543
15360043
15361583
9600119
15331118
15251886
9597203
15348052
15254397
9608268
9609504
9603792
9609076
9605827
9601263
9608060
9609050
9612547
9608300
9599201
9633522
9603435
9606548
9610009
9610865
9608711
9616844
9611439
9612418
9611934
9609958
15350487
909010
9617083
9606726
9617794
15257668
9622888
9625012
9624390
15242894
915971
915972
915975
15270430
905040
15292682
9583368
15237557
9580118
15278997
15312497
9591773
15330188
15243102
9598730
15331760
9580389
15269977
15314525
9589235
15322851
9599702
9599345
15249751
15261837
9603420
15330508
9593875
908108
9602839
9595029
9594779
15297969
15281400
15284226
9612421
9607165
9633323
9606893
9611986
9614051
9612263
9612774
9609866
9610070
9617061
15277989
9619186
15350594
909479
915987
915988
9566085
15250966
15276773
15282644
15303628
15319709
15318118
15290944
9589408
15303607
15319720
9588254
15311521
15342839
9581440
9587905
15284814
9599301
9600764
15161670
15318403
9598173
15279236
15316866
15301058
9596900
9597799
9602681
9601075
9603944
15336706
9608862
9608486
9607150
15273866
9606509
9607768
15343523
9611628
9612958
15138721
9607384
9611655
9599103
9611055
9614718
15266648
9615127
9615901
9620539
9616702
9624943
9612643
9617101
15344150
916006
916007
15250282
9576396
15301391
15348540
15315309
9592527
9591169
9600103
15315003
15241956
9593879
15347332
9577390
9601843
15333326
15337961
15366239
9596580
15327323
9603841
9606144
9607315
15333911
9604367
9606178
9608847
15346246
15387543
9614179
9609638
9608325
9597980
9607589
9608302
15352737
9607959
9610710
9612987
9610931
9614992
9614576
9651440
9618236
9616108
9621274
911026
911207
916017
15202030
9573482
15222139
9579326
15264856
15347932
15308680
15287618
15316876
15313115
15302991
15250420
15215925
15308365
15311236
9593893
15330172
9595896
9596632
907575
15211369
15277111
9596384
15352294
15246552
15288488
14930502
15330074
15332716
9606168
9606758
15294098
9605208
15248823
9604237
15284802
15290696
9606535
9613776
15344754
9604525
9604202
9613417
15172679
9608100
9640722
9609254
9618632
9615582
15388807
909200
9621709
9624466
9616865
15337008
909661
15089708
909795
15105690
15254411
15187633
15293263
15170758
15273899
9616010
9588508
15240128
15239044
9602459
15322217
15299478
9600498
9600376
15302497
15333609
15270127
15328246
15326678
9607679
9607518
9607120
9603297
15320583
9606812
15355543
9614918
15211980
9612232
9607125
9608890
9620740
9610669
9604862
9611179
9611595
9616103
9614158
15383750
9600711
9609319
9608944
9612923
9613781
9615683
9618622
15195809
9624086
9627593
9621090
9618053