/*--------------------------------*- C++ -*----------------------------------*\
| =========                 |                                                 |
| \\      /  F ield         | OpenFOAM: The Open Source CFD Toolbox           |
|  \\    /   O peration     | Version:  v1706                                 |
|   \\  /    A nd           | Web:      www.OpenFOAM.com                      |
|    \\/     M anipulation  |                                                 |
\*---------------------------------------------------------------------------*/
FoamFile
{
    version     2.0;
    format      ascii;
    class       vectorField;
    location    "1e-06/lagrangian/dsmc";
    object      U;
}
// * * * * * * * * * * * * * * * * * * * * * * * * * * * * * * * * * * * * * //


100001
(
(153.668564 -772.3605955 -1693.653467)
(0 0 0)
(1969.510733 1161.397594 -320.8579929)
(1617.91188 -2569.485247 936.1478842)
(0 0 0)
(1688.172825 201.22591 421.0190559)
(0 0 0)
(-529.9003819 -1494.282977 2312.102742)
(327.2530686 -1371.101967 -401.7225813)
(0 0 0)
(0 0 0)
(0 0 0)
(239.1516711 485.5181202 -91.10163827)
(-369.8049273 -2443.081994 -986.7663058)
(0 0 0)
(-1160.312537 -803.6013838 299.9919919)
(-1005.009633 992.6211326 -176.5980895)
(-977.7563294 1029.065364 279.5841866)
(675.3870305 -549.6054473 -224.1852764)
(0 0 0)
(0 0 0)
(0 0 0)
(0 0 0)
(99.54947948 1109.567807 286.863594)
(620.1186912 844.6635494 1786.354378)
(0 0 0)
(0 0 0)
(779.6828103 1128.617876 1190.94394)
(353.8558435 -233.7222408 -1329.738879)
(1375.864765 1110.721754 -1243.328917)
(490.9252946 593.0090967 529.5078134)
(0 0 0)
(-837.9488803 -1130.620935 -354.1999479)
(-163.768775 1021.855886 124.2151663)
(0 0 0)
(0 0 0)
(0 0 0)
(0 0 0)
(1716.15477 2701.649443 -571.7268175)
(433.282025 -30.96009269 -694.6668732)
(-2005.434493 432.3119909 303.1250401)
(-1095.684092 -683.5025143 1575.850341)
(80.70552799 -324.0502825 -218.7794485)
(1027.611176 215.7847499 -2213.48612)
(0 0 0)
(0 0 0)
(0 0 0)
(0 0 0)
(-1386.120213 731.6798613 1005.002403)
(-702.4796228 -137.6958224 506.7272489)
(-854.2371975 1080.216589 -1231.634561)
(-643.4698174 -1386.829606 1874.79351)
(0 0 0)
(0 0 0)
(0 0 0)
(0 0 0)
(0 0 0)
(0 0 0)
(237.834853 523.5029723 983.9571709)
(0 0 0)
(-1455.242359 -1639.514976 -2007.746366)
(0 0 0)
(686.6751508 -2496.363631 -529.4162393)
(-177.9044573 1165.698254 -41.8804074)
(588.8658017 -792.3725868 2087.363346)
(0 0 0)
(-656.9286038 640.5368915 395.5851163)
(0 0 0)
(0 0 0)
(1365.00962 725.2465904 201.3552246)
(0 0 0)
(-576.0162219 1078.429295 -1611.489908)
(-741.749816 536.1954317 -929.8023395)
(0 0 0)
(413.6758312 1696.622869 -57.26000277)
(0 0 0)
(-742.3196909 -318.8730356 1025.375081)
(0 0 0)
(-1665.134614 104.0617345 -137.1725047)
(356.7747706 -279.565328 -992.4305307)
(0 0 0)
(3042.603344 1533.249209 -1818.754862)
(0 0 0)
(0 0 0)
(0 0 0)
(-2984.37554 -490.2102476 -521.775527)
(1502.58227 2573.386015 -1349.926065)
(0 0 0)
(-1796.949318 866.0009407 -835.8746956)
(0 0 0)
(-6.858886971 467.8252343 -183.4918591)
(-57.8229061 -252.1042157 1131.56019)
(0 0 0)
(0 0 0)
(218.0235448 -1449.507164 -279.7289857)
(456.7991872 182.8685519 620.2566811)
(0 0 0)
(0 0 0)
(0 0 0)
(60.85626235 -1008.673282 297.1186587)
(-1434.518186 -1143.339923 456.1161565)
(2021.129677 343.6637286 1295.541902)
(202.3374481 -722.5413714 -812.9046937)
(-1414.366787 1202.988954 1329.301217)
(0 0 0)
(0 0 0)
(-4.142719413 672.2747508 48.26477806)
(-83.69955876 1138.270294 -1701.06837)
(94.91500361 -1639.91028 2333.660285)
(0 0 0)
(0 0 0)
(-531.0396237 881.5393161 580.5923714)
(668.6032817 -534.7263475 1172.654644)
(0 0 0)
(1492.275273 -486.7952691 448.5436584)
(-121.1906879 1261.714911 -1273.099069)
(-856.7870561 -2890.472652 1541.002792)
(0 0 0)
(0 0 0)
(0 0 0)
(654.054388 2115.509022 267.1501604)
(0 0 0)
(0 0 0)
(-528.3210232 544.7990647 2966.557218)
(0 0 0)
(-1357.37977 276.9663241 -745.3954175)
(0 0 0)
(-1206.122638 -1573.270064 -1410.787914)
(0 0 0)
(0 0 0)
(0 0 0)
(0 0 0)
(161.7259512 1014.394586 -585.5745077)
(202.1784219 -263.8715433 1570.459588)
(0 0 0)
(0 0 0)
(0 0 0)
(0 0 0)
(0 0 0)
(-1577.178568 -1605.595051 43.7105223)
(0 0 0)
(318.2918134 1431.601421 -433.3259229)
(0 0 0)
(0 0 0)
(0 0 0)
(-605.6635031 -582.7335117 534.600528)
(-327.8669751 -751.2945063 -1079.52817)
(-42.45700789 46.15051924 1215.01658)
(0 0 0)
(0 0 0)
(-333.5029637 -14.48405694 -192.2886552)
(0 0 0)
(-302.6924659 -293.4261096 -687.6733419)
(0 0 0)
(-2194.575203 -3186.819771 -714.7734953)
(0 0 0)
(-40.62022022 -1171.259979 1690.758453)
(0 0 0)
(0 0 0)
(-690.0342163 780.8662566 -389.8154169)
(0 0 0)
(-519.1541252 924.7695384 -1296.639335)
(-403.2974006 -1539.711485 1999.201321)
(0 0 0)
(0 0 0)
(332.7610965 -1236.838897 1224.535203)
(0 0 0)
(0 0 0)
(0 0 0)
(0 0 0)
(100.710083 -1391.623601 -173.9601685)
(-159.8806163 907.1926252 -467.0992578)
(458.9290957 809.5681378 -940.4295921)
(0 0 0)
(-1418.749058 1393.929655 -485.0028513)
(-1258.953303 -1775.524561 -724.0182025)
(2455.644602 -1120.183396 2584.040702)
(380.306608 325.6185436 10.65556885)
(0 0 0)
(0 0 0)
(-612.4454636 -478.4811521 -605.5307361)
(0 0 0)
(927.4981261 131.7284255 247.016564)
(0 0 0)
(0 0 0)
(1254.479276 -494.4243029 329.9092084)
(927.3714431 -80.48182777 100.0909865)
(456.8806297 -156.8781718 -1525.259682)
(0 0 0)
(-117.7740398 -53.89475522 -277.9907874)
(1565.682027 -797.7335462 -2016.387268)
(0 0 0)
(1191.348905 1191.731672 -754.0064997)
(0 0 0)
(0 0 0)
(0 0 0)
(0 0 0)
(0 0 0)
(0 0 0)
(0 0 0)
(0 0 0)
(0 0 0)
(0 0 0)
(0 0 0)
(-2308.964809 -849.2710386 -2512.150981)
(0 0 0)
(0 0 0)
(-497.3157079 552.9576855 -590.5329815)
(0 0 0)
(264.652086 840.4908886 1696.861927)
(0 0 0)
(98.07051122 143.9953009 -291.8225073)
(0 0 0)
(-1995.445364 -126.9243854 -57.33428349)
(0 0 0)
(0 0 0)
(-2963.940576 -78.65236409 1031.428205)
(0 0 0)
(-549.5094785 242.242896 502.685112)
(418.0607528 -1382.709906 967.5995051)
(59.87153439 -334.5778919 982.7825371)
(0 0 0)
(-253.329361 103.7890018 406.4925511)
(0 0 0)
(0 0 0)
(1151.540749 1109.841999 -586.8434147)
(453.765862 3441.144425 147.1767242)
(0 0 0)
(0 0 0)
(0 0 0)
(0 0 0)
(0 0 0)
(-768.3651457 111.4501584 791.9774549)
(0 0 0)
(-16.43475956 829.196435 -804.981622)
(1099.43136 430.9231063 240.3882514)
(41.88082647 1478.480079 389.6172475)
(0 0 0)
(0 0 0)
(0 0 0)
(0 0 0)
(0 0 0)
(0 0 0)
(0 0 0)
(1207.084823 -413.2499227 2813.590084)
(0 0 0)
(0 0 0)
(0 0 0)
(0 0 0)
(-1034.859202 -105.2078296 1646.794519)
(-725.1358882 286.6241385 1235.424284)
(0 0 0)
(-166.852099 -317.4843239 2137.681082)
(0 0 0)
(4.567615655 88.56137572 852.8060249)
(0 0 0)
(-2840.742844 1162.109801 -1308.372079)
(0 0 0)
(0 0 0)
(0 0 0)
(0 0 0)
(0 0 0)
(0 0 0)
(1032.442186 6.075261873 -1362.133171)
(0 0 0)
(-366.060544 697.6110016 426.8498864)
(0 0 0)
(0 0 0)
(0 0 0)
(868.1401956 675.8675307 -160.6316081)
(0 0 0)
(0 0 0)
(0 0 0)
(810.6183283 507.0306068 218.3557265)
(84.98699678 -558.9059021 -792.3180991)
(0 0 0)
(0 0 0)
(462.6665259 1663.905773 -162.2853748)
(-454.5722906 1022.434914 -1025.67556)
(0 0 0)
(-1904.355222 -956.5011689 -1582.673599)
(0 0 0)
(0 0 0)
(0 0 0)
(0 0 0)
(3721.156946 -285.2102367 1322.738632)
(-599.4420741 278.0213216 -817.3176669)
(1726.027337 -638.4446163 1709.246977)
(-2401.741661 11.85155909 1024.397467)
(0 0 0)
(0 0 0)
(-1008.762692 1177.58473 -786.8688131)
(0 0 0)
(0 0 0)
(44.30157088 423.5944943 584.0433875)
(0 0 0)
(-2306.007331 1365.461351 -1153.126851)
(552.3941561 -929.8690439 -728.3762023)
(49.42994971 163.2860759 805.174238)
(0 0 0)
(0 0 0)
(519.8835477 -1463.363414 -871.7873842)
(650.2424198 -2172.4468 -1088.165422)
(-5.787704005 297.4424725 7.27147898)
(1990.398707 -750.6776277 854.9771349)
(0 0 0)
(946.2664903 -362.330464 842.0539369)
(608.1660809 -441.6487902 1140.830106)
(0 0 0)
(-890.3046209 -133.2561745 450.5296612)
(-379.2165725 1648.860588 513.8067779)
(0 0 0)
(-593.3090349 457.1166722 1028.030508)
(45.56382286 -760.3528439 -895.8117598)
(-1749.499687 -260.063127 -864.8912166)
(133.5867668 -8.178231552 878.1375566)
(9.057085733 -497.700699 -267.5768419)
(0 0 0)
(-964.8324501 -510.6896985 -705.8003875)
(-720.5133063 1137.177996 421.745206)
(0 0 0)
(0 0 0)
(3.495088824 -703.4014967 -744.6123092)
(375.9227297 425.2094235 -1948.892389)
(0 0 0)
(0 0 0)
(0 0 0)
(1264.623666 694.1878398 171.2400169)
(918.233949 511.7208592 686.5375027)
(0 0 0)
(-702.8182629 -370.2925962 -27.08632513)
(0 0 0)
(-726.7247095 -1808.128236 253.0625901)
(0 0 0)
(902.9030357 -2275.435305 744.3006963)
(2153.335973 -487.1874033 71.3496968)
(0 0 0)
(0 0 0)
(0 0 0)
(0 0 0)
(-205.078287 287.911399 503.9182435)
(1627.751226 735.278193 556.9549628)
(0 0 0)
(445.5513878 -732.9710128 2244.425415)
(0 0 0)
(1237.960458 376.2205305 508.6239715)
(1640.8184 -266.4748953 1141.511599)
(-733.1662033 1275.516407 363.7156793)
(785.9553154 1783.851987 -129.910234)
(0 0 0)
(0 0 0)
(-647.8213377 688.9334718 941.1067185)
(915.4052999 -613.6727874 -45.4693324)
(0 0 0)
(0 0 0)
(0 0 0)
(1372.424843 63.40590961 295.7572377)
(-664.2616365 -596.670273 1266.005076)
(0 0 0)
(0 0 0)
(0 0 0)
(0 0 0)
(-332.9494503 341.1649918 345.3932533)
(0 0 0)
(-53.35467919 50.96046052 -120.0034009)
(0 0 0)
(-883.4166353 -1978.416107 3584.698715)
(0 0 0)
(-587.2035359 -1620.10852 491.643504)
(0 0 0)
(-951.0511482 -90.69579834 414.1630351)
(0 0 0)
(0 0 0)
(-1163.36111 1697.591492 -957.6748277)
(-15.55900795 350.368057 -130.687097)
(0 0 0)
(0 0 0)
(0 0 0)
(0 0 0)
(270.729629 70.35059752 -420.4431971)
(-996.1175857 1060.318118 -150.5724592)
(0 0 0)
(0 0 0)
(0 0 0)
(1652.894876 963.4133131 363.0101923)
(602.5668557 -158.9668042 -52.0745942)
(-89.7044453 -1885.137024 -1555.208481)
(-633.3573842 1095.383801 541.2371249)
(0 0 0)
(0 0 0)
(-105.3222359 402.0610526 -517.1629202)
(-779.3897786 -909.6449731 132.6091332)
(428.9620683 799.076572 364.5635604)
(1516.417687 1036.77669 -1127.035507)
(0 0 0)
(-10.73361622 866.8545413 -749.8024786)
(0 0 0)
(0 0 0)
(703.0072914 192.6192318 -814.9680786)
(-346.7082858 984.0420592 -1228.397638)
(770.0867701 447.693342 1158.746834)
(0 0 0)
(-3065.237335 303.8251549 -1462.683536)
(-57.50532995 966.7171707 847.4763541)
(0 0 0)
(550.7734203 -655.8091645 -330.3915884)
(0 0 0)
(0 0 0)
(0 0 0)
(0 0 0)
(274.8107354 -1521.801299 -242.6792037)
(0 0 0)
(0 0 0)
(0 0 0)
(0 0 0)
(3960.032284 -321.3843168 19.24807111)
(0 0 0)
(654.8308211 -1404.366477 1444.908153)
(0 0 0)
(91.957892 435.504543 50.25250589)
(0 0 0)
(0 0 0)
(0 0 0)
(0 0 0)
(556.7722048 141.7775398 -1826.870805)
(707.1443467 -1735.240702 73.05199364)
(-592.3241377 -78.8663799 473.5851232)
(-574.1273865 198.5830015 2523.210987)
(-1260.271142 -809.4730021 -513.1309643)
(0 0 0)
(0 0 0)
(558.3258098 -832.7202429 386.2512639)
(0 0 0)
(-724.2437436 -622.9818312 2181.95566)
(0 0 0)
(0 0 0)
(0 0 0)
(0 0 0)
(403.6636469 868.0634384 -625.6471976)
(-344.5387441 -996.7494058 -470.7855983)
(0 0 0)
(0 0 0)
(0 0 0)
(423.2545224 54.81183245 -619.6025326)
(-1947.635278 -934.5756491 -1392.13662)
(0 0 0)
(0 0 0)
(36.05499144 -273.4913695 658.2960176)
(-2442.88162 -1074.782796 -396.635005)
(-18.8525185 -765.2856399 212.5139712)
(-330.3094825 772.7231745 -1452.518122)
(635.5683711 669.6180702 379.9358416)
(0 0 0)
(0 0 0)
(0 0 0)
(0 0 0)
(0 0 0)
(-305.3015975 -1835.124646 -310.7964952)
(0 0 0)
(0 0 0)
(0 0 0)
(0 0 0)
(-489.5381891 1016.911014 -1935.641391)
(-790.541924 -1782.008691 432.1043899)
(0 0 0)
(0 0 0)
(-949.6414141 -289.6489454 66.35810155)
(1439.100078 411.5729906 -1686.442919)
(2873.055781 -678.5529197 967.3116751)
(0 0 0)
(0 0 0)
(0 0 0)
(0 0 0)
(0 0 0)
(699.8814177 -822.8290077 1482.061485)
(0 0 0)
(0 0 0)
(-1103.659542 -1546.600396 122.4981822)
(0 0 0)
(0 0 0)
(0 0 0)
(0 0 0)
(520.2614677 201.608959 790.272182)
(0 0 0)
(0 0 0)
(0 0 0)
(-744.768927 277.7901925 35.91312158)
(102.8076351 343.354361 670.291769)
(0 0 0)
(0 0 0)
(9.280982467 334.9766187 528.5115417)
(0 0 0)
(0 0 0)
(1398.737465 -841.6696152 -1237.7516)
(339.2285286 553.5889209 -2275.085244)
(0 0 0)
(0 0 0)
(929.454407 558.5008327 -1700.758953)
(966.2569046 -1588.819188 -479.4786671)
(0 0 0)
(0 0 0)
(0 0 0)
(0 0 0)
(-273.7109564 129.2009483 511.5854935)
(750.4532965 2190.352479 -674.7224096)
(0 0 0)
(628.3268311 562.2729742 760.530543)
(0 0 0)
(-781.2778666 -189.0130932 -119.3327857)
(0 0 0)
(0 0 0)
(0 0 0)
(0 0 0)
(170.1508067 -475.1179726 120.9005542)
(-1042.990174 -215.0031794 1930.281688)
(0 0 0)
(0 0 0)
(1990.669601 522.3696574 2775.030081)
(0 0 0)
(907.5865048 -232.9145221 1163.860425)
(-178.9154255 717.1689203 -193.5870429)
(0 0 0)
(0 0 0)
(0 0 0)
(-814.6815555 -467.6405326 -100.6669963)
(0 0 0)
(3219.852018 95.65451938 -788.874226)
(-19.01909589 -274.0828645 67.19805645)
(0 0 0)
(0 0 0)
(-938.4061041 425.0128605 -273.8162383)
(25.54458246 206.7972 -799.8812036)
(268.3761791 320.4511773 467.8719609)
(-784.9448059 367.0440566 245.7861503)
(-935.096144 -2037.823923 -758.6373397)
(0 0 0)
(0 0 0)
(0 0 0)
(-768.3773261 920.311399 931.9506168)
(0 0 0)
(-950.4423323 11.14123495 -2667.947485)
(-45.20689832 872.0094873 1673.530368)
(-19.22164905 289.1261275 -614.2972031)
(96.73562602 -809.2001334 -1927.787715)
(0 0 0)
(0 0 0)
(-2.961966385 -1625.783336 103.3405212)
(569.803317 -2950.392091 -965.8866063)
(0 0 0)
(701.4423136 1063.443476 -51.33319395)
(0 0 0)
(0 0 0)
(158.4801119 -918.492492 700.5841299)
(-421.6396688 43.89798021 222.9623836)
(0 0 0)
(0 0 0)
(-719.2842987 -916.8247952 1796.593216)
(0 0 0)
(-625.5465103 433.9819207 -253.3205984)
(2072.047492 469.0506642 806.8316504)
(314.7640182 455.8964107 -103.4088075)
(1588.000864 -720.7912497 1554.912602)
(1415.568735 432.7829806 2225.983271)
(2323.655984 -863.7174826 937.4880035)
(-805.2271936 1533.515079 126.0623413)
(0 0 0)
(73.7980945 -1087.594795 966.6521462)
(0 0 0)
(0 0 0)
(-210.854897 -1298.204907 218.9706168)
(0 0 0)
(1791.451713 992.7189549 -2427.264683)
(0 0 0)
(-2665.032463 30.80693876 1558.21771)
(-430.8806911 1213.538089 1503.479916)
(0 0 0)
(-467.9189215 572.2253505 972.2690225)
(-643.7688026 -697.6209205 -276.3557115)
(-2136.789407 232.4079228 -255.1387873)
(-350.624041 -1452.711844 2124.244137)
(1019.494303 -368.5267237 605.9154227)
(-527.9414151 790.5595774 193.9541179)
(0 0 0)
(0 0 0)
(-1576.139157 -1105.41904 -1163.792922)
(-1008.70604 -112.271275 115.7050145)
(0 0 0)
(0 0 0)
(0 0 0)
(0 0 0)
(0 0 0)
(580.0107304 -564.9768809 -1126.166179)
(0 0 0)
(0 0 0)
(0 0 0)
(2023.160944 -92.76689091 936.8160961)
(0 0 0)
(2988.449583 1424.556969 -557.4454418)
(558.2735609 503.9374434 163.8021907)
(912.1233647 6.861045913 -18.11624543)
(-173.577778 -2353.053847 -730.7550364)
(81.75265397 -546.5133199 819.5731842)
(263.4674419 1116.777061 159.7973278)
(0 0 0)
(0 0 0)
(0 0 0)
(0 0 0)
(419.2149467 -2091.451493 1306.76466)
(1441.358798 624.6095592 -312.3473446)
(0 0 0)
(0 0 0)
(-2471.239856 672.1362508 941.8796817)
(-1254.103024 2069.655428 -1574.37143)
(-2648.228564 -159.3091771 554.1660754)
(711.907968 417.9408002 1719.365655)
(0 0 0)
(-61.88550241 -183.8623694 -2077.413534)
(1128.38812 -442.2251333 -509.0436605)
(1832.167682 -1976.956662 -657.1795237)
(0 0 0)
(0 0 0)
(23.80447292 1525.917308 -306.5954156)
(0 0 0)
(-828.3366864 -4220.401643 -350.1653589)
(0 0 0)
(-90.92455126 -250.2945756 -1355.874732)
(0 0 0)
(0 0 0)
(481.0398447 980.1641841 982.6122588)
(1886.417266 -493.0554567 834.1749275)
(-691.2367367 1258.887738 -1004.522984)
(83.93654658 369.6535498 -998.6554869)
(-315.6291842 -519.7692954 -2023.784309)
(711.698347 -2160.873961 349.6525606)
(292.8680585 -830.4486926 -788.1785771)
(-556.4364727 -81.14013536 -247.5447793)
(1586.615932 -571.6233289 774.0470279)
(0 0 0)
(421.7383043 375.0437573 94.04865975)
(0 0 0)
(-828.9591947 536.3483296 498.118237)
(0 0 0)
(0 0 0)
(0.2858103856 -126.5347275 -344.9563411)
(0 0 0)
(718.6540227 -1244.870417 -1306.111631)
(0 0 0)
(128.5160534 -2596.723869 1517.68276)
(0 0 0)
(-500.2307474 503.3951095 -382.9812105)
(0 0 0)
(0 0 0)
(0 0 0)
(-1921.663173 -1607.694517 -744.4892049)
(0 0 0)
(0 0 0)
(0 0 0)
(0 0 0)
(0 0 0)
(0 0 0)
(0 0 0)
(-822.5977335 927.6303334 1162.617436)
(0 0 0)
(2204.388581 217.8143955 728.8591432)
(2196.191487 -1139.811889 857.0509745)
(-264.5578459 -1181.747164 1356.735644)
(1931.869527 -285.7061567 1546.344227)
(69.29112717 686.1900755 -593.0216818)
(-990.0740768 901.0234664 833.8219639)
(1735.992204 224.7361413 -1265.147552)
(-1761.592851 -1349.62031 359.522689)
(-110.5843431 599.7070559 374.5458291)
(1119.255689 -118.7302464 1141.441341)
(0 0 0)
(-272.1098563 -953.0792751 651.4959644)
(-789.4576531 -636.1090221 -1960.092018)
(-249.7623551 287.2195042 -1492.090578)
(238.8027298 -971.7484829 562.5899003)
(-2340.325252 -1350.410084 -1909.002294)
(0 0 0)
(-1117.577122 -396.9129369 -292.2004454)
(0 0 0)
(-337.2294137 -658.6738192 -242.773883)
(0 0 0)
(324.6751921 863.4750565 115.5762223)
(-1141.760952 321.3496065 617.2087711)
(0 0 0)
(0 0 0)
(-281.0696557 696.9983324 -103.9320013)
(1264.36516 973.0997997 -131.8808177)
(895.7876077 -2057.285099 1494.836322)
(-893.6784678 -421.7660564 255.3380291)
(615.2666794 -1257.577594 1068.496092)
(0 0 0)
(0 0 0)
(0 0 0)
(400.0121628 -20.55022319 -1854.514147)
(-406.0739428 -2582.707873 -494.5895743)
(0 0 0)
(0 0 0)
(0 0 0)
(95.00216327 233.7026304 -1036.361724)
(544.7745663 207.8227367 -853.982695)
(0 0 0)
(2695.328679 1691.563026 -311.1215705)
(-552.9727639 -109.2623157 -113.1157956)
(0 0 0)
(0 0 0)
(1055.741957 97.89290128 -1032.766421)
(0 0 0)
(-257.0784172 970.5079717 1716.688303)
(0 0 0)
(0 0 0)
(0 0 0)
(-331.0758436 1928.294995 -1372.126946)
(-821.7468862 650.4532271 -999.2865953)
(1409.542374 -1605.361124 429.0599999)
(958.572528 306.675247 -65.05186264)
(0 0 0)
(0 0 0)
(0 0 0)
(-264.8862504 -20.97871761 749.0335864)
(0 0 0)
(275.0626074 500.9922122 1350.969917)
(-985.0046247 -597.7369679 -250.5907232)
(0 0 0)
(-857.3458116 -95.91907719 -2104.276764)
(0 0 0)
(0 0 0)
(0 0 0)
(44.73761867 2388.639473 1564.171191)
(0 0 0)
(246.7200867 97.89294646 694.4812451)
(2082.944488 618.8739618 889.7696754)
(1238.063782 1622.969707 -1384.997771)
(0 0 0)
(-1123.965811 -385.0315413 -452.8867277)
(0 0 0)
(0 0 0)
(-2365.733322 -539.7946959 734.334594)
(0 0 0)
(1053.090678 299.8008129 -310.9918765)
(0 0 0)
(0 0 0)
(0 0 0)
(1989.566289 -365.6405739 -63.56007696)
(0 0 0)
(0 0 0)
(0 0 0)
(0 0 0)
(0 0 0)
(0 0 0)
(-1654.593374 1449.750735 682.977918)
(0 0 0)
(0 0 0)
(1330.384011 2431.747013 544.5811876)
(654.16982 -328.6887427 -2232.761945)
(-1350.898951 -1662.920502 690.2784323)
(390.8477914 -356.4559236 -1228.862583)
(0 0 0)
(545.4231891 530.8224863 -1584.17187)
(0 0 0)
(0 0 0)
(-1046.804984 -158.5538952 -727.3881947)
(0 0 0)
(-876.4515571 1707.227604 -154.7931324)
(0 0 0)
(0.5776365389 460.1175461 -587.9508438)
(0 0 0)
(1198.073903 -169.0195814 1417.940239)
(228.2695432 -203.1881915 -2311.469702)
(0 0 0)
(834.2263574 -900.3422608 -267.1573891)
(0 0 0)
(0 0 0)
(0 0 0)
(945.3189787 -2510.706083 319.4754014)
(-1731.592475 436.6264371 -97.73686649)
(743.3958431 -62.89204433 -285.1507645)
(873.1477446 -344.2414061 817.6944281)
(-67.62873728 -640.6618417 -664.1253346)
(0 0 0)
(0 0 0)
(-5540.368989 -557.4709771 1617.947099)
(680.221171 -90.24963607 -105.2758262)
(0 0 0)
(0 0 0)
(0 0 0)
(0 0 0)
(844.7200567 1059.881138 353.3453656)
(0 0 0)
(-1024.023292 -587.6931788 -138.7456222)
(0 0 0)
(639.2785663 -821.8156644 1908.162104)
(798.4849118 1512.06068 334.5867414)
(0 0 0)
(2051.435745 25.74501255 -1320.168975)
(-1791.737004 -1649.481539 1509.07566)
(0 0 0)
(-3080.236097 -868.4944878 1169.134227)
(35.05488628 91.95443305 -773.8725355)
(0 0 0)
(871.0276 926.7022891 -1307.732076)
(329.7214932 -28.52352416 1152.014719)
(0 0 0)
(0 0 0)
(0 0 0)
(0 0 0)
(0 0 0)
(-970.7041282 48.24582131 860.291625)
(22.36400556 -350.7213461 -1256.519208)
(953.4653626 -1594.178011 576.5969565)
(194.1836173 -48.58319164 1222.229442)
(-688.8025425 -0.2056463984 366.6883216)
(0 0 0)
(1237.505002 643.4297414 -303.4496654)
(0 0 0)
(571.2560768 -2317.69194 -776.6659956)
(0 0 0)
(0 0 0)
(0 0 0)
(-397.3190071 1237.380253 -68.75750409)
(0 0 0)
(0 0 0)
(105.593094 -76.07039928 388.5037934)
(0 0 0)
(0 0 0)
(948.9799931 461.6202089 324.3262931)
(-413.2443498 1777.578309 -674.7768738)
(1349.464697 -270.3349546 -595.1708282)
(0 0 0)
(-1000.135782 637.6795946 2700.979722)
(-255.0764352 426.8310704 1332.075483)
(249.126221 153.1143775 -336.4096214)
(0 0 0)
(-441.9888902 -1061.401705 360.973457)
(0 0 0)
(2630.876396 -41.92463127 -1118.505564)
(0 0 0)
(-340.0330345 365.4759834 823.9861726)
(0 0 0)
(-578.3989329 -801.6756532 -1151.25246)
(0 0 0)
(0 0 0)
(0 0 0)
(0 0 0)
(0 0 0)
(0 0 0)
(0 0 0)
(66.25463633 1030.555966 86.07959367)
(0 0 0)
(0 0 0)
(618.0763439 395.7128648 159.6801654)
(1041.717115 984.3907132 -512.1063067)
(-332.2589606 27.32410228 926.6153165)
(0 0 0)
(-1583.956649 -1493.454603 535.9219607)
(0 0 0)
(176.1483104 482.6189795 -325.3632011)
(0 0 0)
(0 0 0)
(2519.174177 -53.46480416 -1037.712047)
(363.6834635 768.5514717 -1157.072707)
(-789.568611 296.0309048 -1373.49225)
(0 0 0)
(0 0 0)
(0 0 0)
(0 0 0)
(0 0 0)
(0 0 0)
(842.9736077 640.1550006 549.8895617)
(0 0 0)
(-179.360666 -1383.975315 -637.8944242)
(148.5082192 465.8950117 1081.369357)
(-411.1463208 429.520452 -305.8181459)
(65.71157268 46.28924017 1037.360214)
(562.7655928 819.2954101 -568.5923948)
(0 0 0)
(-829.8341927 -275.5637462 -673.5902612)
(0 0 0)
(-122.3084252 2925.357464 188.1865777)
(0 0 0)
(-609.4207741 577.6271983 570.6849635)
(0 0 0)
(0 0 0)
(826.5583093 371.4721774 858.4380629)
(542.8566846 1763.411363 744.8748589)
(505.6963051 557.222541 157.2600016)
(632.6815954 -1041.581533 2487.559359)
(-389.6980847 2294.217605 55.49324355)
(0 0 0)
(0 0 0)
(476.7046344 170.6400928 616.9506444)
(0 0 0)
(1482.473109 118.8942701 1156.511229)
(-1534.67459 2041.971759 349.3379381)
(0 0 0)
(0 0 0)
(1404.432016 -246.5505798 1435.834364)
(0 0 0)
(0 0 0)
(0 0 0)
(0 0 0)
(-35.15315028 -435.7520258 1411.112166)
(132.7863295 126.7716308 -108.2020619)
(0 0 0)
(0 0 0)
(-1539.382781 -1662.002258 -199.1263916)
(0 0 0)
(96.48214503 -165.3268078 56.12631517)
(0 0 0)
(0 0 0)
(-776.4878417 2147.743204 -728.1455332)
(0 0 0)
(-645.8101737 -387.3131074 630.430724)
(0 0 0)
(363.8673113 1154.851021 -295.1153169)
(-100.0709921 -1463.248947 -1982.938871)
(0 0 0)
(0 0 0)
(0 0 0)
(-503.9413775 -125.819075 903.8560624)
(-3.849288785 61.53030342 881.157859)
(0 0 0)
(410.2939 200.0057113 -2708.917879)
(0 0 0)
(1105.773481 332.0974301 113.0705935)
(0 0 0)
(248.3248535 -3029.981545 -1443.604728)
(-0.9938632739 72.28964845 288.0574085)
(0 0 0)
(655.3651914 -550.8547762 -764.0879683)
(493.7685111 1381.345422 1134.403836)
(0 0 0)
(-1054.012466 -380.6638745 789.6897201)
(247.2582986 -548.7491044 215.2162085)
(-316.8962846 250.0743832 604.5594465)
(-806.6729152 -1167.341374 222.0549557)
(-415.3473162 150.0763765 233.4123191)
(1268.641288 -1967.77217 -564.103849)
(-277.5093843 635.6406936 -167.0082863)
(0 0 0)
(0 0 0)
(-940.1039983 136.1628771 170.4945316)
(0 0 0)
(0 0 0)
(1969.040565 477.6945061 -2002.93182)
(0 0 0)
(0 0 0)
(1453.140165 -1316.522793 -1933.856743)
(-1805.080387 -184.3411641 1355.229201)
(0 0 0)
(-270.3514108 1130.782971 265.9319219)
(847.3243466 -1289.716626 2226.036504)
(-498.0189762 1358.39282 1078.217691)
(737.1641275 1642.043785 251.8291946)
(-763.647236 583.5670603 -1919.010156)
(0 0 0)
(295.3631803 1164.158729 -801.6876806)
(0 0 0)
(932.4974313 1747.978917 -20.73886085)
(0 0 0)
(1061.63752 120.7312766 1300.19577)
(453.4168991 -754.829417 109.9387287)
(1075.834645 -796.187082 -196.9327186)
(-2198.260719 -781.2677947 -1414.594005)
(584.5283018 307.4838287 -1001.313142)
(0 0 0)
(-83.20410664 -97.95650236 -591.4488403)
(716.9515229 -1102.422145 931.9208092)
(-906.0753121 121.414495 246.4023559)
(-550.7720937 201.4036716 -1001.948903)
(-15.64720364 -1268.153238 30.71941356)
(-2444.537185 -514.446165 -166.1477304)
(0 0 0)
(0 0 0)
(497.7884896 1255.814031 520.814334)
(-459.1204784 -2058.505363 -1783.219221)
(0 0 0)
(-3620.451201 725.1999709 961.188869)
(0 0 0)
(-1980.534647 547.2291825 -219.534386)
(437.9706102 368.1105978 690.8282564)
(-1344.422674 266.4002285 329.1155942)
(0 0 0)
(0 0 0)
(0 0 0)
(0 0 0)
(1297.736303 -1974.858181 503.7972341)
(0 0 0)
(420.8080482 -310.1950893 -1600.94684)
(0 0 0)
(0 0 0)
(-1016.666165 -293.1309733 1863.87853)
(0 0 0)
(64.31845288 -1.210669839 -34.34673725)
(0 0 0)
(0 0 0)
(901.2410604 -720.4660546 -153.5761587)
(-587.0065972 1064.722837 -719.1825278)
(0 0 0)
(0 0 0)
(-2066.666822 -1264.926426 1839.174135)
(-1708.694949 -1339.352597 348.6480912)
(-750.1420256 -1223.897559 -365.3397862)
(-1317.193843 -646.3240371 -1321.061095)
(0 0 0)
(0 0 0)
(-1883.651287 652.0124489 661.4948041)
(2435.631586 -439.3777885 2902.169289)
(-449.9822544 1652.074071 -2211.940431)
(-209.8012091 507.6470059 -186.3208434)
(-107.1747216 608.5253363 -490.3411806)
(-78.6965298 -141.0058169 -2530.301357)
(0 0 0)
(0 0 0)
(442.2030911 -645.1167763 220.8687922)
(-929.4173264 1648.350724 -983.2788204)
(-34.11635303 1069.329229 -829.3040842)
(0 0 0)
(1354.115556 -1424.125278 1889.020484)
(154.9707962 -594.0002446 601.3805397)
(0 0 0)
(0 0 0)
(-1060.600913 -657.3820187 527.0400186)
(0 0 0)
(0 0 0)
(351.8273476 -2962.393315 -630.8899062)
(0 0 0)
(-291.4762877 472.7299632 104.0708902)
(1901.39234 11.44118895 1435.268309)
(0 0 0)
(319.5529948 -1546.824233 448.4351296)
(55.06087988 -1849.62754 -360.2927152)
(-2257.930692 -282.0372835 798.4314843)
(0 0 0)
(0 0 0)
(0 0 0)
(0 0 0)
(-5.899914437 -178.4879326 -940.7055592)
(426.9279135 410.3304174 -757.6691494)
(-844.0126554 299.2906947 1410.850272)
(589.6240713 1056.278344 -109.6133165)
(-331.3531268 -1053.661428 -243.8924256)
(0 0 0)
(-869.2363839 1193.665519 -202.2823985)
(0 0 0)
(0 0 0)
(0 0 0)
(0 0 0)
(0 0 0)
(0 0 0)
(-1200.477476 346.8232074 -675.2388044)
(-1188.471612 275.9510501 -2181.292417)
(0 0 0)
(0 0 0)
(0 0 0)
(0 0 0)
(0 0 0)
(0 0 0)
(794.3182805 -1575.308272 755.3142554)
(0 0 0)
(-1962.848779 639.5581423 1322.724977)
(0 0 0)
(-1190.52736 -2446.165815 -573.5191936)
(0 0 0)
(0 0 0)
(-1881.382775 -2745.865046 -948.9428341)
(473.6469645 -1091.274558 -1183.058851)
(172.800512 -1235.11245 539.6491612)
(-799.0241163 985.5085661 -759.3683948)
(0 0 0)
(0 0 0)
(0 0 0)
(281.6384736 -2406.888827 -767.4382138)
(385.7415348 1027.563044 1047.349586)
(0 0 0)
(0 0 0)
(-161.2530772 1558.756378 1172.488239)
(70.48405337 572.5484396 -1044.063185)
(0 0 0)
(0 0 0)
(989.7978164 -1104.8066 1411.982163)
(0 0 0)
(-860.5569314 153.2436767 483.7966947)
(0 0 0)
(0 0 0)
(0 0 0)
(0 0 0)
(50.41776697 -784.8395441 -263.7228176)
(334.6277385 -129.7201009 184.0408482)
(0 0 0)
(0 0 0)
(0 0 0)
(234.3694528 -922.7473124 1940.972408)
(494.7844751 -1148.68375 1048.230424)
(0 0 0)
(735.9307689 -2880.436867 993.4503927)
(-1609.304461 -314.1828498 -1415.56356)
(293.557558 -43.07718511 623.460663)
(0 0 0)
(-79.36825508 475.2236625 210.421175)
(0 0 0)
(0 0 0)
(1697.817234 216.8567368 -66.39635337)
(-762.6035131 -1386.506528 610.4424695)
(0 0 0)
(-735.5050843 1329.603375 -821.7104281)
(1986.287036 1144.160118 -1903.817484)
(0 0 0)
(954.738351 -132.3845005 -599.21654)
(-1952.700353 -872.18954 -2216.416988)
(0 0 0)
(1103.51943 31.21318691 437.6083953)
(-1149.461042 -1104.570323 -1815.151381)
(0 0 0)
(0 0 0)
(-1482.256254 1471.884562 -209.9681202)
(287.5718588 -1435.406211 -1441.894505)
(0 0 0)
(0 0 0)
(0 0 0)
(0 0 0)
(-1294.6103 -1103.057934 -768.1203723)
(0 0 0)
(-268.3642198 -713.09046 1657.826243)
(592.0389379 3158.264637 -838.5291695)
(-1292.799778 -999.0754345 -292.2351535)
(-1529.073343 -1919.390846 -421.8283332)
(-71.22652875 -177.9857304 -216.8815947)
(0 0 0)
(0 0 0)
(0 0 0)
(0 0 0)
(-275.486873 1067.021708 -306.4445863)
(470.327847 461.7115184 -2064.308132)
(-1440.823568 -1601.823177 1785.499311)
(-222.3001138 188.145631 -348.0370108)
(0 0 0)
(0 0 0)
(1426.081487 1531.003292 -745.4292814)
(0 0 0)
(0 0 0)
(0 0 0)
(99.67206331 -10.60674958 -1069.744916)
(-950.0948083 385.7202602 -183.5319058)
(0 0 0)
(715.3048649 475.2218402 -1138.606054)
(1332.809165 794.596307 -544.3007409)
(521.6896445 991.8312902 -638.5720128)
(698.7173207 -1770.091381 487.2024161)
(-229.9762563 1259.635913 -63.87180775)
(1187.277687 936.2740524 -704.8915912)
(1030.219609 372.0437113 -533.6631062)
(575.8822393 405.9187808 -609.0537623)
(74.19872238 521.0539463 -1385.224213)
(1505.517434 957.671689 1126.045943)
(106.5392607 -2193.690129 1693.230777)
(0 0 0)
(0 0 0)
(-389.845183 -1729.514051 83.03260124)
(0 0 0)
(591.086704 559.1900536 -1808.16075)
(0 0 0)
(0 0 0)
(998.9678723 1696.398967 809.7261303)
(0 0 0)
(0 0 0)
(0 0 0)
(1945.784187 -2098.039193 -1192.586136)
(1303.116132 -1637.860981 841.7461039)
(0 0 0)
(0 0 0)
(-354.1453565 -656.1330949 1699.138877)
(0 0 0)
(-1442.737764 38.11552427 63.18282121)
(0 0 0)
(543.4898992 1592.076431 -60.15495437)
(-1365.901276 -1333.831042 493.8701102)
(512.9338861 393.8917014 -119.5440176)
(-265.5269138 -51.95488844 136.4482223)
(-199.2676406 -1558.023672 -3375.070541)
(0 0 0)
(0 0 0)
(1022.331025 581.2362288 -551.5228202)
(0 0 0)
(0 0 0)
(0 0 0)
(0 0 0)
(0 0 0)
(0 0 0)
(0 0 0)
(776.9469226 -1073.752563 350.2156001)
(0 0 0)
(-436.7200221 911.8685714 -618.5484694)
(0 0 0)
(124.0793801 138.1138038 1250.598339)
(0 0 0)
(461.6012828 -465.3451238 -239.204943)
(-849.6259919 301.6437543 -94.63305589)
(-601.4999677 825.3078581 -3408.081236)
(-968.776976 -890.7818247 1327.438435)
(1925.483033 489.6006723 -23.13474946)
(0 0 0)
(0 0 0)
(0 0 0)
(0 0 0)
(93.12720797 -863.4169184 -2350.666271)
(0 0 0)
(-701.7048319 473.983469 -57.82377051)
(0 0 0)
(626.6474865 997.2493286 -911.8281493)
(0 0 0)
(-662.5284999 6.238684294 85.4125513)
(0 0 0)
(-324.4202728 1463.703041 -1481.812872)
(0 0 0)
(2802.603555 304.1734323 384.7466463)
(0 0 0)
(823.2542228 -1440.495115 -1159.21973)
(314.8910347 758.26708 -848.3387695)
(0 0 0)
(0 0 0)
(0 0 0)
(1015.871665 143.8784724 310.1086641)
(0 0 0)
(0 0 0)
(-157.3128324 -767.7421962 479.4749554)
(0 0 0)
(-649.6265798 -62.09510822 -2484.501842)
(619.0045105 -4013.611603 932.7696445)
(-1236.891317 -403.5517754 239.2020925)
(-1326.974203 -423.1061166 525.6710114)
(209.4927915 -201.2188473 40.8429971)
(0 0 0)
(0 0 0)
(0 0 0)
(207.1526097 -962.8855803 -50.28167535)
(0 0 0)
(0 0 0)
(0 0 0)