/*--------------------------------*- C++ -*----------------------------------*\
| =========                 |                                                 |
| \\      /  F ield         | OpenFOAM: The Open Source CFD Toolbox           |
|  \\    /   O peration     | Version:  v1706                                 |
|   \\  /    A nd           | Web:      www.OpenFOAM.com                      |
|    \\/     M anipulation  |                                                 |
\*---------------------------------------------------------------------------*/
FoamFile
{
    version     2.0;
    format      ascii;
    class       scalarFieldField;
    location    "1e-06/lagrangian/dsmc";
    object      wallTemperature;
}
// * * * * * * * * * * * * * * * * * * * * * * * * * * * * * * * * * * * * * //


100001
(
0()
4(4116.989387 0 2 9.123750835e-20)
0()
0()
4(3701.899593 0 62 3.234877026e-20)
0()
4(4370.666801 0 52 2.620344455e-19)
0()
0()
4(7556.845501 0 36 2.857276363e-19)
4(2508.701507 0 0 4.022428421e-20)
4(9462.943689 0 29 1.197854877e-19)
0()
0()
4(4216.961422 0 92 2.20863058e-19)
0()
0()
0()
0()
4(2063.86132 0 10 5.051684208e-20)
4(6467.526215 0 35 1.656544673e-19)
4(7009.575559 0 16 7.08786717e-20)
4(2086.124248 0 60 2.036345829e-19)
0()
0()
4(2399.370706 0 80 1.842756367e-19)
4(9974.841341 0 79 3.709601352e-19)
0()
0()
0()
0()
4(2750.985035 0 70 7.513546898e-20)
0()
0()
4(7352.260796 0 36 7.219170156e-20)
4(5180.722071 0 33 7.22037175e-20)
4(8762.048465 0 18 2.06434222e-19)
4(5052.889835 0 83 9.206897075e-20)
0()
0()
0()
0()
0()
0()
4(3830.326347 0 82 7.740713738e-20)
4(6520.006714 0 65 2.608311886e-19)
4(7185.872678 0 26 6.066179224e-19)
4(3021.012438 0 1 8.400812793e-20)
0()
0()
0()
0()
4(6438.512758 0 55 8.558771534e-20)
4(3614.952729 0 2 1.659497244e-19)
4(9875.689385 0 9 2.361821384e-19)
4(7565.672157 0 76 3.125622109e-19)
4(4093.381427 0 82 3.229526839e-20)
4(7974.887598 0 97 2.924877516e-19)
0()
4(6995.095528 0 86 2.21333188e-19)
0()
4(2376.991731 0 30 6.340319943e-20)
0()
0()
0()
4(4015.039938 0 92 2.675750063e-20)
0()
4(3412.158472 0 11 2.515934832e-19)
4(7754.711233 0 17 2.003560369e-19)
0()
4(4038.964418 0 12 2.400246244e-19)
0()
0()
4(3444.377914 0 41 1.588908402e-19)
0()
4(4337.313275 0 22 1.23567427e-19)
0()
4(6704.540028 0 65 1.934756476e-19)
0()
0()
4(7898.465514 0 97 5.677093834e-20)
0()
4(8724.396695 0 88 5.660486011e-20)
4(3311.509699 0 1 4.561859508e-20)
4(5759.934147 0 94 3.298901911e-19)
0()
0()
4(9741.304308 0 49 1.82051088e-19)
0()
4(4501.76549 0 13 2.271987951e-20)
0()
0()
4(2030.528478 0 90 1.007291136e-19)
4(9316.957577 0 69 1.272095685e-19)
0()
0()
4(2053.788285 0 30 6.940594683e-21)
4(9981.856348 0 39 1.136451938e-19)
4(2705.747202 0 30 1.24582217e-19)
0()
0()
0()
0()
0()
4(9570.606855 0 39 3.278920042e-19)
4(4653.531731 0 3 1.174838081e-19)
0()
0()
0()
4(8693.106804 0 68 2.104509936e-19)
4(6526.868269 0 5 3.194916882e-19)
0()
0()
4(6196.630205 0 45 4.194255834e-19)
0()
0()
0()
4(4478.899061 0 83 5.328033224e-20)
4(2726.951275 0 20 6.841896424e-21)
4(4666.4841 0 83 3.916949754e-20)
0()
4(4185.94167 0 42 4.873910843e-20)
4(5019.640377 0 3 1.03131995e-19)
0()
4(9971.03633 0 89 1.315068669e-19)
0()
4(2136.900498 0 0 2.893612253e-20)
0()
4(8992.736541 0 58 2.391186347e-19)
4(4641.729922 0 83 7.12586385e-20)
4(6702.789226 0 75 3.46101348e-19)
4(7577.158228 0 86 2.454646543e-20)
0()
0()
4(3071.203664 0 61 4.106464034e-20)
4(4912.161724 0 93 7.241028746e-20)
4(7280.605829 0 66 5.296258846e-19)
4(8029.840153 0 47 3.53981651e-20)
4(6311.780148 0 15 8.676160785e-20)
0()
4(8857.314843 0 8 2.845975652e-19)
0()
4(7949.747452 0 57 5.209559695e-20)
4(9988.889674 0 9 5.919043986e-20)
4(4448.828224 0 83 4.251568595e-20)
0()
0()
0()
4(7323.053585 0 46 9.494290119e-20)
4(6529.545212 0 15 2.863049687e-19)
0()
4(7641.206949 0 37 2.784257555e-19)
0()
4(5702.657549 0 64 2.430933309e-20)
0()
4(5469.594723 0 74 2.28714072e-19)
0()
4(4873.719854 0 23 1.329564397e-19)
4(6489.951314 0 75 2.470003487e-19)
0()
4(2708.535888 0 60 6.909418955e-20)
0()
0()
4(8263.319734 0 67 9.797099653e-20)
4(5600.94431 0 74 3.895433471e-20)
0()
4(6604.443852 0 85 1.574713063e-19)
4(6409.611853 0 65 1.02782353e-19)
4(9509.470704 0 99 2.810796595e-19)
4(6288.663799 0 55 2.624802794e-19)
0()
0()
0()
4(5085.13548 0 73 1.111516697e-19)
0()
0()
0()
0()
4(9885.886319 0 89 8.420606094e-19)
4(8848.338425 0 18 3.921956711e-19)
0()
4(8378.073299 0 7 2.206049493e-19)
0()
4(3654.489732 0 92 1.363484923e-20)
4(9394.738363 0 79 7.063291211e-19)
0()
0()
0()
4(7938.970628 0 27 2.331225837e-19)
0()
0()
4(7781.329215 0 87 5.260171029e-20)
0()
4(6562.230143 0 45 3.070994088e-19)
4(4582.319288 0 13 9.175314838e-20)
4(5021.167964 0 83 6.821909335e-20)
4(9229.101789 0 9 1.695597054e-19)
4(4132.812165 0 52 1.535698658e-19)
4(3710.089444 0 62 5.401682358e-20)
4(4118.509616 0 62 2.901365482e-20)
4(8887.765127 0 68 3.245108536e-19)
4(2813.201933 0 91 9.454282171e-20)
4(5559.80276 0 44 5.881397474e-20)
4(4027.997815 0 92 9.034182643e-20)
0()
4(9041.637827 0 48 1.092059227e-19)
4(2668.93781 0 80 7.498312443e-20)
0()
4(9564.5557 0 59 4.851456913e-19)
0()
4(9234.643514 0 89 3.125131084e-19)
0()
4(3557.768753 0 1 8.202750196e-20)
0()
4(8953.243733 0 68 3.254387606e-19)
4(3403.160217 0 1 8.089344566e-20)
0()
4(9430.360202 0 29 3.4108521e-19)
0()
0()
0()
4(4388.175818 0 82 1.94069496e-19)
0()
4(2575.748792 0 20 9.550614953e-20)
4(4234.552958 0 22 9.719196763e-20)
0()
0()
4(3201.894821 0 41 1.316014909e-19)
4(4751.131673 0 73 2.397084629e-19)
4(4334.458791 0 22 9.784809079e-20)
4(3958.973249 0 52 6.967941986e-20)
4(5365.103154 0 94 2.274911313e-20)
0()
4(7945.386247 0 7 8.865440942e-20)
0()
0()
0()
4(6098.739828 0 55 4.234401158e-20)
4(2065.638196 0 70 5.570564713e-20)
4(9329.737776 0 59 2.354049758e-19)
4(2443.903091 0 10 4.444858577e-20)
4(8498.526015 0 98 9.702079349e-20)
4(9958.650145 0 59 2.198497923e-19)
4(8567.103843 0 78 3.734928489e-19)
0()
4(3925.032222 0 72 4.39972095e-20)
4(4656.00169 0 33 7.256852421e-20)
4(8885.125829 0 38 4.30206592e-19)
4(2428.567547 0 20 5.078875402e-20)
0()
0()
4(6361.458105 0 45 2.695970578e-20)
0()
4(7181.103417 0 16 5.345985978e-19)
0()
4(9079.009984 0 98 2.821818812e-19)
0()
4(3231.987571 0 21 1.127184778e-20)
4(4266.140066 0 2 1.379502042e-19)
4(9521.364298 0 49 4.464019818e-19)
4(2098.459362 0 10 5.134346588e-20)
4(5214.27583 0 84 3.964026792e-19)
4(5550.970638 0 74 1.54632275e-19)
0()
4(6996.427375 0 66 2.64034938e-20)
0()
4(9338.633576 0 79 8.847633084e-20)
4(6450.324256 0 25 1.031236173e-19)
4(7050.109806 0 36 4.403792586e-19)
0()
4(9081.528915 0 38 1.87990745e-19)
4(8755.232097 0 8 2.896359284e-19)
4(6606.062076 0 85 8.528062044e-20)
0()
0()
4(2956.753628 0 51 1.650238401e-19)
4(3280.769864 0 91 6.659875312e-20)
0()
0()
4(7522.498193 0 36 2.22744621e-19)
0()
4(2319.48061 0 90 1.013773951e-19)
4(4214.396643 0 2 2.340540196e-19)
4(5096.667064 0 23 1.330412787e-19)
4(8265.683576 0 77 4.446750815e-19)
0()
0()
0()
0()
4(4890.79499 0 13 7.927565309e-21)
4(6256.282443 0 5 7.134252371e-20)
0()
4(3018.943445 0 61 6.007666113e-20)
4(2280.500541 0 40 1.124977764e-19)
0()
4(7437.916647 0 56 2.784506055e-19)
0()
0()
0()
4(8508.179621 0 98 8.516946578e-20)
4(9619.207794 0 19 2.416141403e-19)
0()
0()
0()
0()
4(2951.730327 0 61 9.283705607e-20)
0()
0()
4(3562.622016 0 31 3.129010966e-20)
0()
0()
4(7743.423052 0 67 3.060418418e-19)
0()
0()
0()
0()
0()
4(8655.657076 0 18 2.941558365e-19)
4(7946.044213 0 17 1.297036241e-19)
0()
4(2723.167488 0 80 1.742970325e-20)
4(2331.503185 0 0 2.59189891e-19)
0()
0()
4(5911.743254 0 4 1.490162029e-19)
4(6397.777227 0 65 1.056717939e-19)
4(2795.799323 0 80 5.843181321e-20)
0()
0()
4(4529.338087 0 53 9.240815939e-20)
0()
4(2650.794001 0 90 1.376180714e-19)
0()
4(6755.147359 0 5 3.991257315e-20)
0()
0()
4(6380.088573 0 65 9.858570107e-20)
4(6132.942156 0 55 4.551309196e-20)
4(4259.377092 0 92 8.610788466e-20)
4(8071.696123 0 47 1.047148794e-19)
0()
0()
4(8354.879787 0 67 9.795906909e-19)
0()
4(8591.622216 0 98 1.791976641e-19)
0()
0()
0()
0()
4(9056.856379 0 88 3.321556213e-19)
4(4837.830879 0 83 1.724252416e-20)
0()
0()
4(5842.914662 0 44 6.985050151e-20)
4(8080.41251 0 47 1.969388189e-19)
4(8483.569716 0 98 5.115148019e-19)
0()
0()
4(6988.356665 0 86 1.308908486e-19)
4(6303.869465 0 35 1.615662843e-19)
4(3957.121637 0 62 9.188510721e-20)
4(4274.583961 0 72 1.120251255e-19)
0()
4(2841.699673 0 81 7.075761668e-20)
0()
4(5041.814071 0 13 1.776327351e-19)
0()
4(6091.872982 0 5 3.200895534e-19)
0()
4(8636.726182 0 18 8.505013816e-21)
0()
4(3619.386303 0 82 5.371471938e-20)
4(3706.997131 0 22 1.767124602e-19)
0()
0()
4(3079.400032 0 91 4.458774076e-20)
4(3159.105111 0 51 1.954981721e-19)
4(2560.401403 0 50 1.463551241e-20)
4(2903.745136 0 61 1.127343816e-19)
0()
0()
4(8040.981098 0 27 1.942393809e-19)
4(4756.649416 0 23 5.504129214e-20)
4(3156.256342 0 91 1.605747681e-19)
0()
0()
0()
0()
4(5739.986087 0 34 2.343258748e-20)
4(2614.530242 0 10 6.307891126e-20)
0()
0()
0()
0()
4(3282.28191 0 41 1.589096387e-19)
0()
4(7697.224582 0 17 3.26458966e-20)
4(6445.944697 0 35 3.029063762e-19)
0()
0()
0()
4(8807.876658 0 98 1.25482217e-19)
0()
0()
4(4122.867614 0 32 7.651452836e-20)
0()
4(6374.795303 0 55 2.36007223e-20)
4(9342.413624 0 99 6.396818533e-19)
4(5785.47899 0 84 1.781625066e-19)
4(7645.224464 0 17 5.54824649e-20)
0()
4(8459.627307 0 68 1.864449671e-19)
4(3156.960573 0 31 1.767346263e-20)
4(4145.630265 0 42 5.560278351e-20)
4(5022.226632 0 43 5.651440457e-20)
0()
4(6794.408862 0 75 9.845508108e-20)
0()
4(9669.364777 0 89 4.849332453e-20)
0()
4(9856.630767 0 19 8.304045326e-19)
4(9984.300913 0 99 4.207169398e-19)
4(8500.030024 0 98 1.410054351e-19)
4(8370.367924 0 27 4.570049374e-19)
0()
0()
0()
0()
0()
4(2760.623502 0 50 1.977476989e-19)
4(7803.337838 0 27 1.273551381e-19)
0()
4(2014.568116 0 80 5.108465124e-20)
0()
4(6065.924221 0 15 1.786734606e-19)
4(8852.93592 0 28 4.41703488e-19)
4(9448.32463 0 29 2.88091375e-20)
4(3047.268004 0 11 1.65758098e-19)
0()
0()
4(7023.390818 0 26 1.148460382e-19)
4(2471.361094 0 10 2.639517846e-20)
4(6481.081998 0 65 2.033774457e-19)
0()
0()
4(8991.848217 0 18 2.36922064e-19)
4(5782.979186 0 54 1.805215445e-19)
0()
0()
0()
0()
0()
4(9646.717506 0 49 3.679313705e-19)
4(2225.88417 0 20 2.076118432e-20)
4(3928.450447 0 82 1.414628538e-20)
4(3898.852185 0 72 1.216616888e-20)
4(8338.475969 0 87 1.866351391e-19)
0()
4(2687.882983 0 20 4.236845199e-20)
4(6407.42488 0 35 1.674434422e-19)
4(9611.5217 0 59 2.77904544e-19)
4(6491.286627 0 55 8.003181114e-20)
0()
0()
4(2833.908909 0 31 2.122129217e-19)
4(9447.284386 0 49 1.266258612e-19)
0()
0()
0()
4(8642.712486 0 98 3.210545761e-20)
4(7311.95083 0 36 5.173424773e-20)
4(5237.944942 0 14 3.472363473e-20)
4(4267.242347 0 62 5.047128231e-20)
4(2450.574934 0 30 8.595602094e-20)
0()
4(9203.304316 0 49 6.039127678e-20)
4(5903.213441 0 94 1.389209304e-19)
0()
4(4161.302666 0 2 9.876524064e-20)
4(3929.99011 0 92 7.804567951e-20)
4(7051.376643 0 56 9.491780148e-20)
4(2318.256297 0 30 9.078920754e-20)
0()
4(4754.517165 0 93 8.563229674e-20)
4(3950.959974 0 12 2.467403447e-20)
4(3882.658365 0 82 4.152878904e-20)
0()
0()
4(6749.054041 0 95 2.259228434e-19)
4(9156.176156 0 18 2.202939151e-19)
0()
4(2071.456804 0 40 6.252203151e-20)
4(8603.209707 0 28 5.337376953e-20)
0()
0()
4(6723.13327 0 65 3.513548447e-19)
4(5896.157053 0 14 1.234501852e-19)
0()
0()
4(9268.671667 0 29 1.974391314e-20)
4(2192.602398 0 0 1.602839649e-19)
4(4337.939332 0 32 6.406840826e-20)
4(5404.569837 0 84 1.121556933e-20)
0()
0()
4(8498.263359 0 78 4.077748714e-19)
0()
4(2633.761692 0 20 9.056725781e-20)
0()
4(4461.640598 0 93 1.785651417e-20)
4(2256.308365 0 20 1.432068708e-19)
4(4255.493771 0 52 2.600478262e-20)
4(9399.258921 0 69 2.833358532e-19)
0()
0()
4(7030.197134 0 26 3.291347684e-19)
4(7581.892636 0 76 1.463481017e-19)
0()
4(7058.679561 0 86 2.653579405e-19)
0()
0()
4(6666.54279 0 35 1.633177997e-19)
4(5586.90107 0 54 2.547795928e-20)
4(7241.920053 0 66 1.349027004e-19)
0()
4(3860.949593 0 32 1.768826682e-19)
0()
0()
4(9840.437605 0 29 3.983127669e-20)
4(5782.577326 0 74 3.610410938e-19)
0()
0()
0()
0()
0()
4(3781.248129 0 62 1.604612798e-19)
4(4502.195638 0 23 1.082543392e-19)
4(3956.220107 0 72 2.402936269e-19)
0()
4(9179.857745 0 68 8.030581297e-20)
0()
0()
0()
0()
4(3789.532647 0 12 1.570503394e-19)
4(5244.535588 0 84 3.99516563e-19)
0()
0()
4(9922.90331 0 19 1.109186409e-19)
0()
4(4740.31958 0 33 2.868238585e-20)
4(6314.264983 0 65 6.525744786e-20)
0()
0()
4(4239.492582 0 42 1.605695487e-19)
4(5904.405563 0 14 7.045900963e-20)
0()
4(9484.60674 0 29 4.000076852e-19)
0()
0()
0()
0()
0()
0()
0()
4(8156.890156 0 67 2.14205486e-20)
0()
4(2107.202443 0 20 1.207545873e-19)
4(8810.96294 0 28 1.873834049e-19)
0()
4(8689.328309 0 18 3.831077713e-19)
0()
4(9404.897163 0 99 3.338722432e-19)
0()
4(8128.942761 0 57 1.196217169e-20)
4(7631.490759 0 27 1.510616153e-19)
0()
0()
0()
0()
0()
0()
4(6165.300588 0 95 8.501557068e-20)
4(3438.959193 0 21 2.025430538e-19)
0()
0()
4(2347.675593 0 70 1.177528457e-19)
4(4900.600399 0 33 1.826393537e-19)
4(7285.588665 0 66 2.575176041e-19)
4(7329.230047 0 96 3.451855139e-19)
4(6908.460716 0 26 8.685609121e-20)
0()
4(6253.66047 0 25 1.859789046e-19)
4(6565.243061 0 75 1.033239081e-19)
4(6418.710611 0 85 5.916708494e-20)
0()
4(7651.17475 0 7 1.677465862e-19)
0()
0()
0()
0()
0()
0()
4(2727.108276 0 30 2.024870427e-19)
4(6228.741288 0 5 2.685652974e-20)
4(6670.619556 0 65 1.747064427e-20)
4(5802.717644 0 64 5.225886673e-19)
0()
0()
4(7452.164467 0 96 8.166264951e-20)
4(8527.436817 0 78 1.021959962e-19)
0()
0()
0()
0()
4(5913.424234 0 14 4.468389913e-19)
0()
0()
0()
4(4174.57438 0 62 2.515700033e-19)
4(6424.112359 0 75 6.77151717e-20)
0()
4(2763.980864 0 80 3.122310586e-20)
0()
4(6337.356114 0 5 2.731260646e-19)
0()
4(6746.179835 0 15 4.940243888e-20)
4(9048.323694 0 88 3.351308923e-19)
0()
0()
0()
0()
0()
0()
0()
0()
0()
4(5589.134087 0 34 4.595535831e-20)
0()
4(9426.587934 0 79 2.548857272e-19)
0()
4(3448.561855 0 51 9.247366835e-20)
4(7376.774385 0 96 9.885075314e-20)
0()
4(9333.102801 0 39 9.073937039e-20)
0()
4(5706.042095 0 64 1.601252289e-19)
0()
4(8600.304429 0 68 4.345404523e-19)
0()
4(8700.110214 0 18 7.955963784e-20)
4(5076.134012 0 73 9.055968146e-20)
4(2681.728006 0 40 1.210277715e-19)
0()
4(2446.128562 0 0 2.457181137e-20)
4(6113.313197 0 65 1.440843545e-19)
4(4628.712704 0 23 9.650473782e-20)
4(7978.661379 0 47 1.87606915e-19)
4(4733.798722 0 33 1.363048398e-19)
4(2905.978044 0 61 7.681632135e-20)
4(4160.010441 0 52 1.247717481e-20)
0()
4(7211.327151 0 56 1.219663797e-19)
0()
0()
0()
0()
0()
0()
0()
0()
0()
0()
4(7569.319882 0 26 3.754570065e-19)
0()
0()
0()
0()
0()
4(8466.984138 0 48 3.557427876e-19)
0()
4(9278.795125 0 69 1.102463916e-19)
0()
4(5738.879482 0 64 3.452583381e-19)
0()
0()
4(4075.537566 0 42 7.839264052e-20)
4(6851.917487 0 46 3.740385889e-20)
0()
0()
0()
0()
0()
4(3459.513462 0 81 1.40398489e-19)
4(9147.170488 0 18 1.466276946e-19)
4(8902.001178 0 48 1.886347774e-19)
0()
0()
4(8113.876199 0 57 1.053378374e-19)
4(6098.19574 0 95 1.729259269e-19)
4(6900.043503 0 86 1.723053502e-19)
0()
0()
4(8196.855438 0 77 6.835412679e-20)
0()
0()
4(9081.807653 0 78 4.721135503e-19)
4(9385.630999 0 59 1.297528331e-19)
0()
4(7086.965038 0 36 2.238253057e-19)
0()
4(6514.399549 0 55 2.646091937e-19)
4(3890.823515 0 42 2.334533944e-19)
4(5364.982447 0 74 2.565634136e-19)
0()
0()
0()
0()
4(8437.904698 0 58 1.475445124e-20)
4(3787.737742 0 72 1.858924648e-19)
4(4631.12702 0 3 1.549676333e-19)
0()
4(7439.144405 0 26 3.372357082e-19)
0()
0()
4(4039.362994 0 2 1.411764328e-19)
0()
4(3711.023692 0 22 1.198579127e-19)
4(8718.611983 0 68 9.526621831e-20)
4(4786.737459 0 3 9.490190211e-20)
0()
4(7059.724363 0 76 1.485798221e-19)
0()
0()
0()
4(8543.40946 0 48 6.398065339e-19)
0()
4(8728.611921 0 18 4.949496497e-20)
4(5455.282876 0 84 2.978187976e-19)
0()
4(8838.265028 0 88 7.128367843e-20)
0()
4(8053.459036 0 7 2.940641145e-20)
4(8603.570163 0 38 4.682586646e-19)
4(2465.58046 0 10 1.723024945e-20)
0()
4(7817.457172 0 97 1.173973574e-19)
4(4725.307547 0 63 3.669895162e-20)
4(4239.290791 0 92 3.514335817e-20)
4(4140.403058 0 72 8.394353527e-20)
4(4392.508895 0 82 2.148750661e-19)
4(6997.064612 0 26 1.847676392e-19)
0()
4(9214.903337 0 59 3.10000907e-19)
4(4198.483044 0 52 1.44026981e-19)
0()
0()
0()
0()
4(9947.309644 0 99 3.019574383e-19)
0()
4(7689.360597 0 7 2.674313469e-19)
4(3565.182647 0 81 9.01939058e-20)
0()
4(2643.614647 0 90 4.422951542e-20)
0()
4(4478.71809 0 33 1.311512956e-19)
0()
4(6455.133787 0 75 8.727465764e-20)
0()
0()
4(8764.667704 0 78 3.480782221e-19)
0()
4(6802.623035 0 6 1.742226972e-19)
4(6167.376677 0 75 3.702542084e-19)
4(6036.869047 0 35 3.935705309e-20)
0()
0()
0()
0()
0()
4(7221.329099 0 6 4.769704043e-20)
4(4556.344162 0 93 2.906640247e-19)
0()
0()
4(6752.01479 0 15 1.487723676e-19)
4(3679.966343 0 42 4.566659231e-20)
4(4927.38163 0 83 1.766409776e-19)
4(5041.045618 0 93 9.377886678e-20)
0()
4(5560.654814 0 74 1.218293509e-19)
0()
4(9906.137426 0 99 8.080594835e-20)
0()
0()
4(5738.766006 0 4 3.645926541e-19)
0()
0()
4(4838.190532 0 33 3.412581787e-19)
0()
0()
4(7838.37483 0 97 8.787658361e-20)
0()
0()
4(2344.476549 0 20 3.513904062e-20)
4(4734.659138 0 63 7.727573477e-20)
4(9544.63318 0 9 6.774623863e-20)
4(7570.668735 0 16 9.200309108e-20)
4(4815.02967 0 13 4.165608584e-20)
0()
0()
0()
0()
0()
4(5559.70926 0 54 5.365261139e-19)
0()
4(7262.473213 0 36 5.684890383e-20)
0()
4(5005.802836 0 43 1.795087137e-19)
4(3054.281755 0 51 5.486687632e-20)
4(9405.797408 0 89 1.779711011e-19)
0()
4(9118.166222 0 48 2.572727996e-19)
4(5987.605579 0 24 1.2178274e-19)
0()
4(3801.968042 0 92 1.260960146e-19)
4(7068.220591 0 46 2.653175013e-20)
0()
0()
0()
4(3331.268286 0 51 1.537112406e-19)
0()
0()
0()
4(6044.345947 0 25 7.805694536e-20)
0()
4(5124.012879 0 23 1.685309694e-19)
0()
4(2520.056623 0 90 1.206899125e-19)
0()
4(6234.448117 0 55 1.154812881e-19)
0()
4(8194.611098 0 7 7.002591836e-20)
4(4066.414972 0 52 3.258743238e-19)
4(7903.939159 0 77 2.961420413e-19)
4(3441.494247 0 41 8.792634139e-20)
4(3977.552524 0 52 2.871308875e-19)
4(6848.4563 0 86 8.313879069e-20)
4(9669.952324 0 39 1.347894282e-19)
0()
4(2723.323267 0 60 5.384283203e-20)
4(8531.808142 0 68 5.173914447e-19)
0()
0()
0()
4(3989.784241 0 52 2.107069452e-19)
0()
4(6487.742762 0 5 1.346898824e-19)
0()
4(8581.278628 0 38 4.548152049e-20)
4(3426.878933 0 1 3.384033378e-20)
0()
0()
0()
4(7943.231838 0 97 3.361761266e-19)
4(8240.804572 0 27 9.794160904e-20)
4(6273.431436 0 45 2.397204051e-19)
4(3374.360395 0 21 7.243864318e-20)
4(2933.607107 0 91 2.332206962e-19)
4(6198.198153 0 45 4.078274968e-19)
0()
4(3930.812489 0 92 1.088048891e-19)
0()
0()
0()
0()
0()
4(6185.978676 0 85 1.546522415e-19)
0()
4(7367.830881 0 36 3.133730946e-19)
0()
4(3803.628085 0 92 1.618426322e-20)
0()
4(5383.328917 0 64 6.152278439e-20)
4(8613.50998 0 68 2.068131536e-19)
0()
0()
0()
0()
0()
4(3085.489314 0 61 7.845653786e-20)
4(3054.988574 0 51 6.986397888e-20)
0()
4(2488.264574 0 70 4.833087098e-20)
0()
0()
4(6629.87472 0 15 4.389598974e-20)
4(8166.979893 0 57 3.90784076e-20)
0()
4(5228.936757 0 64 3.452545664e-19)
4(4572.001564 0 3 7.297115411e-20)
4(4192.514344 0 72 3.088539969e-20)
4(4435.705157 0 23 8.888835551e-20)
0()
0()
4(3830.361229 0 92 2.065787703e-19)
4(2943.323754 0 41 8.105627362e-20)
0()
4(9384.923148 0 9 2.079402067e-19)
0()
4(4926.815155 0 83 1.763786485e-19)
4(3134.437223 0 41 1.787188185e-19)
0()
4(3792.812542 0 72 6.372928395e-21)
0()
4(9890.106778 0 49 8.304068641e-20)
0()
0()
4(2515.920627 0 90 7.207256372e-20)
4(9962.41527 0 49 2.392632152e-19)
4(6937.324894 0 86 1.085717447e-19)
0()
0()
4(3763.623832 0 72 5.651008698e-20)
0()
4(4251.847735 0 22 7.829056116e-19)
0()
4(2067.546654 0 90 2.893316978e-19)
0()
0()
4(8425.241098 0 68 6.17016607e-20)
0()
0()
4(4225.999073 0 12 6.877441798e-20)
0()
0()
0()
0()
0()
0()
0()
4(3295.757491 0 71 1.314737852e-19)
4(5156.489184 0 53 1.648727844e-19)
0()
4(2123.678172 0 40 5.47572287e-20)
4(8766.94871 0 28 2.658497557e-19)
0()
4(5416.485901 0 4 4.803674847e-20)
4(7945.271362 0 57 8.94127538e-19)
0()
0()
4(5172.489406 0 13 9.447828785e-20)
0()
0()
0()
0()
0()
4(3955.011453 0 62 4.061114493e-20)
0()
4(2772.876783 0 40 6.221921209e-20)
0()
4(2348.338726 0 30 3.382854861e-19)
0()
0()
0()
0()
0()
4(7392.749554 0 36 3.473101449e-19)
0()
0()
0()
0()
0()
0()
4(6295.901703 0 15 1.1157429e-19)
4(2269.935393 0 60 5.711982653e-20)
0()
0()
4(7340.283003 0 16 1.782076247e-19)
0()
4(5965.919487 0 84 1.995006664e-19)
0()
0()
0()
4(8006.804062 0 37 4.366374469e-19)
4(8206.102044 0 57 3.322371242e-19)
4(2979.605504 0 71 1.473809528e-20)
4(9518.079802 0 89 5.053198849e-20)
0()
4(8666.146608 0 28 1.115484156e-19)
0()
4(3493.251723 0 21 3.604988925e-20)
4(8559.410994 0 18 5.31745813e-20)
0()
4(7386.364455 0 46 8.078126219e-20)
0()
4(6236.54449 0 65 1.432757525e-19)
4(6317.922976 0 25 1.336323879e-19)
0()
0()
4(8419.011084 0 48 1.894061018e-19)
4(3593.107387 0 1 3.346023577e-19)
0()
0()
0()
0()
4(9018.844571 0 18 1.522983831e-19)
4(9267.898399 0 59 3.061542566e-19)
0()
0()
0()
0()
0()
0()
4(3270.457751 0 41 6.365676656e-20)
4(9148.992393 0 48 6.535854876e-19)
0()
0()
0()
4(4555.895206 0 23 4.680476295e-20)
0()
0()
4(7551.942008 0 26 1.300053973e-19)
4(4809.599751 0 93 3.577845751e-19)
0()
4(4385.453081 0 12 4.837476024e-19)
4(4028.528063 0 22 7.063707055e-20)
0()
4(8791.060886 0 8 9.637301421e-20)
0()
0()
4(2051.510006 0 20 1.513462062e-20)
0()
0()
0()
4(6987.318869 0 86 4.412358167e-20)
4(9389.243345 0 39 3.321166105e-19)
4(6021.718995 0 15 3.162396618e-20)
4(4932.074531 0 53 9.168386825e-20)
0()
0()
0()
0()
0()
4(6419.609337 0 5 2.400901183e-19)
0()
4(4409.8265 0 43 5.183446624e-20)
4(8062.229698 0 7 6.956449091e-20)
4(2847.107767 0 91 3.239734728e-20)
4(7738.457235 0 7 2.297386177e-19)
4(4887.300383 0 93 2.016332097e-19)
4(2774.488964 0 50 1.242342882e-19)
0()
0()
4(5397.07537 0 4 1.333712296e-19)
4(4813.747496 0 93 1.459080701e-19)
4(4079.50975 0 82 8.237547075e-20)
4(3601.874495 0 62 5.815190406e-20)
4(3811.96977 0 72 4.890278315e-20)
4(4353.898096 0 92 1.007223156e-19)
0()
4(9530.028388 0 59 1.156439141e-19)
0()
4(3295.435512 0 11 9.567208583e-20)
0()
4(4656.473413 0 13 1.090037358e-20)
4(3254.710183 0 41 9.974867927e-20)
0()
0()
0()
0()
4(3491.766109 0 1 6.714245697e-20)
4(8565.663236 0 88 3.434639242e-20)
4(5403.951114 0 64 1.032989119e-19)
0()
0()
4(2062.712426 0 50 9.843444215e-20)
4(4759.841113 0 23 6.124506107e-20)
0()
0()
4(6095.469826 0 25 2.704643671e-19)
4(7045.553181 0 66 5.976717847e-20)
0()
4(4541.445722 0 3 2.821866187e-20)
0()
4(4835.412241 0 73 4.965753046e-20)
4(8504.23203 0 18 1.47331867e-19)
4(4286.088528 0 22 7.898139561e-20)
4(6599.692061 0 25 2.069271032e-19)
0()
0()
4(5267.829954 0 4 1.472783679e-19)
4(5623.863987 0 64 7.103445326e-20)
4(4861.632999 0 63 5.069303508e-20)
0()
0()
4(2867.886451 0 91 1.234820716e-19)
0()
0()
0()
4(3461.181559 0 11 2.437677393e-20)
0()
4(7084.221027 0 76 1.198039387e-19)
4(3825.522589 0 22 2.943182004e-20)
0()
0()
4(8968.73051 0 68 2.041249812e-19)
0()
0()
4(8414.620604 0 98 2.811210086e-19)
0()
0()
4(4987.901153 0 73 5.186776683e-20)
0()
0()
4(4775.945633 0 23 2.98530663e-19)
4(5233.070336 0 44 3.829923434e-20)
0()
0()
4(7964.070506 0 47 5.904243547e-20)
4(4299.188496 0 2 9.481929724e-20)
4(6646.246895 0 75 9.905086981e-20)
4(2415.545967 0 0 1.214246478e-19)
0()
4(2887.585481 0 71 4.59923218e-20)
0()
0()
0()
0()
0()
4(6275.912264 0 25 1.260994301e-19)
4(9582.522116 0 59 4.054227278e-19)
4(3992.858189 0 92 3.35858814e-20)
4(5989.486756 0 84 5.290937514e-20)
0()
0()
0()
0()
4(6068.280423 0 5 7.57836577e-20)
4(4131.667284 0 92 1.515092428e-19)
0()
4(8815.821539 0 8 3.693605583e-19)
4(3188.334687 0 31 6.90502686e-20)
4(5582.024683 0 94 3.331312209e-20)
0()
0()
4(2471.92881 0 70 1.164993928e-19)
0()
0()
0()
0()
4(8874.21784 0 88 7.297936928e-19)
0()
0()
0()
0()
0()
0()
4(2471.7573 0 90 5.783431949e-20)
4(7635.854688 0 57 4.084170408e-19)
0()
4(9456.226295 0 79 3.184834964e-19)
0()
4(4967.696827 0 33 1.259066543e-19)
4(2358.801879 0 40 2.636554086e-19)
0()
4(8431.900707 0 98 3.228817017e-19)
4(7462.177675 0 16 3.264992772e-19)
4(7055.52958 0 36 2.886777708e-20)
0()
0()
4(8175.719526 0 27 1.98188183e-19)
4(6291.044406 0 75 4.294580376e-20)
0()
4(4508.198369 0 43 4.940289262e-20)
0()
4(2545.833788 0 0 6.292620715e-20)
0()
0()
0()
0()
0()
4(4921.533757 0 23 6.698803807e-20)
4(3152.680714 0 71 2.033642231e-20)
0()
4(4404.005659 0 53 6.947896593e-20)
4(7919.827626 0 77 3.590915255e-19)
4(7073.025137 0 86 1.600222676e-19)
4(9885.720353 0 79 1.126429192e-19)
4(7146.73207 0 16 6.630345793e-20)
4(9585.280958 0 79 1.144256382e-19)
4(6735.212299 0 65 1.311073941e-19)
0()
4(6258.057244 0 95 8.770568857e-21)
0()
4(4471.84361 0 43 5.074532331e-20)
0()
4(6930.789375 0 6 1.139457523e-19)
0()
0()
0()
0()
0()
4(6218.982223 0 25 2.398562201e-19)
4(6484.099163 0 75 2.342705947e-19)
4(5131.903675 0 93 7.355134523e-20)
4(7884.923855 0 37 6.216978024e-19)
0()
4(5019.428556 0 93 1.280310683e-19)
0()
4(2488.113154 0 0 5.385877847e-20)
0()
4(6617.442077 0 35 3.899507897e-19)
0()
4(4916.017264 0 13 2.102433831e-20)
0()
4(6925.182244 0 36 4.700617601e-19)
0()
4(8034.384683 0 17 2.672047876e-20)
0()
0()
4(9577.565667 0 19 3.152999749e-20)
4(6638.437082 0 55 3.006276278e-19)
4(8024.559214 0 67 8.648227343e-20)
0()
4(8965.085271 0 78 3.275809964e-19)
4(9736.705262 0 49 2.508598337e-19)
0()
4(2941.322694 0 21 9.910490275e-20)
0()
0()
0()
0()
0()
4(7445.757275 0 36 2.614335671e-19)
4(2332.37865 0 80 1.151247933e-19)
4(8981.480902 0 8 1.765019786e-19)
0()
4(9640.084763 0 49 2.016261355e-19)
4(5525.451091 0 14 2.184550926e-19)
4(5059.839147 0 83 1.548785672e-19)
0()
0()
4(7469.729574 0 36 5.87603884e-20)
4(9297.426798 0 59 1.455005152e-20)
0()
0()
0()
0()
0()
4(4742.651452 0 23 1.19295094e-19)
0()
0()
0()
4(4223.651516 0 82 9.829181939e-20)
4(8711.987542 0 58 2.056440451e-19)
0()
0()
0()
4(6402.039097 0 75 1.837352493e-19)
4(6884.444 0 76 1.413599055e-19)
4(5697.328133 0 24 4.633619155e-20)
0()
0()
0()
4(6312.492221 0 45 1.555730648e-19)
0()
4(5840.895424 0 34 1.806579035e-19)
4(3544.047181 0 21 2.18873904e-19)
0()
4(3879.937593 0 2 4.192234687e-20)
4(2552.553448 0 20 1.258837185e-19)
4(6135.535357 0 5 1.780308676e-19)
4(5684.406717 0 14 2.339128662e-19)
4(9395.376539 0 99 5.5706995e-20)
4(5417.330006 0 54 9.978082374e-20)
4(8800.329661 0 8 2.411835467e-19)
4(2503.949427 0 70 8.387888879e-20)
0()
4(2089.754699 0 50 2.991077295e-20)
0()
0()
4(8373.412168 0 77 1.906012635e-19)
4(2277.753284 0 80 4.370327883e-20)
0()
4(2555.089862 0 40 1.24415253e-19)
0()
0()
4(6833.727954 0 86 9.047715609e-20)
0()
4(3516.999872 0 51 5.964040129e-20)
0()
0()
0()
0()
0()
0()
0()
0()
4(3471.930022 0 21 1.057709335e-19)
0()
4(6426.840121 0 65 1.915241477e-19)
4(5795.178369 0 84 3.121793613e-19)
0()
0()
4(2210.766434 0 20 1.54585238e-20)
4(8366.526595 0 97 4.26722025e-19)
0()
0()
0()
4(5815.149756 0 64 3.428979454e-19)
4(9747.374336 0 69 2.513804376e-19)
0()
0()
4(8090.537276 0 57 1.643910535e-19)
0()
4(7183.508371 0 76 3.509331214e-20)
0()
0()
0()
0()
0()
4(8178.97028 0 7 4.935183161e-20)
4(5147.683702 0 43 3.71156156e-19)
0()
0()
4(3193.838961 0 11 3.114525068e-20)
0()
4(6697.059605 0 55 7.724251278e-20)
0()
0()
0()
0()
0()
4(3910.826085 0 82 8.838701494e-20)
4(9154.297158 0 38 4.879707331e-19)
4(7323.364092 0 56 1.028406109e-19)
4(3643.87037 0 92 3.285820087e-20)
4(9052.427761 0 28 3.852292277e-19)
0()
0()
0()
0()
4(8338.770004 0 87 4.085378801e-20)
0()
4(7972.242778 0 37 2.828852583e-19)
4(5296.732439 0 54 3.128047999e-19)
0()
0()
4(6673.512525 0 45 5.260388761e-20)
0()
4(5415.272714 0 84 6.266470984e-20)
0()
4(3479.59417 0 11 8.260076853e-20)
0()
0()
0()
4(9390.426086 0 69 3.473866034e-19)
0()
4(4420.043823 0 43 2.058978454e-19)
0()
0()
0()
4(2283.759413 0 40 1.364453838e-19)
0()
4(6895.186887 0 86 1.786409301e-19)
0()
0()
0()
0()
4(5456.086815 0 24 3.482216035e-20)
4(2256.899226 0 10 1.723987538e-20)
0()
0()
4(3311.525756 0 1 1.140105727e-19)
0()
4(4245.732374 0 22 4.560476914e-20)
0()
0()
4(2331.527503 0 20 1.03722263e-19)
0()
4(6206.324939 0 15 2.404264077e-19)
4(5331.489341 0 4 1.168690718e-19)
4(8792.884816 0 68 1.713962707e-19)
4(8331.211698 0 87 7.849600223e-20)
0()
4(7141.784934 0 56 5.805875267e-19)
4(6698.531425 0 5 2.668263105e-19)
4(3081.577893 0 11 1.544378049e-19)
4(6693.22037 0 65 7.30129858e-20)
0()
0()
0()
4(8858.09224 0 48 7.019845444e-20)
4(7987.174781 0 7 3.057936319e-20)
4(7083.394057 0 96 3.2324275e-19)
0()
0()
0()
0()
4(6596.248049 0 35 1.680302795e-19)
4(2993.90745 0 51 4.200267393e-20)
0()
0()
4(4311.161104 0 42 4.009970126e-20)
4(8753.588787 0 88 8.667569905e-20)
0()
0()
0()
4(6445.062428 0 5 2.395309741e-19)
0()
0()
4(2289.488469 0 20 1.806483941e-19)
4(5534.789693 0 54 8.460023512e-20)
0()
0()
0()
4(2146.260447 0 80 6.29926618e-20)
4(7439.262275 0 46 1.721032363e-19)
4(4041.678486 0 92 5.292472961e-20)
0()
0()
4(4253.727565 0 32 4.525363908e-20)
4(8926.422571 0 58 3.07432478e-19)
0()
4(7675.436562 0 87 8.05915508e-20)
4(6605.570697 0 25 2.047464766e-19)
4(7259.778323 0 66 2.06861357e-19)
0()
0()
0()
0()
0()
4(6283.921124 0 15 1.672196186e-19)
4(2097.253949 0 0 3.963729132e-20)
4(6735.476961 0 5 1.184930196e-19)
0()
4(8521.921654 0 48 1.654244142e-19)
0()
0()
0()
0()
0()
0()
4(4293.640831 0 12 8.686196514e-20)
0()
4(5051.083365 0 73 1.019955381e-19)
4(4182.083159 0 32 2.310860626e-19)
4(7465.382387 0 96 1.237470196e-19)
0()
4(8965.941236 0 38 2.315109089e-19)
0()
4(7730.661524 0 7 5.022225507e-19)
0()
0()
0()
0()
4(9709.739852 0 99 2.881661427e-19)
0()
4(5625.950561 0 14 3.361353013e-19)
4(2504.380981 0 80 4.170234852e-20)
4(9497.530704 0 89 9.989738842e-21)
0()
4(2193.122691 0 70 3.931833173e-20)
0()
0()
4(3590.032674 0 11 2.21876556e-20)
0()
0()
4(6933.72466 0 26 2.565048548e-19)
4(4241.259648 0 42 1.52873388e-19)
4(8842.00911 0 58 4.064621807e-19)
0()
4(4533.606308 0 33 1.521237473e-19)
0()
4(2499.30287 0 20 1.259314805e-19)
4(6731.465766 0 15 7.510337923e-20)
4(3459.693254 0 81 1.956943489e-19)
4(2829.261108 0 51 1.221297135e-19)