/*--------------------------------*- C++ -*----------------------------------*\
| =========                 |                                                 |
| \\      /  F ield         | OpenFOAM: The Open Source CFD Toolbox           |
|  \\    /   O peration     | Version:  v1706                                 |
|   \\  /    A nd           | Web:      www.OpenFOAM.com                      |
|    \\/     M anipulation  |                                                 |
\*---------------------------------------------------------------------------*/
FoamFile
{
    version     2.0;
    format      ascii;
    class       volScalarField;
    location    "0.00272";
    object      dQ;
}
// * * * * * * * * * * * * * * * * * * * * * * * * * * * * * * * * * * * * * //

dimensions      [1 2 -3 0 0 0 0];


internalField   nonuniform List<scalar> 
11682
(
-4.659331281e-31
-1.398096122e-30
-2.330704272e-30
-3.264438883e-30
-4.201102863e-30
-5.13521362e-30
-6.070521276e-30
-7.008255598e-30
-7.953503618e-30
-8.889764819e-30
-9.826414352e-30
-1.076671192e-29
-1.172347696e-29
-1.266304649e-29
-1.35998406e-29
-1.454071019e-29
-1.550964491e-29
-1.645241681e-29
-1.739073563e-29
-1.833326463e-29
-1.931317495e-29
-2.02636289e-29
-2.120380344e-29
-2.214596792e-29
-2.313907465e-29
-2.409295905e-29
-2.501861707e-29
-2.595106657e-29
-2.695381458e-29
-2.792005725e-29
-2.884271389e-29
-2.976666014e-29
-3.079143546e-29
-3.178425554e-29
-3.269254534e-29
-3.359908245e-29
-3.450386716e-29
-3.545701067e-29
-3.659344742e-29
-3.747795609e-29
-3.835990637e-29
-3.923929521e-29
-4.011612539e-29
-4.121440983e-29
-4.214893617e-29
-4.3026927e-29
-4.407520622e-29
-4.49017161e-29
-4.581698349e-29
-4.679292534e-29
-4.761272241e-29
-4.860959804e-29
-4.947919725e-29
-5.025104027e-29
-5.1321333e-29
-5.206948761e-29
-5.291932285e-29
-5.388461389e-29
-5.45998935e-29
-5.553671092e-29
-5.636867677e-29
-5.705678272e-29
-5.811287441e-29
-5.876751202e-29
-5.949595456e-29
-6.04280312e-29
-6.100742084e-29
-6.18581512e-29
-6.26121833e-29
-6.313948096e-29
-6.412214446e-29
-6.466338882e-29
-6.523004372e-29
-6.615365035e-29
-6.6569416e-29
-6.722751772e-29
-6.786900362e-29
-6.643778301e-29
-6.090173968e-29
-5.559214281e-29
-5.110140574e-29
-4.646800113e-29
-4.226164501e-29
-3.843910412e-29
-3.495848822e-29
-3.179023116e-29
-2.890705068e-29
-2.657392823e-29
-2.421897322e-29
-2.200807559e-29
-1.999931697e-29
-1.817464971e-29
-1.651755858e-29
-1.501199545e-29
-1.364385186e-29
-1.240057659e-29
-1.127075616e-29
-1.024402135e-29
-9.310951839e-30
-4.637200871e-31
-1.391456293e-30
-2.319636595e-30
-3.248946536e-30
-4.181151067e-30
-5.110825655e-30
-6.041714924e-30
-6.975019074e-30
-7.915724703e-30
-8.847533302e-30
-9.779778677e-30
-1.071568412e-29
-1.166778508e-29
-1.260287042e-29
-1.353524238e-29
-1.447180402e-29
-1.543592661e-29
-1.637415743e-29
-1.730822691e-29
-1.824630514e-29
-1.922123542e-29
-2.016733406e-29
-2.110316685e-29
-2.20408646e-29
-2.302880542e-29
-2.397791519e-29
-2.489931105e-29
-2.58277507e-29
-2.682515077e-29
-2.778669011e-29
-2.870513395e-29
-2.962464942e-29
-3.06444489e-29
-3.163203111e-29
-3.253592396e-29
-3.3438068e-29
-3.433846401e-29
-3.528716401e-29
-3.641730764e-29
-3.72974786e-29
-3.817509625e-29
-3.905015911e-29
-3.992266894e-29
-4.101556129e-29
-4.19453803e-29
-4.281889084e-29
-4.386038117e-29
-4.468269599e-29
-4.55932314e-29
-4.656518419e-29
-4.738082018e-29
-4.837116349e-29
-4.923559524e-29
-5.00033845e-29
-5.106734445e-29
-5.181253328e-29
-5.265706609e-29
-5.361695031e-29
-5.432875248e-29
-5.525875122e-29
-5.608811602e-29
-5.677255477e-29
-5.781999674e-29
-5.847067025e-29
-5.919407996e-29
-6.011941407e-29
-6.069824459e-29
-6.154201465e-29
-6.228993385e-29
-6.281670044e-29
-6.379070368e-29
-6.43279022e-29
-6.489182533e-29
-6.580889281e-29
-6.622164459e-29
-6.687349334e-29
-6.750855016e-29
-6.610093298e-29
-6.063603304e-29
-5.53937128e-29
-5.093720283e-29
-4.631954564e-29
-4.213119793e-29
-3.832100658e-29
-3.485152854e-29
-3.169332369e-29
-2.881922687e-29
-2.649172051e-29
-2.414413671e-29
-2.194022717e-29
-1.99377901e-29
-1.811909644e-29
-1.646758021e-29
-1.496664343e-29
-1.360269164e-29
-1.23632147e-29
-1.123683781e-29
-1.021322541e-29
-9.28298684e-30
-4.615122855e-31
-1.384832286e-30
-2.308595367e-30
-3.233490558e-30
-4.161245571e-30
-5.08649479e-30
-6.012976812e-30
-6.941860996e-30
-7.878034583e-30
-8.805400828e-30
-9.733251119e-30
-1.066477548e-29
-1.161222598e-29
-1.254283623e-29
-1.347079376e-29
-1.4403056e-29
-1.536237824e-29
-1.629607948e-29
-1.722590892e-29
-1.815954628e-29
-1.912950859e-29
-2.007126118e-29
-2.100276098e-29
-2.193600205e-29
-2.291878937e-29
-2.386313576e-29
-2.478027871e-29
-2.570471525e-29
-2.669678097e-29
-2.765362717e-29
-2.85678677e-29
-2.948296157e-29
-3.04977968e-29
-3.148015395e-29
-3.237965928e-29
-3.327742004e-29
-3.417343622e-29
-3.511770066e-29
-3.62415664e-29
-3.711740981e-29
-3.799070497e-29
-3.886145135e-29
-3.972965136e-29
-4.081716297e-29
-4.174228321e-29
-4.26113257e-29
-4.36460474e-29
-4.446417481e-29
-4.53699883e-29
-4.633796047e-29
-4.71494455e-29
-4.813327367e-29
-4.899255201e-29
-4.975629385e-29
-5.081393875e-29
-5.155616478e-29
-5.239540884e-29
-5.334989924e-29
-5.405822896e-29
-5.498143252e-29
-5.580819753e-29
-5.648897351e-29
-5.752779413e-29
-5.817451832e-29
-5.889290543e-29
-5.981151713e-29
-6.038978037e-29
-6.122661272e-29
-6.196844028e-29
-6.24946675e-29
-6.346004026e-29
-6.39931999e-29
-6.455439267e-29
-6.546494534e-29
-6.587469631e-29
-6.652031262e-29
-6.714896177e-29
-6.576484995e-29
-6.037082957e-29
-5.519554986e-29
-5.077316892e-29
-4.617124232e-29
-4.200087372e-29
-3.820301626e-29
-3.474466614e-29
-3.159650726e-29
-2.873148264e-29
-2.640959161e-29
-2.406937388e-29
-2.187244674e-29
-1.987632339e-29
-1.806359464e-29
-1.641764852e-29
-1.492133451e-29
-1.356157048e-29
-1.232588821e-29
-1.120295091e-29
-1.018245798e-29
-9.255048418e-30
-4.593098211e-31
-1.378224076e-30
-2.297580388e-30
-3.218071756e-30
-4.14138819e-30
-5.062222549e-30
-5.984306795e-30
-6.908781024e-30
-7.840433808e-30
-8.763368646e-30
-9.686835193e-30
-1.061398818e-29
-1.155679794e-29
-1.248294441e-29
-1.340649919e-29
-1.433447208e-29
-1.528900581e-29
-1.621818793e-29
-1.714378697e-29
-1.807299403e-29
-1.903800069e-29
-1.997541758e-29
-2.090259414e-29
-2.183138965e-29
-2.280903718e-29
-2.37486318e-29
-2.466153135e-29
-2.558197395e-29
-2.656871908e-29
-2.752088358e-29
-2.843093021e-29
-2.934161339e-29
-3.035149658e-29
-3.132864188e-29
-3.222377048e-29
-3.311715855e-29
-3.40088061e-29
-3.494864642e-29
-3.606625165e-29
-3.693777644e-29
-3.780676068e-29
-3.867320137e-29
-3.953710036e-29
-4.061924609e-29
-4.153967996e-29
-4.240426303e-29
-4.343223733e-29
-4.424618974e-29
-4.51472922e-29
-4.611129055e-29
-4.691863544e-29
-4.789596917e-29
-4.875010728e-29
-4.95098135e-29
-5.056116032e-29
-5.130043057e-29
-5.21344001e-29
-5.308351181e-29
-5.378837871e-29
-5.470480916e-29
-5.55289791e-29
-5.620610167e-29
-5.723632599e-29
-5.787911179e-29
-5.859249406e-29
-5.950440297e-29
-6.008209722e-29
-6.091201279e-29
-6.164776884e-29
-6.217345631e-29
-6.313022516e-29
-6.365935941e-29
-6.421782866e-29
-6.512188336e-29
-6.552864098e-29
-6.616804445e-29
-6.67903061e-29
-6.54296107e-29
-6.010620901e-29
-5.499771622e-29
-5.060935941e-29
-4.602314005e-29
-4.187071077e-29
-3.808517455e-29
-3.463793739e-29
-3.149980825e-29
-2.864384404e-29
-2.632756863e-29
-2.399470579e-29
-2.180474978e-29
-1.981493291e-29
-1.80081624e-29
-1.636777505e-29
-1.487607803e-29
-1.352049654e-29
-1.22886043e-29
-1.116910323e-29
-1.01517251e-29
-9.2271419e-30
-4.571125691e-31
-1.371631656e-30
-2.286591707e-30
-3.202689575e-30
-4.121578032e-30
-5.038007868e-30
-5.955705387e-30
-6.875780575e-30
-7.802923157e-30
-8.721437103e-30
-9.640530014e-30
-1.056332197e-29
-1.150150278e-29
-1.242319615e-29
-1.334235842e-29
-1.42660518e-29
-1.521580903e-29
-1.614048305e-29
-1.706186133e-29
-1.798664857e-29
-1.894671222e-29
-1.987980348e-29
-2.080266704e-29
-2.172702668e-29
-2.269954763e-29
-2.363440309e-29
-2.454306919e-29
-2.545952678e-29
-2.644096495e-29
-2.738846005e-29
-2.829432207e-29
-2.920060468e-29
-3.020554773e-29
-3.117749562e-29
-3.206825809e-29
-3.295728409e-29
-3.38445738e-29
-3.47799989e-29
-3.589136118e-29
-3.675857901e-29
-3.762326122e-29
-3.848540721e-29
-3.934501728e-29
-4.042180952e-29
-4.133756897e-29
-4.219770581e-29
-4.32189515e-29
-4.402873885e-29
-4.492514367e-29
-4.58851769e-29
-4.668839057e-29
-4.765924937e-29
-4.850826257e-29
-4.926394329e-29
-5.030900964e-29
-5.104532887e-29
-5.187404161e-29
-5.281778925e-29
-5.351920109e-29
-5.442887728e-29
-5.525045464e-29
-5.592393672e-29
-5.694559594e-29
-5.758445132e-29
-5.829284255e-29
-5.919807143e-29
-5.977519072e-29
-6.059821472e-29
-6.132792e-29
-6.185306203e-29
-6.280125617e-29
-6.332637875e-29
-6.388213052e-29
-6.477970153e-29
-6.518346955e-29
-6.581667534e-29
-6.64325605e-29
-6.50951691e-29
-5.984209649e-29
-5.480012044e-29
-5.044564486e-29
-4.587507255e-29
-4.174051308e-29
-3.796724368e-29
-3.453108163e-29
-3.140295721e-29
-2.85560308e-29
-2.624536078e-29
-2.391984083e-29
-2.173685065e-29
-1.975333677e-29
-1.795252458e-29
-1.631770025e-29
-1.483062474e-29
-1.347923336e-29
-1.225114025e-29
-1.113508572e-29
-1.012083248e-29
-9.199084949e-30
-4.549205442e-31
-1.365054896e-30
-2.275629164e-30
-3.187344043e-30
-4.101815088e-30
-5.013851043e-30
-5.927172198e-30
-6.842858781e-30
-7.765502313e-30
-8.679606004e-30
-9.594335559e-30
-1.051277683e-29
-1.144634015e-29
-1.236359108e-29
-1.327837133e-29
-1.419779504e-29
-1.514278773e-29
-1.606296467e-29
-1.698013194e-29
-1.790051e-29
-1.885564342e-29
-1.978441842e-29
-2.070297932e-29
-2.162291443e-29
-2.259032213e-29
-2.352044959e-29
-2.442489205e-29
-2.533737257e-29
-2.631351903e-29
-2.725635506e-29
-2.815804264e-29
-2.905993561e-29
-3.00599504e-29
-3.102671397e-29
-3.191312152e-29
-3.279779576e-29
-3.368073885e-29
-3.461175991e-29
-3.571689628e-29
-3.657981806e-29
-3.744020922e-29
-3.829807084e-29
-3.91534023e-29
-4.022485436e-29
-4.113595097e-29
-4.199165119e-29
-4.300619e-29
-4.381182291e-29
-4.470354197e-29
-4.565961616e-29
-4.645871256e-29
-4.742311575e-29
-4.826701811e-29
-4.901868401e-29
-5.005748951e-29
-5.079086285e-29
-5.161433318e-29
-5.255273269e-29
-5.325069742e-29
-5.415364181e-29
-5.497262865e-29
-5.564247627e-29
-5.665559786e-29
-5.729053683e-29
-5.79939532e-29
-5.88925211e-29
-5.946906272e-29
-6.028521292e-29
-6.100888006e-29
-6.153346835e-29
-6.247310284e-29
-6.299419746e-29
-6.35471972e-29
-6.443823849e-29
-6.483889106e-29
-6.546566076e-29
-6.607474102e-29
-6.475989514e-29
-5.957604078e-29
-5.459941448e-29
-5.027748852e-29
-4.572123281e-29
-4.160336576e-29
-3.784128831e-29
-3.441541562e-29
-3.129686003e-29
-2.84587439e-29
-2.615364977e-29
-2.383540295e-29
-2.165951407e-29
-1.968249852e-29
-1.78880009e-29
-1.625907615e-29
-1.477703519e-29
-1.343026993e-29
-1.220644982e-29
-1.109435988e-29
-1.008368248e-29
-9.165183809e-30
-4.527316017e-31
-1.358488082e-30
-2.264683985e-30
-3.172024746e-30
-4.082087413e-30
-4.989739643e-30
-5.898695295e-30
-6.810004301e-30
-7.728161327e-30
-8.637866134e-30
-9.548243227e-30
-1.046234535e-29
-1.139130353e-29
-1.230412328e-29
-1.321453285e-29
-1.412969769e-29
-1.50699384e-29
-1.598562945e-29
-1.689859572e-29
-1.781457556e-29
-1.876479191e-29
-1.968926159e-29
-2.060352938e-29
-2.151905088e-29
-2.248135901e-29
-2.340677071e-29
-2.430699997e-29
-2.521551172e-29
-2.618638049e-29
-2.712456935e-29
-2.802209182e-29
-2.891960597e-29
-2.991470482e-29
-3.087629821e-29
-3.175836104e-29
-3.263869431e-29
-3.351730078e-29
-3.444392815e-29
-3.554285542e-29
-3.640149175e-29
-3.725760305e-29
-3.811118982e-29
-3.896225367e-29
-4.002837795e-29
-4.093482517e-29
-4.17861016e-29
-4.279395231e-29
-4.359544146e-29
-4.44824881e-29
-4.543461149e-29
-4.622959752e-29
-4.718756607e-29
-4.802637303e-29
-4.877403557e-29
-4.980659532e-29
-5.053702902e-29
-5.135527057e-29
-5.228833344e-29
-5.29828591e-29
-5.387909004e-29
-5.469548829e-29
-5.536170978e-29
-5.636631598e-29
-5.699733598e-29
-5.769577536e-29
-5.858767685e-29
-5.916358547e-29
-5.997280074e-29
-6.06902912e-29
-6.121403247e-29
-6.214459942e-29
-6.266078335e-29
-6.320954786e-29
-6.409144416e-29
-6.448444633e-29
-6.509553749e-29
-6.568220238e-29
-6.436652389e-29
-5.92225131e-29
-5.427802074e-29
-4.994858381e-29
-4.536329e-29
-4.122135082e-29
-3.743935489e-29
-3.400110191e-29
-3.087739704e-29
-2.804697644e-29
-2.574582018e-29
-2.343651534e-29
-2.127653151e-29
-1.93125637e-29
-1.753615844e-29
-1.592741073e-29
-1.446460035e-29
-1.313656101e-29
-1.193321766e-29
-1.083903723e-29
-9.846596096e-30
-8.946504208e-30
-4.504611074e-31
-1.351700072e-30
-2.253406988e-30
-3.15632201e-30
-4.061921636e-30
-4.965185708e-30
-5.869788439e-30
-6.776767188e-30
-7.690512304e-30
-8.595862756e-30
-9.501913581e-30
-1.041172568e-29
-1.133614139e-29
-1.224455938e-29
-1.315063928e-29
-1.406158946e-29
-1.499711118e-29
-1.590834414e-29
-1.681714292e-29
-1.772875787e-29
-1.867408401e-29
-1.959426483e-29
-2.050425793e-29
-2.14153876e-29
-2.237261779e-29
-2.32933306e-29
-2.418936112e-29
-2.509391835e-29
-2.605952682e-29
-2.699308157e-29
-2.788645107e-29
-2.877959981e-29
-2.976979666e-29
-3.072623439e-29
-3.160396269e-29
-3.24799672e-29
-3.335424798e-29
-3.427649335e-29
-3.536922946e-29
-3.622359083e-29
-3.707543303e-29
-3.792475601e-29
-3.877156288e-29
-3.983237352e-29
-4.073418077e-29
-4.158104451e-29
-4.258222787e-29
-4.337958211e-29
-4.426196569e-29
-4.521014505e-29
-4.600103015e-29
-4.695257854e-29
-4.778629651e-29
-4.852995694e-29
-4.95562778e-29
-5.028375837e-29
-5.109676156e-29
-5.202446368e-29
-5.271550733e-29
-5.360496996e-29
-5.441865489e-29
-5.508108441e-29
-5.607691388e-29
-5.67036169e-29
-5.73964894e-29
-5.82807164e-29
-5.885418567e-29
-5.965321616e-29
-6.035878572e-29
-6.08711943e-29
-6.177334836e-29
-6.225288094e-29
-6.274309577e-29
-6.352270986e-29
-6.373498351e-29
-6.401585919e-29
-6.403663467e-29
-6.189110377e-29
-5.579879106e-29
-4.978503923e-29
-4.409996464e-29
-3.8037907e-29
-3.254103746e-29
-2.774574051e-29
-2.360172476e-29
-2.011705157e-29
-1.735060177e-29
-1.510984212e-29
-1.290042106e-29
-1.094788341e-29
-9.377257236e-30
-8.041265981e-30
-6.951315078e-30
-6.046845901e-30
-5.163315605e-30
-4.456931252e-30
-3.856565422e-30
-3.370401457e-30
-2.966840547e-30
-4.447298379e-31
-1.335559343e-30
-2.228019521e-30
-3.123950543e-30
-4.022719553e-30
-4.920884536e-30
-5.821250404e-30
-6.725422879e-30
-7.637166091e-30
-8.539412481e-30
-9.441936901e-30
-1.03489167e-29
-1.12708233e-29
-1.217557622e-29
-1.30785792e-29
-1.398676428e-29
-1.49183785e-29
-1.582584888e-29
-1.673141625e-29
-1.763959245e-29
-1.858061432e-29
-1.949676182e-29
-2.040283083e-29
-2.130999709e-29
-2.226251085e-29
-2.317872574e-29
-2.407077542e-29
-2.497160142e-29
-2.593208003e-29
-2.686109121e-29
-2.775039729e-29
-2.863928483e-29
-2.962467113e-29
-3.057600771e-29
-3.144942483e-29
-3.232111394e-29
-3.319111215e-29
-3.410904268e-29
-3.519562911e-29
-3.604573346e-29
-3.689329407e-29
-3.773835258e-29
-3.858091376e-29
-3.963643073e-29
-4.053359965e-29
-4.137602812e-29
-4.237051803e-29
-4.316370451e-29
-4.404138312e-29
-4.498553523e-29
-4.577222658e-29
-4.67171976e-29
-4.754558897e-29
-4.828495313e-29
-4.930456276e-29
-5.002840908e-29
-5.083520668e-29
-5.175604211e-29
-5.244160693e-29
-5.332126534e-29
-5.412751338e-29
-5.477970126e-29
-5.575584636e-29
-5.636233675e-29
-5.702723266e-29
-5.786682072e-29
-5.837001163e-29
-5.903778715e-29
-5.952380478e-29
-5.964342876e-29
-5.98112541e-29
-5.906500944e-29
-5.762347881e-29
-5.497698885e-29
-4.896933688e-29
-3.78252851e-29
-1.842556041e-29
1.350645738e-29
5.45496947e-29
9.887418045e-29
1.506365308e-28
2.069253442e-28
2.579772375e-28
3.001237168e-28
3.189575163e-28
3.328975649e-28
3.285880636e-28
3.235542073e-28
3.253068312e-28
3.175935472e-28
3.067917679e-28
2.925462609e-28
2.754267358e-28
2.559310624e-28
2.42728774e-28
2.27897564e-28
2.135279296e-28
1.968842266e-28
1.821305464e-28
-3.013186602e-31
-9.53159e-31
-1.631350492e-30
-2.423350654e-30
-3.225476841e-30
-4.091062774e-30
-5.000680568e-30
-5.958654444e-30
-6.96111986e-30
-7.898310575e-30
-8.836982144e-30
-9.796427819e-30
-1.079274254e-29
-1.17259508e-29
-1.267171218e-29
-1.364125575e-29
-1.459855086e-29
-1.553366243e-29
-1.646935736e-29
-1.740986288e-29
-1.836848354e-29
-1.92910684e-29
-2.020500913e-29
-2.112603819e-29
-2.208743692e-29
-2.300773544e-29
-2.390356524e-29
-2.480858544e-29
-2.576927598e-29
-2.669668634e-29
-2.758516365e-29
-2.847358712e-29
-2.945748395e-29
-3.040526755e-29
-3.127462127e-29
-3.214238252e-29
-3.300942435e-29
-3.392524692e-29
-3.500662347e-29
-3.585258179e-29
-3.669503863e-29
-3.753554571e-29
-3.837395448e-29
-3.942450604e-29
-4.031655576e-29
-4.11532952e-29
-4.213938468e-29
-4.292674283e-29
-4.37975062e-29
-4.47343375e-29
-4.551289064e-29
-4.644471602e-29
-4.725742475e-29
-4.798065887e-29
-4.897450576e-29
-4.96688388e-29
-5.043063309e-29
-5.128835927e-29
-5.189189243e-29
-5.26461151e-29
-5.326441698e-29
-5.366165191e-29
-5.42107535e-29
-5.41945645e-29
-5.399668409e-29
-5.350179754e-29
-5.136278921e-29
-4.744289714e-29
-3.929176914e-29
-2.573090464e-29
8.376001455e-31
4.568475043e-29
1.15031278e-28
2.438575457e-28
4.612031059e-28
8.731702486e-28
1.552862671e-27
2.636007259e-27
3.912620258e-27
5.202033426e-27
6.887066471e-27
8.610153576e-27
1.018203871e-26
1.138907282e-26
1.197160243e-26
1.204269688e-26
1.171517458e-26
1.146011026e-26
1.129235769e-26
1.088254771e-26
1.04106017e-26
9.841998999e-27
9.212452692e-27
8.412122153e-27
8.011708185e-27
7.48378596e-27
6.997826897e-27
6.481833188e-27
5.946332715e-27
5.363595144e-30
1.402874667e-29
2.158580662e-29
2.467145389e-29
2.72939659e-29
2.768968804e-29
2.599454403e-29
2.311290398e-29
1.828811485e-29
1.595235942e-29
1.348005221e-29
1.030074903e-29
6.43431683e-30
3.955651961e-30
9.798147494e-31
-2.611500295e-30
-4.71288931e-30
-6.647912721e-30
-9.223752445e-30
-1.163427175e-29
-1.342194043e-29
-1.479130172e-29
-1.617798235e-29
-1.781300445e-29
-1.927706582e-29
-2.056265674e-29
-2.179805821e-29
-2.300751292e-29
-2.419594657e-29
-2.523126845e-29
-2.6250456e-29
-2.729922213e-29
-2.841454583e-29
-2.939736547e-29
-3.028515996e-29
-3.115291903e-29
-3.208763505e-29
-3.308472945e-29
-3.41990209e-29
-3.50273469e-29
-3.584000229e-29
-3.666716396e-29
-3.750454666e-29
-3.855827869e-29
-3.942218934e-29
-4.021295379e-29
-4.112527323e-29
-4.184359481e-29
-4.262437455e-29
-4.342318611e-29
-4.404275244e-29
-4.469092116e-29
-4.509593899e-29
-4.533939029e-29
-4.558148175e-29
-4.522999728e-29
-4.444617146e-29
-4.316392029e-29
-4.07007546e-29
-3.698485577e-29
-3.056098794e-29
-2.151442612e-29
-5.906710173e-30
1.684492066e-29
4.897801447e-29
1.037851291e-28
1.981552489e-28
3.771009717e-28
7.032383268e-28
1.215842552e-27
2.207171491e-27
3.862753666e-27
6.328255147e-27
1.090203045e-26
1.873901682e-26
3.278769277e-26
5.769183111e-26
9.474714915e-26
1.385776256e-25
1.810468769e-25
2.37394247e-25
2.934952169e-25
3.497851458e-25
3.818391788e-25
4.021309993e-25
4.028853883e-25
3.824617425e-25
3.770744493e-25
3.657241571e-25
3.49641643e-25
3.323747758e-25
3.128630577e-25
2.895075791e-25
2.730658178e-25
2.554334232e-25
2.377191019e-25
2.201357394e-25
2.02676637e-25
1.851886507e-25
2.324566782e-28
6.216705309e-28
9.374056062e-28
1.080758556e-27
1.227961691e-27
1.279114007e-27
1.249048793e-27
1.180417576e-27
1.007241012e-27
9.544834946e-28
9.019090468e-28
8.035488419e-28
6.941041108e-28
6.253766794e-28
5.376172723e-28
4.380614707e-28
3.844605226e-28
3.386902556e-28
2.75318082e-28
2.096218564e-28
1.790901731e-28
1.59746896e-28
1.395198234e-28
1.086921415e-28
8.799583998e-29
7.269120475e-29
5.707646634e-29
4.350147626e-29
3.336509192e-29
2.778219534e-29
2.136311827e-29
1.357066023e-29
7.474078367e-30
4.78032777e-30
2.842658615e-30
1.873629588e-30
-1.849217373e-30
-6.53323931e-30
-8.757990627e-30
-8.715102269e-30
-9.074964801e-30
-9.578035851e-30
-1.052139364e-29
-1.188100533e-29
-1.169280141e-29
-1.091226199e-29
-9.334389517e-30
-7.582759599e-30
-5.168727279e-30
-4.384855268e-31
4.636893313e-30
1.468114817e-29
2.983407364e-29
4.762241231e-29
7.687718175e-29
1.163820451e-28
1.770629251e-28
2.67212173e-28
3.800296396e-28
5.491999792e-28
8.281420657e-28
1.189352506e-27
1.819734495e-27
2.713784851e-27
3.851405663e-27
5.938921289e-27
9.464242304e-27
1.617956123e-26
2.834755997e-26
4.697873788e-26
8.287291602e-26
1.428658367e-25
2.288887422e-25
3.921576017e-25
6.592208834e-25
1.156590309e-24
2.030216313e-24
3.288724615e-24
4.82789775e-24
6.362008251e-24
8.134539382e-24
1.014960406e-23
1.182720871e-23
1.305150325e-23
1.338729899e-23
1.328140883e-23
1.269484595e-23
1.22139705e-23
1.173696543e-23
1.111737195e-23
1.054449939e-23
9.922001888e-24
9.10295566e-24
8.551759161e-24
7.991271797e-24
7.444514581e-24
6.908754574e-24
6.338273894e-24
5.758968557e-24
9.135854795e-27
2.502028883e-26
3.701073824e-26
4.265523347e-26
4.869704537e-26
5.131197573e-26
4.959599979e-26
4.747334816e-26
4.011526326e-26
3.800206425e-26
3.587931754e-26
3.212677653e-26
2.816817145e-26
2.537039374e-26
2.17063671e-26
1.785626581e-26
1.571690047e-26
1.395388804e-26
1.148314689e-26
9.193303832e-27
7.794845315e-27
7.074544473e-27
6.245881109e-27
5.043930833e-27
4.34368859e-27
3.79055285e-27
3.189944069e-27
2.660805427e-27
2.29546172e-27
2.114261283e-27
1.906435475e-27
1.61444694e-27
1.40596967e-27
1.35235679e-27
1.318067684e-27
1.291473278e-27
1.184394583e-27
1.026325198e-27
9.8558296e-28
1.031610899e-27
1.065874054e-27
1.051295746e-27
1.062442911e-27
1.058270897e-27
1.085557936e-27
1.140302794e-27
1.232201407e-27
1.319126776e-27
1.459227335e-27
1.668685888e-27
1.872131845e-27
2.312265813e-27
2.956403295e-27
3.575982792e-27
4.800207663e-27
6.417592131e-27
8.593837551e-27
1.219076794e-26
1.642720612e-26
2.289404275e-26
3.36289866e-26
4.789089345e-26
7.18379007e-26
1.057840745e-25
1.475165213e-25
2.230083069e-25
3.607162525e-25
6.120918811e-25
1.050236034e-24
1.724523659e-24
3.068644634e-24
5.204412726e-24
8.123319886e-24
1.396156602e-23
2.380931612e-23
4.221349744e-23
7.128132223e-23
1.150282168e-22
1.674456682e-22
2.199325857e-22
2.84610188e-22
3.47527615e-22
3.994047916e-22
4.361756748e-22
4.409458161e-22
4.349737892e-22
4.141997966e-22
3.939693377e-22
3.760403672e-22
3.530344649e-22
3.343725003e-22
3.144231596e-22
2.908111258e-22
2.716194077e-22
2.522056987e-22
2.345675148e-22
2.164281008e-22
1.97757167e-22
1.784578496e-22
3.689139858e-25
9.844560542e-25
1.468469777e-24
1.749377327e-24
1.920207572e-24
2.028400238e-24
1.986295086e-24
1.877601557e-24
1.604200626e-24
1.510496553e-24
1.415710902e-24
1.275162465e-24
1.119068704e-24
1.009205188e-24
8.568558281e-25
7.068562504e-25
6.169899821e-25
5.609509054e-25
4.498427817e-25
3.659643029e-25
3.089744524e-25
2.812487767e-25
2.495534243e-25
2.024087986e-25
1.731911966e-25
1.502557382e-25
1.270810421e-25
1.07203999e-25
9.14299568e-26
8.449019674e-26
7.703942335e-26
6.508690493e-26
5.638861548e-26
5.495511979e-26
5.329622494e-26
5.207054758e-26
4.865609593e-26
4.191904161e-26
4.034645319e-26
4.256005391e-26
4.378120047e-26
4.35418871e-26
4.357994685e-26
4.327505433e-26
4.4406078e-26
4.637937401e-26
5.004313927e-26
5.293279273e-26
5.919865072e-26
6.665572956e-26
7.508319849e-26
9.169571192e-26
1.161885167e-25
1.43208224e-25
1.894122966e-25
2.502364265e-25
3.372019479e-25
4.724669927e-25
6.229470712e-25
8.77890595e-25
1.288035813e-24
1.81400943e-24
2.742018474e-24
4.013549455e-24
5.497454025e-24
8.320866937e-24
1.345641858e-23
2.282806942e-23
3.890800644e-23
6.252019104e-23
1.123749228e-22
1.927585302e-22
2.941556209e-22
5.052647956e-22
8.560537317e-22
1.495763002e-21
2.514671754e-21
4.046749646e-21
5.79212367e-21
7.509687836e-21
9.80773068e-21
1.188244839e-20
1.346161117e-20
1.453593432e-20
1.461118382e-20
1.424968998e-20
1.346439685e-20
1.265076796e-20
1.200930215e-20
1.126819839e-20
1.061166008e-20
9.9702276e-21
9.211516713e-21
8.543678873e-21
7.786349231e-21
7.277149918e-21
6.7218243e-21
6.139665596e-21
5.507320946e-21
1.443214319e-23
3.914389643e-23
5.790063477e-23
6.95926714e-23
7.63276619e-23
8.031963071e-23
7.897117403e-23
7.461757963e-23
6.367944698e-23
6.00952301e-23
5.640324214e-23
4.998258839e-23
4.422101533e-23
4.00588637e-23
3.38009285e-23
2.820773567e-23
2.41846857e-23
2.207586882e-23
1.765853124e-23
1.459077805e-23
1.227637916e-23
1.11259933e-23
9.810471009e-24
7.936549684e-24
6.83471142e-24
5.942969859e-24
5.033788602e-24
4.255489754e-24
3.602166395e-24
3.343324282e-24
3.054328478e-24
2.596344195e-24
2.217331809e-24
2.173906982e-24
2.126950219e-24
2.079801646e-24
1.923876943e-24
1.645664921e-24
1.605556758e-24
1.70439731e-24
1.741928223e-24
1.72762255e-24
1.716352502e-24
1.707176085e-24
1.751720686e-24
1.816270254e-24
1.969272593e-24
2.105775522e-24
2.325770112e-24
2.583963209e-24
2.935241906e-24
3.584893717e-24
4.571690364e-24
5.481906399e-24
7.305579451e-24
9.685786054e-24
1.323674583e-23
1.833316307e-23
2.446404446e-23
3.368983431e-23
4.895764805e-23
6.908062493e-23
1.038863302e-22
1.493854345e-22
2.053268982e-22
3.10567376e-22
5.000126771e-22
8.494641109e-22
1.456894588e-21
2.303673743e-21
4.118151837e-21
7.043640321e-21
1.077645514e-20
1.803525055e-20
3.039345665e-20
5.312551174e-20
8.870944289e-20
1.412817578e-19
1.994545052e-19
2.55425264e-19
3.357357994e-19
4.051936067e-19
4.592924464e-19
4.868911957e-19
4.884375286e-19
4.686242593e-19
4.379818691e-19
4.097648118e-19
3.83765935e-19
3.567677578e-19
3.3505324e-19
3.149435094e-19
2.911243929e-19
2.691979076e-19
2.456787216e-19
2.267255499e-19
2.082924038e-19
1.897366279e-19
1.70941763e-19
5.684559388e-22
1.544898955e-21
2.279583598e-21
2.747997845e-21
3.006333781e-21
3.191938789e-21
3.170566019e-21
2.963953005e-21
2.541159909e-21
2.391687586e-21
2.247962712e-21
1.959752939e-21
1.744585429e-21
1.58863102e-21
1.327416254e-21
1.1267854e-21
9.815789825e-22
8.975317685e-22
7.087171123e-22
5.791180324e-22
4.834335571e-22
4.438855581e-22
3.914981235e-22
3.143810672e-22
2.709761216e-22
2.38224251e-22
1.99608923e-22
1.685295621e-22
1.422389661e-22
1.313268307e-22
1.204052371e-22
1.026251168e-22
8.755848351e-23
8.57976691e-23
8.505648699e-23
8.236802848e-23
7.654103906e-23
6.589484705e-23
6.389319418e-23
6.810409653e-23
6.916762546e-23
6.75035146e-23
6.79943081e-23
6.71717284e-23
6.896416289e-23
7.047157577e-23
7.744815071e-23
8.280832689e-23
9.104424385e-23
1.008667938e-22
1.147712429e-22
1.397170302e-22
1.789619508e-22
2.133675351e-22
2.801708922e-22
3.780598698e-22
5.107740016e-22
7.100769985e-22
9.345429529e-22
1.302934729e-21
1.858618476e-21
2.607886834e-21
3.930667831e-21
5.810898808e-21
7.716571865e-21
1.16051658e-20
1.868092366e-20
3.149406087e-20
5.429471765e-20
8.25290856e-20
1.510279391e-19
2.574855102e-19
3.86129782e-19
6.520789063e-19
1.075280944e-18
1.887885757e-18
3.113412522e-18
4.984771726e-18
7.196441714e-18
8.684134875e-18
1.149717555e-17
1.380604832e-17
1.570150791e-17
1.634851809e-17
1.614954298e-17
1.525965083e-17
1.421143231e-17
1.316740589e-17
1.220132764e-17
1.124608346e-17
1.059126837e-17
9.923782262e-18
9.220558999e-18
8.450730024e-18
7.698544304e-18
7.078473009e-18
6.463889547e-18
5.823798831e-18
5.263579e-18
2.300789872e-20
6.032604685e-20
8.949235335e-20
1.076864826e-19
1.210056072e-19
1.259652495e-19
1.262877965e-19
1.177311748e-19
1.012107056e-19
9.513727083e-20
8.912718347e-20
7.869548795e-20
6.908171484e-20
6.301277484e-20
5.257553329e-20
4.490174608e-20
3.862694998e-20
3.554668112e-20
2.887692103e-20
2.32949966e-20
1.907377331e-20
1.750070621e-20
1.554078594e-20
1.266469263e-20
1.082764324e-20
9.498647748e-21
7.872086359e-21
6.6553082e-21
5.679934017e-21
5.143973067e-21
4.823298287e-21
4.049663446e-21
3.523852425e-21
3.385983946e-21
3.346805667e-21
3.267677208e-21
3.035132343e-21
2.591742946e-21
2.531279816e-21
2.689737095e-21
2.745342126e-21
2.727504332e-21
2.67662109e-21
2.629503533e-21
2.708842527e-21
2.774342737e-21
3.050513038e-21
3.282859164e-21
3.564438833e-21
3.91609481e-21
4.507813091e-21
5.377715303e-21
7.035475943e-21
8.329915307e-21
1.078279341e-20
1.461124819e-20
1.980467702e-20
2.72957099e-20
3.530786915e-20
5.03014706e-20
7.16051173e-20
9.841102234e-20
1.475166158e-19
2.198512588e-19
2.882705499e-19
4.341713937e-19
6.947188149e-19
1.163793727e-18
2.025168507e-18
3.051107367e-18
5.503145066e-18
9.38344015e-18
1.388775559e-17
2.333566755e-17
3.849275741e-17
6.713394528e-17
1.087520019e-16
1.75173576e-16
2.525709217e-16
2.992665696e-16
3.955515945e-16
4.66647281e-16
5.351710714e-16
5.498123865e-16
5.342865137e-16
4.891046362e-16
4.593655418e-16
4.238999051e-16
3.875555969e-16
3.551127239e-16
3.356057672e-16
3.130582729e-16
2.904310757e-16
2.666775438e-16
2.376404696e-16
2.186247721e-16
1.991402051e-16
1.798916041e-16
1.609641187e-16
9.206412058e-19
2.473538429e-18
3.503355686e-18
4.232913441e-18
4.832360648e-18
4.970190636e-18
4.964240185e-18
4.687489898e-18
4.030995188e-18
3.755942927e-18
3.489945788e-18
3.126581799e-18
2.751691651e-18
2.502267177e-18
2.09836487e-18
1.783307774e-18
1.560542648e-18
1.393755298e-18
1.157990299e-18
9.216726921e-19
7.575668879e-19
6.84377504e-19
6.176782939e-19
5.03972477e-19
4.293408681e-19
3.763012141e-19
3.089405881e-19
2.611754617e-19
2.242384677e-19
2.014760883e-19
1.937466475e-19
1.598520104e-19
1.400116328e-19
1.347007549e-19
1.325240386e-19
1.29639015e-19
1.199031704e-19
1.0156369e-19
1.032385299e-19
1.087347858e-19
1.10060116e-19
1.076892101e-19
1.052210999e-19
1.013060182e-19
1.062499375e-19
1.06050753e-19
1.198537719e-19
1.289612153e-19
1.38362236e-19
1.547325491e-19
1.788286109e-19
2.138397915e-19
2.755158468e-19
3.244844533e-19
4.23395496e-19
5.631159486e-19
7.681824677e-19
1.082034773e-18
1.396971318e-18
1.936817575e-18
2.736482739e-18
3.701701141e-18
5.69230232e-18
8.280677326e-18
1.073423419e-17
1.630269049e-17
2.565237637e-17
4.290044786e-17
7.550885047e-17
1.128621228e-16
2.016274317e-16
3.462948951e-16
4.933790803e-16
8.413726227e-16
1.35294861e-15
2.375874024e-15
3.878724576e-15
6.048478295e-15
9.129271445e-15
1.020378543e-14
1.375583829e-14
1.612851516e-14
1.790741163e-14
1.82926805e-14
1.789313169e-14
1.596633009e-14
1.473640291e-14
1.372498701e-14
1.214971389e-14