/*--------------------------------*- C++ -*----------------------------------*\
| =========                 |                                                 |
| \\      /  F ield         | OpenFOAM: The Open Source CFD Toolbox           |
|  \\    /   O peration     | Version:  v1706                                 |
|   \\  /    A nd           | Web:      www.OpenFOAM.com                      |
|    \\/     M anipulation  |                                                 |
\*---------------------------------------------------------------------------*/
FoamFile
{
    version     2.0;
    format      ascii;
    class       volScalarField;
    location    "0.00272";
    object      e-;
}
// * * * * * * * * * * * * * * * * * * * * * * * * * * * * * * * * * * * * * //

dimensions      [0 0 0 0 0 0 0];


internalField   nonuniform List<scalar> 
11682
(
1.854508668e-62
1.279173045e-62
1.391360706e-62
1.281360474e-62
1.106755606e-62
8.147099674e-63
7.18100741e-63
6.125771749e-63
3.147511114e-63
2.576198194e-63
2.27916558e-63
1.988932837e-63
1.306569162e-63
1.114309411e-63
8.745627815e-64
5.828300116e-64
3.942449775e-64
4.501049906e-64
3.15395285e-64
2.154262457e-64
1.47541312e-64
1.020269464e-64
8.912323087e-65
4.947603892e-65
5.032291295e-65
3.451988852e-65
2.650321242e-65
2.149168075e-65
1.719553805e-65
1.444956856e-65
1.120451697e-65
9.329372284e-66
8.060386771e-66
6.263061566e-66
6.0519053e-66
6.276516834e-66
7.108490187e-66
9.690888137e-66
1.350322261e-65
1.857825759e-65
2.900321928e-65
4.573598281e-65
4.329531858e-65
2.428749988e-65
1.802596662e-65
7.983248094e-66
6.807971828e-66
6.312565993e-66
6.337154272e-66
7.043025077e-66
6.879698592e-66
8.218990199e-66
1.046041593e-65
1.61719293e-65
2.211247608e-65
3.295714275e-65
4.786752118e-65
5.83557932e-65
1.122323151e-64
1.81569272e-64
2.345055151e-64
4.732629772e-64
7.985434224e-64
8.713213707e-64
2.036305135e-63
3.866008079e-63
7.408720051e-63
1.28203906e-62
3.13757383e-62
7.660123673e-62
1.476898735e-61
3.436441662e-61
7.551361078e-61
1.457833449e-60
2.942865193e-60
7.062842293e-60
1.497579673e-59
2.831469198e-59
5.537052506e-59
8.38025137e-59
1.442375659e-58
2.05161086e-58
3.190809282e-58
4.347583322e-58
5.203786878e-58
5.912196823e-58
7.423941982e-58
8.599725636e-58
9.448690092e-58
1.029840262e-57
1.038599993e-57
1.204830281e-57
1.325806406e-57
1.408017298e-57
1.485740915e-57
1.543242879e-57
1.589785044e-57
1.64371892e-57
1.698769005e-57
2.482966251e-60
2.024814604e-60
2.175634188e-60
1.835087233e-60
1.728834078e-60
1.325351702e-60
1.029799236e-60
9.139629479e-61
4.82230612e-61
3.766088756e-61
3.281404849e-61
2.83750178e-61
2.032419075e-61
1.619980694e-61
1.209676736e-61
8.827099958e-62
7.941844808e-62
6.741682113e-62
4.513882873e-62
3.055681295e-62
2.089374478e-62
1.595977331e-62
1.335875084e-62
9.368819254e-63
6.889332051e-63
5.548590676e-63
3.864847625e-63
2.96819141e-63
2.39924744e-63
2.135282459e-63
1.752257629e-63
1.501371172e-63
1.187216874e-63
9.576683225e-64
8.297995371e-64
9.162299151e-64
9.351677629e-64
1.067467389e-63
1.572240851e-63
2.320862887e-63
3.977117762e-63
6.630249739e-63
5.984558906e-63
4.267927543e-63
2.526426245e-63
1.50329973e-63
1.024135219e-63
9.146163932e-64
8.898772592e-64
1.003567638e-63
1.05371059e-63
1.247145668e-63
1.565846994e-63
2.315127523e-63
3.292201845e-63
4.656060005e-63
6.859010279e-63
9.711652138e-63
1.579008117e-62
2.497435312e-62
4.318793e-62
6.613032423e-62
1.069893126e-61
1.740122209e-61
2.69757191e-61
5.083670421e-61
1.000441254e-60
2.118790963e-60
4.527044279e-60
1.013785983e-59
2.294316242e-59
4.697277273e-59
9.908966445e-59
1.8634091e-58
3.819094462e-58
9.032661523e-58
2.00954512e-57
3.842970853e-57
7.065981244e-57
1.107652447e-56
1.742762875e-56
2.742068613e-56
3.87315159e-56
5.158304185e-56
6.568138975e-56
7.719998908e-56
8.983771865e-56
9.888065998e-56
1.061120962e-55
1.219898917e-55
1.339873703e-55
1.424560291e-55
1.502431472e-55
1.565808724e-55
1.660032337e-55
1.73963415e-55
1.801600266e-55
1.852824401e-55
1.891379965e-55
3.97818218e-58
2.867278261e-58
3.053718231e-58
2.813764971e-58
2.556261259e-58
1.922563614e-58
1.459708786e-58
1.347168763e-58
7.615800324e-59
5.39324957e-59
4.941144612e-59
3.975981066e-59
2.687210195e-59
2.156195707e-59
1.810632678e-59
1.227838837e-59
1.018415306e-59
9.888431614e-60
6.504325016e-60
4.351559072e-60
2.976033828e-60
2.379919843e-60
1.95541392e-60
1.362774992e-60
1.06549068e-60
7.248213043e-61
5.74449089e-61
4.607604924e-61
3.609470728e-61
3.07932426e-61
2.493295807e-61
2.270644272e-61
1.777028601e-61
1.325375664e-61
1.254885704e-61
1.276558079e-61
1.322684878e-61
1.428734308e-61
1.926107643e-61
2.860344992e-61
4.897902637e-61
7.980521754e-61
8.471198314e-61
5.686717286e-61
3.588922073e-61
2.151141517e-61
1.444301939e-61
1.311697887e-61
1.25706626e-61
1.403865302e-61
1.456595736e-61
1.71440679e-61
2.275524928e-61
3.289108565e-61
4.634690807e-61
6.308305496e-61
9.518899732e-61
1.415018168e-60
2.210794221e-60
3.621568221e-60
6.115786355e-60
9.767927765e-60
1.561651069e-59
2.356331726e-59
3.802051997e-59
6.93844715e-59
1.324172042e-58
2.875453842e-58
6.040204707e-58
1.378068533e-57
3.144323489e-57
6.488613545e-57
1.338083753e-56
2.444510971e-56
5.108800689e-56
1.185127325e-55
2.578582159e-55
4.893986856e-55
8.967092259e-55
1.475805714e-54
2.294076414e-54
3.543042188e-54
4.712662234e-54
6.366912597e-54
7.85587099e-54
9.133920688e-54
1.06541565e-53
1.195420478e-53
1.279082868e-53
1.412639179e-53
1.467118576e-53
1.596827656e-53
1.728026177e-53
1.826895519e-53
1.912011316e-53
1.924433943e-53
2.011863415e-53
2.068878349e-53
2.121710185e-53
5.728325839e-56
4.331473006e-56
5.03549404e-56
4.056866601e-56
4.046698404e-56
3.082718142e-56
2.18698598e-56
1.998067083e-56
1.034440296e-56
7.880516863e-57
7.107958471e-57
6.136947462e-57
4.178216534e-57
3.381030517e-57
2.509314772e-57
1.84304676e-57
1.698086561e-57
1.465422879e-57
9.771198715e-58
6.278677626e-58
4.22081287e-58
3.486223138e-58
2.83340485e-58
1.914446956e-58
1.496778712e-58
1.131485973e-58
8.549007961e-59
6.598475862e-59
5.504339255e-59
4.71233573e-59
3.844336816e-59
3.305656547e-59
2.59327092e-59
2.005450879e-59
1.927932652e-59
1.892995467e-59
1.766228844e-59
1.900605721e-59
1.992528167e-59
3.283401644e-59
6.322671979e-59
1.179459545e-58
1.11586151e-58
8.207151277e-59
4.720837448e-59
2.920029374e-59
2.107492672e-59
1.885395622e-59
1.750572891e-59
1.903262597e-59
2.065974617e-59
2.45577705e-59
3.469378902e-59
4.764961116e-59
6.995262195e-59
9.308693927e-59
1.382835787e-58
1.710243681e-58
3.099873125e-58
5.110890288e-58
8.563481687e-58
1.394226885e-57
2.158850487e-57
3.252124859e-57
4.683412112e-57
9.253015061e-57
1.853637042e-56
3.925205632e-56
8.303921861e-56
1.798190686e-55
4.151303835e-55
8.693493399e-55
1.783701273e-54
3.328163447e-54
6.403790385e-54
1.572345317e-53
3.323080499e-53
6.145914702e-53
1.146773433e-52
1.66953733e-52
2.883753855e-52
4.460071903e-52
5.931645584e-52
7.694448087e-52
9.419354277e-52
1.072088853e-51
1.265590017e-51
1.338646321e-51
1.459894293e-51
1.557036176e-51
1.76910885e-51
1.856532968e-51
1.974564405e-51
2.056656403e-51
2.148402411e-51
2.213912604e-51
2.259010746e-51
2.31840102e-51
2.388828933e-51
8.375446604e-54
6.716222404e-54
7.275997467e-54
6.319667833e-54
5.461794436e-54
4.445419351e-54
3.152595781e-54
2.890054618e-54
1.624433547e-54
1.137690891e-54
1.090657391e-54
7.981540346e-55
5.470742776e-55
5.071621816e-55
3.797751187e-55
2.72294272e-55
2.299868216e-55
2.173826132e-55
1.384998557e-55
9.048740424e-56
6.330569129e-56
5.235483894e-56
4.308608121e-56
2.84903329e-56
2.107269535e-56
1.655511088e-56
1.246005869e-56
9.461149912e-57
7.748274853e-57
6.871685089e-57
5.73481877e-57
4.87765992e-57
3.699714309e-57
2.913054597e-57
2.821267157e-57
2.707972943e-57
2.540636816e-57
2.419030026e-57
2.786464251e-57
3.992383749e-57
7.762604097e-57
1.516798015e-56
1.553856648e-56
1.113802435e-56
6.618568994e-57
4.048968835e-57
2.908246024e-57
2.729473717e-57
2.591456851e-57
2.834854794e-57
3.018183901e-57
3.750798294e-57
4.880583897e-57
6.541483617e-57
9.360843355e-57
1.384091205e-56
2.063324028e-56
2.890113493e-56
4.24806638e-56
7.133325879e-56
1.205093847e-55
1.889585424e-55
3.238193346e-55
4.402659396e-55
7.033678303e-55
1.292814533e-54
2.383568383e-54
5.24855666e-54
1.128371915e-53
2.491571668e-53
5.601611457e-53
1.193409471e-52
2.376838344e-52
4.222286807e-52
8.641594057e-52
2.025251555e-51
4.257232121e-51
7.778795391e-51
1.444434948e-50
2.365926866e-50
3.667651838e-50
5.556775103e-50
7.537976159e-50
9.508671983e-50
1.110253817e-49
1.259966173e-49
1.494901415e-49
1.5796082e-49
1.78914076e-49
1.927546456e-49
2.044916049e-49
2.171900751e-49
2.284613945e-49
2.383046842e-49
2.391920475e-49
2.539626567e-49
2.617809473e-49
2.665843012e-49
2.702001339e-49
1.230441812e-51
1.032947783e-51
1.099026593e-51
8.881535848e-52
8.940360554e-52
6.690056092e-52
4.978129799e-52
4.234066511e-52
2.317851333e-52
1.560007877e-52
1.606236498e-52
1.375272862e-52
8.561387034e-53
7.600475891e-53
5.618196878e-53
3.891498653e-53
3.650768287e-53
3.095550778e-53
2.051955996e-53
1.304857486e-53
8.979681982e-54
7.911468241e-54
6.395488257e-54
4.216750906e-54
3.099243856e-54
2.40335534e-54
1.834368562e-54
1.330705529e-54
1.119937641e-54
9.868085969e-55
8.531893009e-55
7.146510757e-55
5.611988249e-55
4.425106263e-55
4.216588249e-55
3.905996829e-55
3.634891433e-55
3.184327549e-55
3.482377204e-55
4.790850915e-55
9.531125642e-55
1.947397519e-54
2.092506146e-54
1.526762405e-54
8.988242865e-55
5.446410948e-55
4.417802894e-55
3.945126855e-55
3.739970297e-55
3.95151173e-55
3.99206492e-55
5.328851953e-55
7.335638197e-55
9.720521162e-55
1.42997959e-54
1.821817929e-54
2.87138849e-54
4.329251531e-54
6.256773906e-54
9.966009964e-54
1.700148359e-53
2.757628384e-53
4.51035913e-53
6.423886396e-53
9.806659757e-53
1.731902897e-52
3.475897293e-52
7.248922984e-52
1.416012228e-51
3.216838483e-51
7.380739348e-51
1.589105264e-50
3.148929423e-50
5.684555105e-50
1.208028638e-49
2.647325853e-49
5.444554016e-49
1.036636983e-48
1.868474646e-48
2.841629958e-48
4.590872592e-48
6.880676765e-48
8.998066894e-48
1.171001433e-47
1.378665969e-47
1.550647714e-47
1.774718813e-47
1.883143983e-47
2.070653807e-47
2.201673133e-47
2.355568734e-47
2.444696754e-47
2.564907628e-47
2.64348695e-47
2.765897965e-47
2.838611545e-47
2.819161952e-47
2.879385678e-47
3.006017294e-47
2.073153268e-49
1.482220888e-49
1.557121961e-49
1.425129492e-49
1.329917111e-49
9.587002571e-50
7.254754575e-50
6.195827219e-50
3.53265952e-50
2.44347319e-50
2.329139318e-50
1.898803238e-50
1.265266712e-50
1.094163841e-50
7.941076866e-51
5.693660614e-51
5.234463903e-51
4.706726623e-51
2.995008378e-51
1.865243774e-51
1.321168327e-51
1.142198573e-51
9.306795243e-52
6.235727066e-52
4.487999209e-52
3.53647298e-52
2.693471118e-52
1.976092647e-52
1.705062667e-52
1.495484216e-52
1.244477838e-52
1.038118456e-52
7.820844189e-53
6.159996115e-53
6.008785669e-53
5.959897403e-53
5.235610119e-53
4.457531237e-53
4.403267484e-53
6.136857528e-53
1.275454231e-52
2.333921227e-52
2.63242342e-52
1.983669299e-52
1.176541262e-52
7.522164549e-53
6.111731949e-53
5.673887599e-53
5.270246245e-53
5.907031403e-53
6.287690502e-53
7.559279046e-53
1.063073463e-52
1.386444421e-52
2.036167172e-52
2.850640012e-52
4.117913504e-52
6.036626201e-52
8.599919279e-52
1.43085088e-51
2.410931323e-51
3.873753024e-51
6.495278614e-51
9.577404017e-51
1.397832717e-50
2.375986792e-50
4.844390837e-50
9.765442947e-50
1.992399609e-49
4.38281764e-49
9.671173678e-49
2.120023165e-48
4.185435755e-48
7.616319425e-48
1.374817894e-47
3.398761012e-47
6.95015594e-47
1.305270732e-46
2.369954881e-46
3.714192346e-46
5.642719723e-46
8.525051762e-46
1.190625596e-45
1.447449982e-45
1.664285614e-45
1.917335444e-45
2.080487322e-45
2.203816393e-45
2.409418e-45
2.485531271e-45
2.734108724e-45
2.877305435e-45
2.955325333e-45
2.869531437e-45
3.105434988e-45
3.187565926e-45
3.336042918e-45
3.415005245e-45
3.474427538e-45
2.923537163e-47
2.334456442e-47
2.597311143e-47
2.158169103e-47
1.985654814e-47
1.477236643e-47
1.134233279e-47
8.938137307e-48
4.998547173e-48
3.759960375e-48
3.408842963e-48
2.86642011e-48
1.898360131e-48
1.684572331e-48
1.321249376e-48
8.207399058e-49
8.170832215e-49
6.821339132e-49
4.396894598e-49
2.731703567e-49
1.945777179e-49
1.71526911e-49
1.39957659e-49
9.230722453e-50
6.876225456e-50
5.262945538e-50
3.959019435e-50
2.913571995e-50
2.46999435e-50
2.228112102e-50
1.878455317e-50
1.548113645e-50
1.187239501e-50
9.600624289e-51
9.02078655e-51
8.371596762e-51
7.500535351e-51
6.022514997e-51
6.476401778e-51
8.502403203e-51
1.614925222e-50
3.13151209e-50
3.412230254e-50
2.442154295e-50
1.565034002e-50
1.067875546e-50
8.882762816e-51
8.150588736e-51
8.184796058e-51
7.900245355e-51
8.67755881e-51
1.129330663e-50
1.553995244e-50
2.037837619e-50
2.963253694e-50
4.058652213e-50
5.793704513e-50
8.617008906e-50
1.240011475e-49
1.959227387e-49
3.40817704e-49
5.53771029e-49
9.469117668e-49
1.374132861e-48
1.94121442e-48
3.272953007e-48
6.558500384e-48
1.345551742e-47
2.812405136e-47
5.856044741e-47
1.331864459e-46
2.782373408e-46
5.612181096e-46
1.041757282e-45
2.021394578e-45
4.365627261e-45
8.75390403e-45
1.717721323e-44
3.0409193e-44
4.645016508e-44
7.282653251e-44
1.06760172e-43
1.450615944e-43
1.803642679e-43
2.145887922e-43
2.333336945e-43
2.474042421e-43
2.618197281e-43
2.856584145e-43
3.034646094e-43
3.169704873e-43
3.297231404e-43
3.355835432e-43
3.244444327e-43
3.406581462e-43
3.539141907e-43
3.702083669e-43
3.824538682e-43
3.884916545e-43
4.432083436e-45
3.4376698e-45
3.662490941e-45
3.126713927e-45
2.754942089e-45
2.040115953e-45
1.622775005e-45
1.273850256e-45
7.378488417e-46
5.675786434e-46
5.018236687e-46
4.70149711e-46
3.076966155e-46
2.55143817e-46
1.870109088e-46
1.181313102e-46
1.205244601e-46
1.066629853e-46
6.309586184e-47
3.885091299e-47
2.866450364e-47
2.550456796e-47
1.95617294e-47
1.424699602e-47
9.635013407e-48
7.783505592e-48
5.880758981e-48
4.297797366e-48
3.689908779e-48
3.324930767e-48
2.769851552e-48
2.171292063e-48
1.699795535e-48
1.451162698e-48
1.300703164e-48
1.319873624e-48
1.129837871e-48
8.766764669e-49
9.063233364e-49
1.212261714e-48
2.193891945e-48
3.927736293e-48
4.300106504e-48
3.181746259e-48
2.082234018e-48
1.445418444e-48
1.242398542e-48
1.177097721e-48
1.176139318e-48
1.215389142e-48
1.256246967e-48
1.644365454e-48
2.249199863e-48
2.965260601e-48
4.209644692e-48
5.640847965e-48
8.326782309e-48
1.181978301e-47
1.735474196e-47
2.801399173e-47
4.778462337e-47
7.616983772e-47
1.318254193e-46
1.953039871e-46
2.726130268e-46
4.759130962e-46
9.077971149e-46
1.894526047e-45
3.422246552e-45
7.879234702e-45
1.707292973e-44
3.782397734e-44
7.352992587e-44
1.302424521e-43
2.63295103e-43
5.533202015e-43
1.125088836e-42
2.180158408e-42
3.863215797e-42
5.864647999e-42
8.684585768e-42
1.290149037e-41
1.82928137e-41
2.23522834e-41
2.488268437e-41
2.866764631e-41
2.925770329e-41
3.029648353e-41
3.224802712e-41
3.534292679e-41
3.700840787e-41
3.795497241e-41
3.843812097e-41
3.980177667e-41
4.128616212e-41
4.22747284e-41
4.316356647e-41
4.283453925e-41
4.361811271e-41
7.209909464e-43
5.319402874e-43
5.774751731e-43
4.655077058e-43
4.108813563e-43
3.1160522e-43
2.389664618e-43
1.957841296e-43
1.08593566e-43
8.402846688e-44
7.869134796e-44
6.870424465e-44
4.521790755e-44
3.767524584e-44
2.904060008e-44
1.831611134e-44
1.827633733e-44
1.367136649e-44
9.395766258e-45
5.686182573e-45
4.223783482e-45
3.729726142e-45
3.027738542e-45
2.089942572e-45
1.435804878e-45
1.172300341e-45
8.639488364e-46
6.614842007e-46
5.384938287e-46
4.966677739e-46
4.133153244e-46
3.246329425e-46
2.496714786e-46
2.068762334e-46
1.891429946e-46
1.887556692e-46
1.624010409e-46
1.257974983e-46
1.329450264e-46
2.028305549e-46
2.936949721e-46
4.889465483e-46
5.344566973e-46
3.953350959e-46
2.628244838e-46
1.96835525e-46
1.757350692e-46
1.675847654e-46
1.673889732e-46
1.768660209e-46
1.827768788e-46
2.291849673e-46
3.260076813e-46
4.307290777e-46
6.188410819e-46
8.40989812e-46
1.188307011e-45
1.781073263e-45
2.445033057e-45
3.892849601e-45
6.812185976e-45
1.060844681e-44
1.806274871e-44
2.739306463e-44
3.695221774e-44
5.763005448e-44
1.21806458e-43
2.529482336e-43
5.594232637e-43
1.05355476e-42
2.351387175e-42
5.091791713e-42
9.576875238e-42
1.788918265e-41
3.279782491e-41
6.857441282e-41
1.389454376e-40
2.715670076e-40
4.905001907e-40
7.487324946e-40
1.100694376e-39
1.70484137e-39
2.293769873e-39
2.95844622e-39
3.274660081e-39
3.451409344e-39
3.547192209e-39
3.577550451e-39
3.881144736e-39
4.045830801e-39
4.241212696e-39
4.379021413e-39
4.330348366e-39
3.994567565e-39
4.34650322e-39
4.565177956e-39
4.82994206e-39
4.954208363e-39
4.967931747e-39
1.051946909e-40
7.984659601e-41
8.393254913e-41
6.87197284e-41
5.91087154e-41
4.581147068e-41
3.273146416e-41
2.883259803e-41
1.556058039e-41
1.228577783e-41
1.098448626e-41
1.016051035e-41
7.409444524e-42
5.823594803e-42
4.221106344e-42
2.536374062e-42
2.644168292e-42
2.312648524e-42
1.335180135e-42
8.457068616e-43
6.295958741e-43
5.453771716e-43
4.434851287e-43
3.031307367e-43
2.261814772e-43
1.73330814e-43
1.286234575e-43
9.650276885e-44
7.743248834e-44
7.16711296e-44
5.96360378e-44
4.520484158e-44
3.276579775e-44
3.138893615e-44
2.88491955e-44
2.810238899e-44
2.252353916e-44
1.7782531e-44
1.895825016e-44
3.157625027e-44
4.146626497e-44
5.734740299e-44
6.61382629e-44
5.290871253e-44
3.655309479e-44
2.758782908e-44
2.475851208e-44
2.360515584e-44
2.432646318e-44
2.491197475e-44
2.519054227e-44
3.362833796e-44
4.721716884e-44
6.062192036e-44
8.680824324e-44
1.192032727e-43
1.634041839e-43
2.31126008e-43
3.420315079e-43
5.434626049e-43
9.425883086e-43
1.582656106e-42
2.715671883e-42
4.005944847e-42
5.166762472e-42
8.977317677e-42
1.790345894e-41
3.713808456e-41
7.600296701e-41
1.442374107e-40
3.217207647e-40
6.902843496e-40
1.245162355e-39
2.300555756e-39
4.383140872e-39
9.60139867e-39
1.846192257e-38
3.502957454e-38
6.256635298e-38
9.192943027e-38
1.448895289e-37
2.042146605e-37
2.872665438e-37
3.364967397e-37
3.851066793e-37
4.220193315e-37
4.19480066e-37
4.437854465e-37
4.615701262e-37
4.679383251e-37
4.862773051e-37
5.027173994e-37
4.931947278e-37
5.177915978e-37
5.380450376e-37
5.515854798e-37
5.591692859e-37
5.662226851e-37
5.623843452e-37
1.656686389e-38
1.220849941e-38
1.248161241e-38
1.060617923e-38
8.64663314e-39
6.514093838e-39
5.013161896e-39
4.1692817e-39
2.26268484e-39
1.804275555e-39
1.65689148e-39
1.4895736e-39
1.098883966e-39
8.635161656e-40
6.124768042e-40
3.83039072e-40
3.893575592e-40
3.227637374e-40
1.95540995e-40
1.151550441e-40
9.285839587e-41
8.039022712e-41
6.373446949e-41
4.543743684e-41
3.434413486e-41
2.595120735e-41
1.871704913e-41
1.462338961e-41
1.147917282e-41
1.051629428e-41
8.965519015e-42
6.575858959e-42
5.141746236e-42
4.710986817e-42
3.986465749e-42
4.070445225e-42
3.607840953e-42
2.665777083e-42
3.106667959e-42
5.8457294e-42
5.748534261e-42
7.679048355e-42
8.048383017e-42
6.051189964e-42
4.693405596e-42
3.744766887e-42
3.512547232e-42
3.386241047e-42
3.593234841e-42
3.622204397e-42
3.614607199e-42
4.785711147e-42
6.616130123e-42
8.859094293e-42
1.292248442e-41
1.682215278e-41
2.449614356e-41
3.566786099e-41
4.749844784e-41
7.726993223e-41
1.366058389e-40
2.009022832e-40
3.788033297e-40
5.604753944e-40
6.649082498e-40
1.205881425e-39
2.321629666e-39
5.124628325e-39
1.058849967e-38
1.926711614e-38
4.22192246e-38
9.733284448e-38
1.714682926e-37
3.043503999e-37
5.493519477e-37
1.124682144e-36
2.402481366e-36
4.366591463e-36
7.515696807e-36
1.199790262e-35
1.804768701e-35
2.689391548e-35
3.544642186e-35
4.354419748e-35
4.766849955e-35
4.993330026e-35
5.081302921e-35
5.080715738e-35
5.269044133e-35
5.392357766e-35
5.613430399e-35
5.846049437e-35
5.54563503e-35
5.690836262e-35
5.803477113e-35
6.088641243e-35
6.372113339e-35
6.474112734e-35
6.341630889e-35
2.452015748e-36
1.934212004e-36
1.800101457e-36
1.479155742e-36
1.251470435e-36
1.00891516e-36
7.195457349e-37
6.448470673e-37
3.223252632e-37
2.654952142e-37
2.431812702e-37
2.127930358e-37
1.635322796e-37
1.300275525e-37
8.898235133e-38
5.802560033e-38
5.478897762e-38
4.679700538e-38
2.879482433e-38
1.906084832e-38
1.385705384e-38
1.184639936e-38
9.021641447e-39
5.991220395e-39
4.856557057e-39
3.792718042e-39
2.769462622e-39
2.122537959e-39
1.65388795e-39
1.552632125e-39
1.298351957e-39
1.01494522e-39
7.117541972e-40
6.774377925e-40
6.225913031e-40
5.889447921e-40
4.856320944e-40
3.705740457e-40
5.1696554e-40
1.13735738e-39
9.462586581e-40
9.867955205e-40
1.03027897e-39
8.376613584e-40
6.279669599e-40
5.163179598e-40
5.03820807e-40
4.902896943e-40
5.269231844e-40
5.141337196e-40
5.032148277e-40
6.909096644e-40
9.82154599e-40
1.111167057e-39
1.791359957e-39
2.456757659e-39
3.390098829e-39
5.180751623e-39
6.792234976e-39
1.050750466e-38
1.870070061e-38
3.139207668e-38
5.424440043e-38
7.582319299e-38
9.243420452e-38
1.644331315e-37
3.489426509e-37
7.235149411e-37
1.428617471e-36
2.615681388e-36
5.772354387e-36
1.237102046e-35
2.144966712e-35
3.835387173e-35
7.371858209e-35
1.629621029e-34
3.063882821e-34
5.464028988e-34
9.662870518e-34
1.459852951e-33
2.314085917e-33
3.355225787e-33
4.408978762e-33
5.248153953e-33
5.46742465e-33
6.006013529e-33
6.128087902e-33
6.107646636e-33
6.191238006e-33
6.089861871e-33
6.299590297e-33
6.631886878e-33
6.607085764e-33
6.847105456e-33
6.928623856e-33
7.082280558e-33
7.253265451e-33
7.336251309e-33
7.231871313e-33
3.616985742e-34
2.760877752e-34
2.580087649e-34
2.446328482e-34
1.828985685e-34
1.52577137e-34
1.108564265e-34
9.528946301e-35
5.105237287e-35
4.015787527e-35
3.60254801e-35
3.141137555e-35
2.408071807e-35
1.940971405e-35
1.283893998e-35
8.529408443e-36
8.692669219e-36
7.662856286e-36
4.182844145e-36
2.80024163e-36
1.959900739e-36
1.776485018e-36
1.364755339e-36
9.088418172e-37
7.230274304e-37
5.781781827e-37
4.040621576e-37
3.20033607e-37
2.381566749e-37
2.194617411e-37
1.967010657e-37
1.450003639e-37
1.061460602e-37
1.008882458e-37
9.250515476e-38
8.37648152e-38
7.951889383e-38
6.122874464e-38
9.385821429e-38
2.420459313e-37
1.605008855e-37
1.381853587e-37
1.326996082e-37
1.060555977e-37
8.339299096e-38
7.059849276e-38
7.165680942e-38
6.948367333e-38
7.749034124e-38
7.37022495e-38
7.439007882e-38
1.010837453e-37
1.347438489e-37
1.743179482e-37
2.581975022e-37
3.637369202e-37
4.805764103e-37
7.387017735e-37
8.612257857e-37
1.54371676e-36
2.602451357e-36
4.226995485e-36
7.71895321e-36
1.173391819e-35
1.275578032e-35
2.231421756e-35
4.741022045e-35
9.928437465e-35
1.874937241e-34
3.23706584e-34
7.849184409e-34
1.755200164e-33
2.807265068e-33
5.177461527e-33
9.502525569e-33
2.15151134e-32
4.012464021e-32
7.273062297e-32
1.262559083e-31
1.75245451e-31
2.92255356e-31
4.208758062e-31
5.269440388e-31
6.397461335e-31
6.610570465e-31
6.930279109e-31
7.129739594e-31
6.60830896e-31
6.955041973e-31
6.946570707e-31
7.262461229e-31
7.655552373e-31
7.789960051e-31
7.855774585e-31
7.598762921e-31
7.999360369e-31
8.21568313e-31
8.23213235e-31
8.026177235e-31
5.327352375e-32
4.033118326e-32
3.867870455e-32
3.554150248e-32
2.809123761e-32
2.190919352e-32
1.751010195e-32
1.442827119e-32
7.556964092e-33
5.996130686e-33
5.422996705e-33
4.641037023e-33
3.35814671e-33
2.841432239e-33
1.880316813e-33
1.295640257e-33
1.157645684e-33
1.054713066e-33
5.863005673e-34
4.44506315e-34
2.909779019e-34
2.550800631e-34
1.947415625e-34
1.401810968e-34
1.083801163e-34
8.54007045e-35
6.019055148e-35
4.772862085e-35
3.61148104e-35
3.185884835e-35
3.015903042e-35
2.169372207e-35
1.558970393e-35
1.457708685e-35
1.336347803e-35
1.278676862e-35
1.126191664e-35
8.800242323e-36
1.706630242e-35
5.344172282e-35
2.926003554e-35
2.091402647e-35
1.69532075e-35
1.352027964e-35
1.115917366e-35
9.882611394e-36
1.039642303e-35
1.07045663e-35
1.141248462e-35
9.910160437e-36
1.080442639e-35
1.415487273e-35
2.102228807e-35
2.59098085e-35
3.625866639e-35
5.073533816e-35
7.337587833e-35
1.070533906e-34
1.370630446e-34
2.259714534e-34
3.671336358e-34
6.023318191e-34
1.084677048e-33
1.459590433e-33
1.713252495e-33
3.178345692e-33
6.576447676e-33
1.350410269e-32
2.83919699e-32
4.734547872e-32
1.03117109e-31
2.337791496e-31
4.112136048e-31
6.489526197e-31
1.268987254e-30
2.805710806e-30
5.131692223e-30
9.327300339e-30
1.399313421e-29
2.031537393e-29
3.630547082e-29
5.366278564e-29
7.041785691e-29
8.032555597e-29
8.558872057e-29
8.410752245e-29
8.566520726e-29
8.277364565e-29
8.047541788e-29
7.783264507e-29
8.210734902e-29
8.729914411e-29
8.829245591e-29
9.031702861e-29
8.524350049e-29
8.748306686e-29
9.008620796e-29
9.130711296e-29
8.982283167e-29
8.17668039e-30
6.782181344e-30
5.580057499e-30
5.116377948e-30
4.171131343e-30
3.228413515e-30
2.673380496e-30
2.147129296e-30
1.152301359e-30
9.093499131e-31
8.139535726e-31
6.508267648e-31
5.287007118e-31
4.25160012e-31
2.726300474e-31
1.957130182e-31
1.957708504e-31
1.696041718e-31
8.969637829e-32
6.259687456e-32
4.187992931e-32
3.751944635e-32
2.956871353e-32
2.07428514e-32
1.560864684e-32
1.243336856e-32
8.754943908e-33
6.957139948e-33
5.164853195e-33
4.466556617e-33
4.313996106e-33
3.192037099e-33
2.329211834e-33
2.156701965e-33
1.998709304e-33
1.912838361e-33
1.688162571e-33
1.442123341e-33
3.650377508e-33
1.270021776e-32
5.953929807e-33
3.118923803e-33
2.337150148e-33
1.77615717e-33
1.525873628e-33
1.28053445e-33
1.515696856e-33
1.552733878e-33
1.662158579e-33
1.484539505e-33
1.612162802e-33
2.129189803e-33
3.016902563e-33
3.524198012e-33
5.185414156e-33
7.449336963e-33
1.047403218e-32
1.615716954e-32
2.019824421e-32
3.32363658e-32
5.224828318e-32
8.195028856e-32
1.475135587e-31
2.24452142e-31
2.280172002e-31
4.480884207e-31
8.932728697e-31
1.808356794e-30
3.755478489e-30
5.739444338e-30
1.359203193e-29
3.041973241e-29
5.38381225e-29
8.812111585e-29
1.589176591e-28
3.68874866e-28
6.799642972e-28
1.212311034e-27
2.285854903e-27
2.743752463e-27
4.619652771e-27
6.633377499e-27
8.760450229e-27
9.417233195e-27
1.070087207e-26
1.01515789e-26
1.028758597e-26
9.956493111e-27
9.319635342e-27
9.301133694e-27
9.888577474e-27
1.02685296e-26
1.066705158e-26
1.079451683e-26
1.045147097e-26
1.040108946e-26
1.03416276e-26
9.944090392e-27
9.853665629e-27
1.226849869e-27
9.733150019e-28
8.482758205e-28
8.142260832e-28
6.384699345e-28
4.903015935e-28
3.83851646e-28
3.255844671e-28
1.731157657e-28
1.379325647e-28
1.284157259e-28
1.053334034e-28
7.493136442e-29
6.291840919e-29
3.962099827e-29
2.895137447e-29
2.768870668e-29
2.472414562e-29
1.516259816e-29
9.776617991e-30
6.546035629e-30
5.649626139e-30
4.363680464e-30
3.117793754e-30
2.363935031e-30
1.897928241e-30
1.244041416e-30
1.039650647e-30
7.738011608e-31
6.838261473e-31
6.426579621e-31
4.696954017e-31
3.500749115e-31
3.133041368e-31
2.854596883e-31
2.751731966e-31
2.5468292e-31
2.195142354e-31
7.311297086e-31
2.720360341e-30
1.211558406e-30
5.854054745e-31
3.340272795e-31
2.369173428e-31
2.082063561e-31
1.93431653e-31
2.203192476e-31
2.332908821e-31
2.534878215e-31
2.048241841e-31
2.356593512e-31
2.935343785e-31
4.597961706e-31
5.264324478e-31
6.978301634e-31
1.034317626e-30
1.537871469e-30
2.199932391e-30
2.691504352e-30
4.757963926e-30
7.156126371e-30
1.113817024e-29
2.242009956e-29
3.084420827e-29
3.026176009e-29
5.910376306e-29
1.241646482e-28
2.404133917e-28
5.471753107e-28
7.609919681e-28
1.984775537e-27
4.341112387e-27
7.235023773e-27
1.186235292e-26
2.197956075e-26
4.797966306e-26
8.797246204e-26
1.663776122e-25
2.862817203e-25
3.866812912e-25
6.365534342e-25
8.188257045e-25
1.077169214e-24
1.097445491e-24
1.199949936e-24
1.157385603e-24
1.303557489e-24
1.317473597e-24
1.233080104e-24
1.182083195e-24
1.290955344e-24
1.332986886e-24
1.288586383e-24
1.276718933e-24
1.136449655e-24
1.220665923e-24
1.25891188e-24
1.24233032e-24
1.216113655e-24
1.776306906e-25
1.516964606e-25
1.249554792e-25
1.075448861e-25
9.852420775e-26
7.513453402e-26
6.241796801e-26
5.056529106e-26
2.632785499e-26
1.954781601e-26
1.755932463e-26
1.485426417e-26
1.130104369e-26
9.370751494e-27
6.471714728e-27
4.298598358e-27
4.476747333e-27
3.539511263e-27
2.208916559e-27
1.419495508e-27
9.115991473e-28
7.450136236e-28
6.498653187e-28
4.642480728e-28
3.399447706e-28
2.976837865e-28
1.86195512e-28
1.456358867e-28
1.12354019e-28
9.90679222e-29
9.797895897e-29
6.792753457e-29
5.228038177e-29
4.761210417e-29
4.245691289e-29
4.113941825e-29
3.733574504e-29
3.300464518e-29
1.531964844e-28
6.657828344e-28
2.373619789e-28
1.071152653e-28
5.008475802e-29
2.978250311e-29
2.922667558e-29
2.299339572e-29
3.163666559e-29
3.401081119e-29
3.511695945e-29
3.187853227e-29
3.548490419e-29
4.530388833e-29
6.311880778e-29
7.293024202e-29
1.075145978e-28
1.517528449e-28
2.250203259e-28
3.452642144e-28
4.005890301e-28
6.885331493e-28
1.053990636e-27
1.510024815e-27
3.1330221e-27
4.730758233e-27
3.974229233e-27
8.896769998e-27
1.817127981e-26
3.170046477e-26
7.418709191e-26
1.176013324e-25
2.749096983e-25
6.290839352e-25
1.043656771e-24
1.783925112e-24
3.045895821e-24
6.409322738e-24
1.124353765e-23
1.875609359e-23
3.87465441e-23
3.913226467e-23
7.513996985e-23
1.050416988e-22
1.448679988e-22
1.707292086e-22
1.810571643e-22
1.635349852e-22
1.612571802e-22
1.677148777e-22
1.498443705e-22
1.565889743e-22
1.521104804e-22
1.566909716e-22
1.67131423e-22
1.723353918e-22
1.687928005e-22
1.679493808e-22
1.638183938e-22
1.555672181e-22
1.470740614e-22
3.4719769e-23
2.962346656e-23
1.953097609e-23
1.753060678e-23
1.479183831e-23
1.207732459e-23
8.488159876e-24
7.525110395e-24
4.609620999e-24
3.535376781e-24
2.937032826e-24
2.575191719e-24
1.66156094e-24
1.368701088e-24
9.755165756e-25
6.383642853e-25
6.751736228e-25
5.674944304e-25
3.543590144e-25
2.283758954e-25
1.3943849e-25
1.252503379e-25
9.942750172e-26
7.339090084e-26
5.452791987e-26
4.195407048e-26
2.761132702e-26
2.259101918e-26
1.568585975e-26
1.480454888e-26
1.406604869e-26
9.904945353e-27
7.652069629e-27
7.299079385e-27
6.576324199e-27
6.157165815e-27
5.607471292e-27
4.989266056e-27
2.869194098e-26
1.518860918e-25
5.5727229e-26
2.510961528e-26
8.301293767e-27
4.125231398e-27
4.255340665e-27
4.244845327e-27
4.619623045e-27
5.259513977e-27
5.650171575e-27
4.886635574e-27
5.358651026e-27