/*--------------------------------*- C++ -*----------------------------------*\
| =========                 |                                                 |
| \\      /  F ield         | OpenFOAM: The Open Source CFD Toolbox           |
|  \\    /   O peration     | Version:  v1706                                 |
|   \\  /    A nd           | Web:      www.OpenFOAM.com                      |
|    \\/     M anipulation  |                                                 |
\*---------------------------------------------------------------------------*/
FoamFile
{
    version     2.0;
    format      ascii;
    class       volScalarField;
    location    "0.00272";
    object      N+;
}
// * * * * * * * * * * * * * * * * * * * * * * * * * * * * * * * * * * * * * //

dimensions      [0 0 0 0 0 0 0];


internalField   nonuniform List<scalar> 
11682
(
3.462437032e-66
2.659203896e-66
2.786112543e-66
2.549712493e-66
2.308637623e-66
1.562194116e-66
1.231361648e-66
1.012053128e-66
4.836548869e-67
3.899263882e-67
3.737445928e-67
3.062619581e-67
1.885015974e-67
1.391346272e-67
9.157034802e-68
5.825970545e-68
6.894159183e-68
5.518884286e-68
2.659145539e-68
1.654584572e-68
1.182373577e-68
9.448774844e-69
7.387842056e-69
3.544370914e-69
3.399917202e-69
2.603317029e-69
1.94892012e-69
1.423069644e-69
1.178281866e-69
1.030595912e-69
7.948984771e-70
6.292710531e-70
4.836750862e-70
3.669656717e-70
3.455374129e-70
3.269247079e-70
1.903277311e-70
5.985363058e-71
3.68019628e-71
1.023965538e-70
3.121070283e-70
6.143891062e-70
5.614969435e-70
3.483795309e-70
3.575612544e-70
2.699202254e-70
4.827991213e-70
6.034030825e-70
5.505731385e-70
4.840948375e-70
4.349890273e-70
7.065272467e-70
1.059573382e-69
1.822634023e-69
2.803999803e-69
4.36714582e-69
6.797794156e-69
7.932782311e-69
1.778170032e-68
3.151122137e-68
4.592003274e-68
9.53332384e-68
1.560807929e-67
1.731744196e-67
4.784495981e-67
1.108492019e-66
2.568094318e-66
4.466772853e-66
1.327524413e-65
3.605715752e-65
7.907471868e-65
1.899050462e-64
4.240644062e-64
8.871987507e-64
2.128564286e-63
5.380943171e-63
1.221997547e-62
2.386272249e-62
4.869288745e-62
7.656387924e-62
1.375145628e-61
1.930340447e-61
3.128104805e-61
4.084103091e-61
4.777247367e-61
5.171644722e-61
5.970467028e-61
6.201464047e-61
6.487337704e-61
7.292358823e-61
7.479129973e-61
8.969206244e-61
1.003573488e-60
1.08126742e-60
1.161269447e-60
1.213874915e-60
1.249873979e-60
1.273676091e-60
1.25672451e-60
7.296517477e-64
6.662118604e-64
6.153488506e-64
5.747180955e-64
5.111730343e-64
3.599795504e-64
2.65901567e-64
2.264258034e-64
1.108740333e-64
8.652690143e-65
8.156555942e-65
6.524532382e-65
4.08976399e-65
2.95935983e-65
2.007198222e-65
1.273887288e-65
1.77334099e-65
1.252862517e-65
5.96356763e-66
3.678481002e-66
2.587267441e-66
2.256827664e-66
1.671437251e-66
1.050145186e-66
7.29972196e-67
5.936364379e-67
4.477351391e-67
2.998275946e-67
2.625814309e-67
2.317904356e-67
1.840333573e-67
1.496950743e-67
1.095415477e-67
8.24991941e-68
7.782769043e-68
7.420016377e-68
4.377233856e-68
1.265207384e-68
6.941702195e-69
1.882392978e-68
5.766113083e-68
1.127802276e-67
1.078442726e-67
8.297497517e-68
7.569677464e-68
8.946935628e-68
1.108665617e-67
1.35588029e-67
1.218806684e-67
1.047283823e-67
1.081309397e-67
1.631887343e-67
2.427757012e-67
3.964241469e-67
6.157674795e-67
9.310559597e-67
1.478006609e-66
2.143475041e-66
3.797919487e-66
6.833961344e-66
1.257273416e-65
2.082678746e-65
3.304290176e-65
5.481794143e-65
9.707226518e-65
2.285839552e-64
5.227623222e-64
1.236622204e-63
2.774650768e-63
7.227117713e-63
1.726374037e-62
3.819133902e-62
8.509025487e-62
1.751327528e-61
4.247105282e-61
1.045771192e-60
2.410190271e-60
4.781108547e-60
9.352255404e-60
1.536675809e-59
2.51798012e-59
4.247753591e-59
5.843889099e-59
7.561270699e-59
9.03967425e-59
1.007496274e-58
1.104430903e-58
1.118158926e-58
1.137768732e-58
1.334544235e-58
1.45661622e-58
1.617116621e-58
1.782484218e-58
1.907739161e-58
2.040515995e-58
2.10741323e-58
2.17005815e-58
2.210305213e-58
2.195593105e-58
1.821914042e-61
1.460265309e-61
1.320776287e-61
1.281709809e-61
1.106338908e-61
7.710225971e-62
5.614691838e-62
4.998261638e-62
2.480411933e-62
1.897420428e-62
1.788265046e-62
1.359514807e-62
8.465297504e-63
6.446706797e-63
4.523243347e-63
2.835108918e-63
4.160241935e-63
2.803256994e-63
1.342384972e-63
8.142728528e-64
5.58860229e-64
5.150375993e-64
3.811182762e-64
2.354066089e-64
1.767830644e-64
1.344070816e-64
1.021993903e-64
7.473605276e-65
6.042595296e-65
5.319451769e-65
4.250297745e-65
3.396462345e-65
2.458141943e-65
1.872677903e-65
1.833340077e-65
1.662090131e-65
1.009400309e-65
2.89786022e-66
1.303846945e-66
3.475613987e-66
1.075409432e-65
2.086552793e-65
2.106231706e-65
1.636639689e-65
1.589365076e-65
1.980521722e-65
2.431980194e-65
3.017889e-65
2.68854132e-65
2.223413044e-65
2.344828526e-65
3.458256383e-65
5.540821536e-65
8.531083376e-65
1.316823398e-64
1.931209808e-64
3.201028298e-64
4.326588095e-64
7.96632735e-64
1.463763424e-63
2.678552185e-63
4.598297841e-63
7.340084786e-63
1.139583646e-62
1.923017237e-62
4.679367523e-62
1.048622021e-61
2.523734723e-61
5.602184587e-61
1.431088256e-60
3.464604967e-60
7.66848966e-60
1.685284804e-59
3.419538461e-59
8.303503162e-59
2.090720544e-58
4.634461615e-58
9.14662683e-58
1.783265955e-57
2.869571775e-57
5.078943456e-57
8.139427508e-57
1.079314964e-56
1.391073304e-56
1.628371404e-56
1.783984257e-56
1.991690056e-56
1.99149487e-56
2.104201026e-56
2.374674072e-56
2.547719115e-56
2.827248345e-56
3.123121971e-56
3.33836955e-56
3.562378118e-56
3.549246204e-56
3.741805884e-56
3.811178804e-56
3.799085589e-56
4.077850125e-59
3.402742435e-59
2.991942312e-59
2.854782829e-59
2.30776505e-59
1.774873413e-59
1.18371282e-59
1.099382308e-59
5.474170543e-60
4.130538239e-60
4.000521712e-60
2.847803246e-60
1.831746367e-60
1.59424576e-60
1.000935369e-60
6.538983e-61
9.71359423e-61
6.243462579e-61
3.045464667e-61
1.807076304e-61
1.222358147e-61
1.169294368e-61
8.787746297e-62
5.362220556e-62
3.957184681e-62
3.275816189e-62
2.329142319e-62
1.669402003e-62
1.349704301e-62
1.226286963e-62
1.006878586e-62
7.699920207e-63
5.495903457e-63
4.317901417e-63
4.313972422e-63
3.858126026e-63
2.268182324e-63
6.599093852e-64
2.3269505e-64
6.433146433e-64
2.075816625e-63
4.608638542e-63
4.347039219e-63
3.531267936e-63
3.457929235e-63
4.260099666e-63
5.382894523e-63
6.721070188e-63
5.941140876e-63
4.599376337e-63
5.099736723e-63
7.729747828e-63
1.233809733e-62
1.824267593e-62
2.804545852e-62
4.329128336e-62
6.925661683e-62
8.451091196e-62
1.653208923e-61
3.084277896e-61
5.678093947e-61
9.679938202e-61
1.555919069e-60
2.36430957e-60
3.956001125e-60
9.574522719e-60
2.107939027e-59
5.111408407e-59
1.164503522e-58
2.833334467e-58
6.935959311e-58
1.560746021e-57
3.333949104e-57
6.552634407e-57
1.565056404e-56
4.062865465e-56
8.899648213e-56
1.751432712e-55
3.412284536e-55
5.280691919e-55
9.589430919e-55
1.519549655e-54
1.989911883e-54
2.539104033e-54
2.901983315e-54
3.021124612e-54
3.570080209e-54
3.556288573e-54
3.840577585e-54
4.042435784e-54
4.716339407e-54
5.093869547e-54
5.490726106e-54
5.846774299e-54
6.163699696e-54
6.434725581e-54
6.559064609e-54
6.624296006e-54
6.576999279e-54
8.601184686e-57
7.63461538e-57
6.739750244e-57
6.313729689e-57
4.452543059e-57
3.89102625e-57
2.571158109e-57
2.406055591e-57
1.253539967e-57
8.977905982e-58
9.021169213e-58
6.23006359e-58
3.867521784e-58
3.52935802e-58
2.267373437e-58
1.433206391e-58
2.106938019e-58
1.375501697e-58
6.905615741e-59
4.009923451e-59
2.812121518e-59
2.62096685e-59
2.010798305e-59
1.277766597e-59
8.904547593e-60
7.430535325e-60
5.265362971e-60
3.757032002e-60
3.021275473e-60
2.740120107e-60
2.270467783e-60
1.727843136e-60
1.199991568e-60
9.636036789e-61
9.642518955e-61
8.599388076e-61
5.323648105e-61
1.434548394e-61
5.547685477e-62
1.220236575e-61
3.977170406e-61
9.081755812e-61
9.646826962e-61
7.91204492e-61
7.853452167e-61
9.127876887e-61
1.212684691e-60
1.50233703e-60
1.314506061e-60
1.028009347e-60
1.100619874e-60
1.788409017e-60
2.765575848e-60
3.883305467e-60
6.096914194e-60
9.278329394e-60
1.475716372e-59
2.180221031e-59
3.423665543e-59
6.45042421e-59
1.197030771e-58
1.953366855e-58
3.341661239e-58
4.746381284e-58
8.890705237e-58
1.987002908e-57
4.372802028e-57
1.031087749e-56
2.28389617e-56
5.641845762e-56
1.37475145e-55
3.201008813e-55
6.618051346e-55
1.264892499e-54
3.153684277e-54
7.825822751e-54
1.709475306e-53
3.31824049e-53
6.542878318e-53
1.066620025e-52
1.802540584e-52
2.827607695e-52
3.713111488e-52
4.660192463e-52
5.131947304e-52
5.543816425e-52
6.351292489e-52
6.12307524e-52
7.066840583e-52
7.696260402e-52
8.441927844e-52
8.983613046e-52
9.592224695e-52
1.015931796e-51
1.021410912e-51
1.113337103e-51
1.128205732e-51
1.140617322e-51
1.137144041e-51
1.99155966e-54
1.698220558e-54
1.55275221e-54
1.319645407e-54
1.105488631e-54
8.539875221e-55
5.837189985e-55
5.243410471e-55
2.749284282e-55
1.927088966e-55
1.9859484e-55
1.422573431e-55
9.363324556e-56
7.817592437e-56
4.889623734e-56
3.183575911e-56
5.059549603e-56
3.064746968e-56
1.5532871e-56
8.888885741e-57
6.380561101e-57
5.768133835e-57
4.474294458e-57
2.925050384e-57
2.079413104e-57
1.691081559e-57
1.18691848e-57
8.55908672e-58
6.822921326e-58
6.117275557e-58
5.073230869e-58
3.841286859e-58
2.764904027e-58
2.236982886e-58
2.170239011e-58
1.901026438e-58
1.183093595e-58
3.113872299e-59
1.116580402e-59
2.377841176e-59
7.633792353e-59
1.783459038e-58
2.034961129e-58
1.733020357e-58
1.738880839e-58
1.982533961e-58
2.768723583e-58
3.374097901e-58
2.937929221e-58
2.235237243e-58
2.318416104e-58
3.893464468e-58
6.176985469e-58
8.744499864e-58
1.400208769e-57
1.887677598e-57
3.136864402e-57
4.672870895e-57
7.33063525e-57
1.342358726e-56
2.507907269e-56
4.368019962e-56
7.27374289e-56
1.022072353e-55
1.832154072e-55
4.104385877e-55
9.477133916e-55
2.098180922e-54
4.405029064e-54
1.108203117e-53
2.707453703e-53
6.291783102e-53
1.308323182e-52
2.541194656e-52
5.861748978e-52
1.495676193e-51
3.272756065e-51
6.646142222e-51
1.264680494e-50
1.979634885e-50
3.349259512e-50
5.239126805e-50
7.030978939e-50
8.565481072e-50
9.714603179e-50
1.03401437e-49
1.135317978e-49
1.134311602e-49
1.260123171e-49
1.362384583e-49
1.512368649e-49
1.595509845e-49
1.673657672e-49
1.73828663e-49
1.882657021e-49
1.943529602e-49
1.947799725e-49
1.95680143e-49
1.962892045e-49
4.579171051e-52
3.735967438e-52
3.40933212e-52
3.142352666e-52
2.479895309e-52
1.890825869e-52
1.298122796e-52
1.138730505e-52
6.101399644e-53
4.663549597e-53
4.358658185e-53
3.173171382e-53
2.12697917e-53
1.736111524e-53
1.03543716e-53
7.197529988e-54
1.140934889e-53
7.136815248e-54
3.471851139e-54
1.972617455e-54
1.438298986e-54
1.266743891e-54
9.86324955e-55
6.597885074e-55
4.660168074e-55
3.837774653e-55
2.676516621e-55
1.942184193e-55
1.575562716e-55
1.425964701e-55
1.130597267e-55
8.436097295e-56
5.944884782e-56
5.103108299e-56
4.903369924e-56
4.203453101e-56
2.544730235e-56
6.587707743e-57
2.223596597e-57
4.79367611e-57
1.491384328e-56
3.289389892e-56
4.232236071e-56
3.689941193e-56
3.879127429e-56
4.631205134e-56
6.221454271e-56
7.568330549e-56
6.747536477e-56
4.907386371e-56
5.446262739e-56
8.197049945e-56
1.356849643e-55
1.907809472e-55
3.010295179e-55
4.513040089e-55
6.7191291e-55
1.001797547e-54
1.529831303e-54
2.790024858e-54
5.229272143e-54
9.093799763e-54
1.572092385e-53
2.294650772e-53
3.767835663e-53
8.450001879e-53
1.96963792e-52
4.301592742e-52
9.060930044e-52
2.232996671e-51
5.356987359e-51
1.225060455e-50
2.579520577e-50
5.058040037e-50
1.053988884e-49
2.838345017e-49
6.227795627e-49
1.281877654e-48
2.40331221e-48
3.905655015e-48
6.217815707e-48
9.680194632e-48
1.336287418e-47
1.57885576e-47
1.772152399e-47
1.953885105e-47
2.004604836e-47
2.046131128e-47
2.258907798e-47
2.364266213e-47
2.682537136e-47
2.854956857e-47
2.932526945e-47
2.848573178e-47
3.255397206e-47
3.369680281e-47
3.511397001e-47
3.529176909e-47
3.453869027e-47
1.007964491e-49
8.656650533e-50
8.128746814e-50
6.858136346e-50
5.376759809e-50
4.248754465e-50
3.08858697e-50
2.477350544e-50
1.349064868e-50
1.058137465e-50
9.55933993e-51
7.214385896e-51
4.91635367e-51
3.934077248e-51
2.482536207e-51
1.610987264e-51
2.769759987e-51
1.566768238e-51
7.693184711e-52
4.402902846e-52
3.208947642e-52
2.921017362e-52
2.150175838e-52
1.48283641e-52
1.023702124e-52
8.595899607e-53
6.030956308e-53
4.318977914e-53
3.511748878e-53
3.219767335e-53
2.513742911e-53
1.820507242e-53
1.365860527e-53
1.22998257e-53
1.098793233e-53
9.428048917e-54
5.854660916e-54
1.42643889e-54
4.979148411e-55
9.896655251e-55
2.959931049e-54
7.213332731e-54
9.275066544e-54
8.003550347e-54
8.680097036e-54
1.04931201e-53
1.390758953e-53
1.690210103e-53
1.587130379e-53
1.045637222e-53
1.19295477e-53
1.930615632e-53
2.970776493e-53
4.165280473e-53
6.464716255e-53
9.539934438e-53
1.399056747e-52
2.117940673e-52
3.27700386e-52
5.86224005e-52
1.085482637e-51
1.888628994e-51
3.311406608e-51
4.90013836e-51
7.670802014e-51
1.724662143e-50
4.083879994e-50
9.075197813e-50
1.831407325e-49
4.427589668e-49
1.071952291e-48
2.397540589e-48
5.069737671e-48
9.764795696e-48
2.294837967e-47
5.375951449e-47
1.173425215e-46
2.441696127e-46
4.547175414e-46
7.302066421e-46
1.148310863e-45
1.797331877e-45
2.465598806e-45
2.870013671e-45
3.230776988e-45
3.528188599e-45
3.542195169e-45
3.540519056e-45
3.965509417e-45
4.389441183e-45
4.774614576e-45
5.055625631e-45
5.145472259e-45
5.192843107e-45
5.652834655e-45
5.929202676e-45
6.125101339e-45
6.063040115e-45
5.932913197e-45
2.254245581e-47
1.855438807e-47
1.849260258e-47
1.447589858e-47
1.178412478e-47
9.621178308e-48
6.750977838e-48
5.438314722e-48
2.980107276e-48
2.409292038e-48
2.110476958e-48
1.711662775e-48
1.140732778e-48
8.98137208e-49
5.581327567e-49
3.54020906e-49
6.225182447e-49
3.328485036e-49
1.693524695e-49
9.886563777e-50
7.211260818e-50
6.556348683e-50
4.620969298e-50
3.316092246e-50
2.187022722e-50
1.87268416e-50
1.350972209e-50
9.540206399e-51
7.828111178e-51
7.269723281e-51
5.590336754e-51
3.899198097e-51
2.975758378e-51
2.759087569e-51
2.39718701e-51
2.141575777e-51
1.351683213e-51
3.253385687e-52
1.040205745e-52
2.049747321e-52
5.822273262e-52
1.422198822e-51
1.974368877e-51
1.802201431e-51
1.929294242e-51
2.328144524e-51
3.098829104e-51
3.769971184e-51
3.552448878e-51
2.445080227e-51
2.608025683e-51
4.155536207e-51
6.478535146e-51
9.048764165e-51
1.392761262e-50
1.951850356e-50
2.931108167e-50
4.445913615e-50
6.912922546e-50
1.245655605e-49
2.248291459e-49
3.91113385e-49
6.840904012e-49
1.023333951e-48
1.54662192e-48
3.378252863e-48
8.403789904e-48
1.878265842e-47
3.49706832e-47
8.874599979e-47
2.168698466e-46
4.964477218e-46
9.917547029e-46
1.870592061e-45
4.306396248e-45
1.009632976e-44
2.179321925e-44
4.569585935e-44
8.549363445e-44
1.361363903e-43
2.14046171e-43
3.383722818e-43
4.578076352e-43
5.544495342e-43
5.82190405e-43
6.39165386e-43
6.381487033e-43
6.157765489e-43
6.674819607e-43
7.722357847e-43
8.502258187e-43
8.977339813e-43
9.050766477e-43
8.970528528e-43
9.833321521e-43
1.028758976e-42
1.064984954e-42
1.036957111e-42
1.014447912e-42
5.127870966e-45
3.879710796e-45
4.264819201e-45
3.368173825e-45
2.669491934e-45
2.164856289e-45
1.482221709e-45
1.214296289e-45
6.551304503e-46
5.429931651e-46
4.706422332e-46
3.821239052e-46
2.666614727e-46
2.030968031e-46
1.280306678e-46
7.743410306e-47
1.39266575e-46
6.835197529e-47
3.718378048e-47
2.206871948e-47
1.638469363e-47
1.465137471e-47
1.086828064e-47
7.190403205e-48
4.99878551e-48
3.985583564e-48
2.999952133e-48
2.263671245e-48
1.749597911e-48
1.634519276e-48
1.244937771e-48
8.632784603e-49
6.385294714e-49
6.078015083e-49
5.489534978e-49
4.729458728e-49
2.921772526e-49
6.896486415e-50
2.135114012e-50
4.403339918e-50
1.090692523e-49
2.75459096e-49
4.208310697e-49
4.015747142e-49
4.244584521e-49
5.165144987e-49
6.9231611e-49
8.423729864e-49
8.028624529e-49
5.33577144e-49
5.637812495e-49
8.686594192e-49
1.404548695e-48
1.954660654e-48
3.008640589e-48
4.427427281e-48
6.475526751e-48
9.526594446e-48
1.481862234e-47
2.598274741e-47
4.66259553e-47
8.077601137e-47
1.39793195e-46
2.117503798e-46
3.114749191e-46
6.65358302e-46
1.720472897e-45
3.865518046e-45
8.497222095e-45
1.812688714e-44
4.409116047e-44
1.005717955e-43
1.947817132e-43
3.780206083e-43
8.184965358e-43
1.898174712e-42
4.007323423e-42
8.503099635e-42
1.601440697e-41
2.514820504e-41
4.068105212e-41
6.416247798e-41
8.832818093e-41
1.008827526e-40
1.111879549e-40
1.169785742e-40
1.16873752e-40
1.163657234e-40
1.267301486e-40
1.36231699e-40
1.499937116e-40
1.586939414e-40
1.584466142e-40
1.53748827e-40
1.72039411e-40
1.806937483e-40
1.857021859e-40
1.843899125e-40
1.764441741e-40
1.186596157e-42
9.018513393e-43
9.334981209e-43
7.17977857e-43
5.913860256e-43
4.776385986e-43
3.336073308e-43
2.744838973e-43
1.435455663e-43
1.204740841e-43
1.053155471e-43
8.46466658e-44
6.152972088e-44
4.639264976e-44
2.844726209e-44
1.718702628e-44
3.084316805e-44
1.656109395e-44
8.213165537e-45
4.78984539e-45
3.642322635e-45
3.278621223e-45
2.394791603e-45
1.537713333e-45
1.204647067e-45
9.181048729e-46
6.644060151e-46
5.14522569e-46
3.931544093e-46
3.647012052e-46
2.796973985e-46
1.89068487e-46
1.285740267e-46
1.402643244e-46
1.210093645e-46
1.071810541e-46
6.208476517e-47
1.425159472e-47
4.257780441e-48
9.568488275e-48
1.991833203e-47
5.047267392e-47
8.943644519e-47
8.847139347e-47
9.805234828e-47
1.14686125e-46
1.550882381e-46
1.897179031e-46
1.820599195e-46
1.174495939e-46
1.218881601e-46
1.947788579e-46
3.023251611e-46
4.149868324e-46
6.425745916e-46
9.579696733e-46
1.391587897e-45
2.108322237e-45
3.224259166e-45
5.466287909e-45
9.754179167e-45
1.662893005e-44
3.034876159e-44
4.404927652e-44
6.175829157e-44
1.524331912e-43
3.525736174e-43
8.12195909e-43
1.736934698e-42
3.683286998e-42
8.7539714e-42
2.014635605e-41
3.827448778e-41
7.300181976e-41
1.598753088e-40
3.568939499e-40
8.163096647e-40
1.612013943e-39
2.963700945e-39
4.683273105e-39
7.602865836e-39
1.184721923e-38
1.658305717e-38
1.841417464e-38
2.025110601e-38
2.159381827e-38
2.067484368e-38
2.134151569e-38
2.25128109e-38
2.380058052e-38
2.631507633e-38
2.810463395e-38
2.702726473e-38
2.916011606e-38
3.071204816e-38
3.216787595e-38
3.27989054e-38
3.21400927e-38
3.040939329e-38
2.624347327e-40
2.116053835e-40
2.033651461e-40
1.534118324e-40
1.322575099e-40
1.029976432e-40
7.77545057e-41
6.214653786e-41
3.156265044e-41
2.692158714e-41
2.339945316e-41
1.853443348e-41
1.377537765e-41
1.039398439e-41
6.334740203e-42
3.926173409e-42
6.761349378e-42
3.532949845e-42
1.78922978e-42
1.013519514e-42
7.981082104e-43
7.316509809e-43
5.170197708e-43
3.278484498e-43
2.689271763e-43
2.023712814e-43
1.480643906e-43
1.151031843e-43
8.932517902e-44
8.071754752e-44
6.406990437e-44
4.251444216e-44
3.070019848e-44
3.117112854e-44
2.701760905e-44
2.347891428e-44
1.424871529e-44
2.928098166e-45
9.18943871e-46
2.121641589e-45
3.644256125e-45
1.017235924e-44
1.915108397e-44
1.84881457e-44
2.184220864e-44
2.536776022e-44
3.475478773e-44
4.303768204e-44
4.204864425e-44
2.576647633e-44
2.619383178e-44
4.200500567e-44
6.496466505e-44
8.497589064e-44
1.374051222e-43
2.00826119e-43
2.966299945e-43
4.855310659e-43
6.922328055e-43
1.165462795e-42
2.05788352e-42
3.343962717e-42
6.44964951e-42
9.232238131e-42
1.195621439e-41
3.096825808e-41
7.277329962e-41
1.650469616e-40
3.477804066e-40
7.306623546e-40
1.746223694e-39
3.98150941e-39
7.426307259e-39
1.402049783e-38
2.93349827e-38
7.033996536e-38
1.563158247e-37
3.000166269e-37
5.197468482e-37
8.953079487e-37
1.449205508e-36
2.295237211e-36
3.043431105e-36
3.529907827e-36
3.635854555e-36
3.874784484e-36
3.94305853e-36
3.801404269e-36
3.96168197e-36
4.142831589e-36
4.60939928e-36
4.977439246e-36
4.737676502e-36
5.067342772e-36
5.275014516e-36
5.569038753e-36
5.72857249e-36
5.596505889e-36
5.216522508e-36
5.540766729e-38
4.728946692e-38
4.43414913e-38
3.46603876e-38
2.949170224e-38
2.311799072e-38
1.808909401e-38
1.424463244e-38
7.334836275e-39
6.086942356e-39
5.186416407e-39
4.093442317e-39
3.045356503e-39
2.325626849e-39
1.411110608e-39
8.638813014e-40
1.468316813e-39
7.659831917e-40
3.786341469e-40
2.539388775e-40
1.75308409e-40
1.6199461e-40
1.138727224e-40
7.174255593e-41
6.009114016e-41
4.633218737e-41
3.309410853e-41
2.618391598e-41
1.98721144e-41
1.773592913e-41
1.492221019e-41
9.684628828e-42
6.763691654e-42
6.956373932e-42
6.129885603e-42
5.179102434e-42
3.249636744e-42
6.088962319e-43
1.932693806e-43
4.815330725e-43
7.200330771e-43
1.955925178e-42
4.303055071e-42
4.481627354e-42
4.878743934e-42
5.550470141e-42
7.773882046e-42
9.654022674e-42
9.775053244e-42
5.555395189e-42
5.578371744e-42
9.120725068e-42
1.428324859e-41
1.670582e-41
2.920490454e-41
4.514094996e-41
6.32942642e-41
1.046550271e-40
1.440860371e-40
2.534378807e-40
4.342293537e-40
7.584542172e-40
1.374817438e-39
1.857919497e-39
2.501565201e-39
6.327335601e-39
1.535454072e-38
3.415971274e-38
6.865000359e-38
1.398815309e-37
3.535486014e-37
7.919530405e-37
1.389855032e-36
2.64170723e-36
6.055841601e-36
1.474616569e-35
3.019852964e-35
5.860236729e-35
1.003575441e-34
1.630397354e-34
2.805148738e-34
4.275190226e-34
5.505628905e-34
6.406038107e-34
6.213980939e-34
6.938075759e-34
7.105236723e-34
6.682869619e-34
6.956679904e-34
7.255085027e-34
8.112341846e-34
8.802782263e-34
8.819449325e-34
9.125449137e-34
9.088618438e-34
9.65196015e-34
9.88676058e-34
9.654995704e-34
8.905078935e-34
1.283784727e-35
1.027843941e-35
9.377397133e-36
8.498953633e-36
6.542850407e-36
4.958464299e-36
4.020444869e-36
3.162414391e-36
1.728256467e-36
1.380298888e-36
1.171912091e-36
9.157299957e-37
6.62626838e-37
5.1989171e-37
3.128823383e-37
1.916671479e-37
3.213915555e-37
1.804055764e-37
7.82259145e-38
5.743879904e-38
3.877032601e-38
3.540771214e-38
2.640847448e-38
1.711278867e-38
1.347003546e-38
1.046600289e-38
7.024334072e-39
5.99944742e-39
4.404649658e-39
3.885856571e-39
3.400125074e-39
2.225254004e-39
1.529679913e-39
1.560788978e-39
1.377750094e-39
1.187717963e-39
7.540637944e-40
1.298319584e-40
4.222283818e-41
1.152142297e-40
1.354483188e-40
3.8476319e-40
9.302980867e-40
9.794463413e-40
1.072773666e-39
1.191293076e-39
1.733098188e-39
2.171601756e-39
2.247816564e-39
1.182631835e-39
1.264066499e-39
2.003602676e-39
2.927934132e-39
4.045841763e-39
6.310486864e-39
9.75736085e-39
1.434194801e-38
2.270988947e-38
2.856556567e-38
5.560089715e-38
9.191586437e-38
1.589626408e-37
2.885906198e-37
3.998145002e-37
5.032961341e-37
1.308581577e-36
3.06971435e-36
6.860566688e-36
1.315055898e-35
2.612272135e-35
6.906957966e-35
1.637664407e-34
2.739400037e-34
5.191482058e-34
1.177864011e-33
2.855674689e-33
5.860180837e-33
1.14657521e-32
1.835535676e-32
2.926130751e-32
5.222425032e-32
7.911878826e-32
9.56120287e-32
1.162401227e-31
1.198998033e-31
1.250230603e-31
1.282428972e-31
1.132933953e-31
1.215784075e-31
1.272743692e-31
1.428026985e-31
1.552507108e-31
1.580300915e-31
1.607536198e-31
1.503678087e-31
1.617938763e-31
1.667543567e-31
1.641297727e-31
1.524014254e-31
2.65385789e-33
2.334857153e-33
2.138494976e-33
1.851047094e-33
1.464291904e-33
1.074329955e-33
9.448983291e-34
7.072005901e-34
3.900348816e-34
3.107838763e-34
2.672283735e-34
1.95530375e-34
1.38253249e-34
1.161554668e-34
6.867848122e-35
4.286785568e-35
7.32155032e-35
3.964266287e-35
1.68385874e-35
1.298232878e-35
8.656151606e-36
7.701256204e-36
5.88203305e-36
3.912962398e-36
3.037747226e-36
2.424733615e-36
1.636219348e-36
1.331814988e-36
9.733338067e-37
8.466546402e-37
7.479785082e-37
5.071089017e-37
3.48569961e-37
3.464390923e-37
3.145475759e-37
2.804297087e-37
1.723035268e-37
2.713659479e-38
9.530748926e-39
2.930357839e-38
2.595179545e-38
7.282872708e-38
2.014866702e-37
2.13802367e-37
2.364040734e-37
2.50275832e-37
3.838721253e-37
5.178176294e-37
5.124032113e-37
2.512044578e-37
2.772652584e-37
4.393484906e-37
6.956125423e-37
8.436892544e-37
1.321380632e-36
2.114519814e-36
3.28860483e-36
4.900064349e-36
6.847981115e-36
1.220594708e-35
1.941713332e-35
3.372369818e-35
6.040720843e-35
7.934251744e-35
1.011864957e-34
2.702956096e-34
6.097117805e-34
1.370706054e-33
2.867902607e-33
5.155459121e-33
1.349017646e-32
3.211193268e-32
6.228629652e-32
9.760893503e-32
2.218781253e-31
5.504971213e-31
1.113024034e-30
2.22485996e-30
3.304250789e-30
5.066320178e-30
9.722996802e-30
1.460949327e-29
1.922423205e-29
2.115808726e-29
2.265187419e-29
2.227765285e-29
2.301199664e-29
2.191289404e-29
2.145013985e-29
2.210444257e-29
2.50802118e-29
2.721905793e-29
2.803993147e-29
2.824002269e-29
2.684582378e-29
2.797788129e-29
2.828430561e-29
2.747683071e-29
2.620676724e-29
6.060894382e-31
5.142640706e-31
4.563689652e-31
3.986747292e-31
3.037815269e-31
2.36405799e-31
2.067422258e-31
1.57883191e-31
8.732451882e-32
6.966759958e-32
5.962041504e-32
4.296650014e-32
3.202489216e-32
2.59876267e-32
1.486880874e-32
9.486269329e-33
1.771883343e-32
9.459565822e-33
3.923151094e-33
2.9438189e-33
1.918272927e-33
1.715290764e-33
1.369554597e-33
9.128522101e-34
6.963037067e-34
5.623011693e-34
3.587615402e-34
2.926254125e-34
2.174614262e-34
1.828532941e-34
1.615409194e-34
1.140836444e-34
7.976846479e-35
7.743244194e-35
7.192325786e-35
6.395947229e-35
3.96251562e-35
5.807492842e-36
2.199020843e-36
7.896350917e-36
5.177299106e-36
1.364387527e-35
4.495817591e-35
4.638418722e-35
5.235827898e-35
5.174799934e-35
8.44968659e-35
1.177009986e-34
1.157895498e-34
5.557673189e-35
6.107821149e-35
9.480525274e-35
1.527021894e-34
1.870648707e-34
2.797698514e-34
4.597756865e-34
7.15144653e-34
1.03514295e-33
1.397755756e-33
2.659805976e-33
4.121470356e-33
7.084479435e-33
1.269386351e-32
1.850246943e-32
2.022283371e-32
5.546713357e-32
1.256035044e-31
2.731276501e-31
5.821889492e-31
9.672330461e-31
2.640321891e-30
6.055482322e-30
1.230071554e-29
1.953491028e-29
4.215569929e-29
1.054543284e-28
2.076771695e-28
4.282785246e-28
7.466973449e-28
1.001416691e-27
1.825031863e-27
2.686225484e-27
3.579495306e-27
3.67173869e-27
4.076929706e-27
3.799959431e-27
4.054718247e-27
3.926151199e-27
3.751267693e-27
3.876353564e-27
4.453007935e-27
4.761603793e-27
4.963220132e-27
4.928953434e-27
4.625113759e-27
4.852096042e-27
4.865744288e-27
4.575240763e-27
4.373839796e-27
1.445237547e-28
1.11026342e-28
9.627193335e-29
8.596335724e-29
7.451542826e-29
5.262152126e-29
4.312561114e-29
3.544335075e-29
1.940854894e-29
1.540621282e-29
1.293712668e-29
1.008550663e-29
7.104016877e-30
5.793819679e-30
3.331287613e-30
2.082971324e-30
4.000779861e-30
2.042495062e-30
1.035149764e-30
6.793998547e-31
4.321023882e-31
3.693206649e-31
3.078420539e-31
2.117036003e-31
1.596547588e-31
1.270413803e-31
7.778187832e-32
6.370315597e-32
4.908312069e-32
3.988137862e-32
3.722537303e-32
2.563799488e-32
1.90858921e-32
1.768084917e-32
1.603037803e-32
1.45280526e-32
9.144903018e-33
1.177062076e-33
5.85492634e-34
2.231704755e-33
1.09175572e-33
2.874480078e-33
9.901807239e-33
9.80154901e-33
1.164212788e-32
1.117215292e-32
1.848070587e-32
2.695913485e-32
2.588029773e-32
1.227266507e-32
1.36493559e-32
2.029626979e-32
3.328799096e-32
4.00783953e-32
6.149251201e-32
9.860290132e-32
1.560187055e-31
2.2259594e-31
2.784618208e-31
5.716390842e-31
8.85694045e-31
1.48562108e-30
2.720005951e-30
3.91351057e-30
3.934946396e-30
1.128908099e-29
2.566971793e-29
5.451327266e-29
1.187303829e-28
2.051043785e-28
5.248059461e-28
1.255007456e-27
2.425571456e-27
3.821131347e-27
8.084223233e-27
2.020093546e-26
3.892679607e-26
7.995526114e-26
1.456592603e-25
1.878295976e-25
3.450825129e-25
4.812886751e-25
6.515305079e-25
6.747117466e-25
7.439435305e-25
6.260020951e-25
7.015902048e-25
7.095918301e-25
6.523494286e-25
6.948826571e-25
7.916078393e-25
8.321805642e-25
8.591095512e-25
8.712094794e-25
7.551312987e-25
8.293342883e-25
8.330192949e-25
7.932264379e-25
7.364740141e-25
3.088032377e-26
2.776804707e-26
2.050627598e-26
1.875517846e-26
1.644714241e-26
1.198701547e-26
8.668482114e-27
7.934997583e-27
4.309538795e-27
3.281733728e-27
2.737714912e-27
2.235030196e-27
1.569974312e-27
1.281744203e-27
7.637416067e-28
4.565072991e-28
9.67910949e-28
4.303193216e-28
2.354750252e-28
1.476312355e-28
9.795208102e-29
7.88210437e-29
6.872340189e-29
4.756557661e-29
3.458416699e-29
2.843999693e-29
1.68420845e-29
1.376308592e-29
1.072180395e-29
8.968417171e-30
8.663342069e-30
5.75005383e-30
4.306983694e-30
4.114959276e-30
3.703515037e-30
3.282970994e-30
2.089652806e-30
2.34424987e-31
1.584094097e-31
7.123731075e-31
2.443421842e-31
5.868084602e-31
2.201059994e-30
1.908236804e-30
2.60194536e-30
2.253236112e-30
4.013144922e-30
5.981005528e-30
5.6489258e-30
2.749320423e-30
3.060692319e-30
4.779282646e-30
6.963643704e-30
8.782980243e-30
1.399140981e-29
2.129533418e-29
3.373355737e-29
5.118412941e-29
6.505517511e-29
1.221063784e-28
1.826100654e-28
3.060298801e-28
6.156958758e-28
8.383978733e-28
7.506542417e-28
2.309256295e-27
5.275908755e-27
1.089681866e-26
2.429946889e-26
4.399442612e-26
1.08670635e-25
2.554859177e-25
4.752319901e-25
7.56270327e-25
1.469728436e-24
3.835027394e-24
7.718296476e-24
1.463429187e-23
2.984510225e-23
3.393288465e-23
6.524814626e-23
9.357161587e-23
1.169648592e-22
1.297747756e-22
1.403243801e-22
1.175780701e-22
1.238588811e-22
1.307920824e-22
1.112157655e-22
1.254300502e-22
1.317619834e-22
1.412103646e-22
1.449795234e-22
1.472753066e-22
1.458761588e-22
1.478440252e-22
1.45701968e-22
1.36807983e-22
1.253497129e-22
7.190330483e-24
6.681934641e-24
4.871081463e-24
4.144602795e-24
3.599417102e-24
2.768599378e-24
1.692049354e-24
1.745475063e-24
9.532756191e-25
7.323166189e-25
6.580775292e-25
4.94824027e-25
3.407112276e-25
2.795881865e-25
1.641842761e-25
9.998035404e-26
2.178645567e-25
9.793375298e-26
5.238154437e-26
3.156602684e-26
2.195247182e-26
1.82581123e-26
1.524060673e-26
1.078079832e-26
8.205145331e-27
6.463680126e-27
3.71268404e-27
3.137876683e-27
2.297944922e-27
2.132464192e-27
1.902971618e-27
1.277581161e-27
9.572830485e-28
9.499175608e-28
8.438408738e-28
7.350631146e-28
4.781362496e-28
4.590861924e-29
4.032330268e-29
2.072171367e-28
6.304382467e-29
1.449154821e-28
4.936294489e-28
4.34256497e-28
5.80264761e-28
5.779135965e-28
8.781487676e-28
1.308655187e-27
1.358336651e-27
5.976613045e-28
6.642960146e-28
1.037139082e-27