/*--------------------------------*- C++ -*----------------------------------*\
| =========                 |                                                 |
| \\      /  F ield         | OpenFOAM: The Open Source CFD Toolbox           |
|  \\    /   O peration     | Version:  v1706                                 |
|   \\  /    A nd           | Web:      www.OpenFOAM.com                      |
|    \\/     M anipulation  |                                                 |
\*---------------------------------------------------------------------------*/
FoamFile
{
    version     2.0;
    format      ascii;
    class       volScalarField;
    location    "0.00272";
    object      N2;
}
// * * * * * * * * * * * * * * * * * * * * * * * * * * * * * * * * * * * * * //

dimensions      [0 0 0 0 0 0 0];


internalField   nonuniform List<scalar> 
11682
(
0.767
0.767
0.767
0.767
0.767
0.767
0.767
0.767
0.767
0.767
0.767
0.767
0.767
0.767
0.767
0.767
0.767
0.767
0.767
0.767
0.767
0.767
0.767
0.767
0.767
0.767
0.767
0.767
0.767
0.767
0.767
0.767
0.767
0.767
0.767
0.767
0.767
0.767
0.767
0.767
0.767
0.767
0.767
0.767
0.767
0.767
0.767
0.767
0.767
0.767
0.767
0.767
0.767
0.767
0.767
0.767
0.767
0.767
0.767
0.767
0.767
0.767
0.767
0.767
0.767
0.767
0.767
0.767
0.767
0.767
0.767
0.767
0.767
0.767
0.767
0.767
0.767
0.767
0.767
0.767
0.767
0.767
0.767
0.767
0.767
0.767
0.767
0.767
0.767
0.767
0.767
0.767
0.767
0.767
0.767
0.767
0.767
0.767
0.767
0.767
0.767
0.767
0.767
0.767
0.767
0.767
0.767
0.767
0.767
0.767
0.767
0.767
0.767
0.767
0.767
0.767
0.767
0.767
0.767
0.767
0.767
0.767
0.767
0.767
0.767
0.767
0.767
0.767
0.767
0.767
0.767
0.767
0.767
0.767
0.767
0.767
0.767
0.767
0.767
0.767
0.767
0.767
0.767
0.767
0.767
0.767
0.767
0.767
0.767
0.767
0.767
0.767
0.767
0.767
0.767
0.767
0.767
0.767
0.767
0.767
0.767
0.767
0.767
0.767
0.767
0.767
0.767
0.767
0.767
0.767
0.767
0.767
0.767
0.767
0.767
0.767
0.767
0.767
0.767
0.767
0.767
0.767
0.767
0.767
0.767
0.767
0.767
0.767
0.767
0.767
0.767
0.767
0.767
0.767
0.767
0.767
0.767
0.767
0.767
0.767
0.767
0.767
0.767
0.767
0.767
0.767
0.767
0.767
0.767
0.767
0.767
0.767
0.767
0.767
0.767
0.767
0.767
0.767
0.767
0.767
0.767
0.767
0.767
0.767
0.767
0.767
0.767
0.767
0.767
0.767
0.767
0.767
0.767
0.767
0.767
0.767
0.767
0.767
0.767
0.767
0.767
0.767
0.767
0.767
0.767
0.767
0.767
0.767
0.767
0.767
0.767
0.767
0.767
0.767
0.767
0.767
0.767
0.767
0.767
0.767
0.767
0.767
0.767
0.767
0.767
0.767
0.767
0.767
0.767
0.767
0.767
0.767
0.767
0.767
0.767
0.767
0.767
0.767
0.767
0.767
0.767
0.767
0.767
0.767
0.767
0.767
0.767
0.767
0.767
0.767
0.767
0.767
0.767
0.767
0.767
0.767
0.767
0.767
0.767
0.767
0.767
0.767
0.767
0.767
0.767
0.767
0.767
0.767
0.767
0.767
0.767
0.767
0.767
0.767
0.767
0.767
0.767
0.767
0.767
0.767
0.767
0.767
0.767
0.767
0.767
0.767
0.767
0.767
0.767
0.767
0.767
0.767
0.767
0.767
0.767
0.767
0.767
0.767
0.767
0.767
0.767
0.767
0.767
0.767
0.767
0.767
0.767
0.767
0.767
0.767
0.767
0.767
0.767
0.767
0.767
0.767
0.767
0.767
0.767
0.767
0.767
0.767
0.767
0.767
0.767
0.767
0.767
0.767
0.767
0.767
0.767
0.767
0.767
0.767
0.767
0.767
0.767
0.767
0.767
0.767
0.767
0.767
0.767
0.767
0.767
0.767
0.767
0.767
0.767
0.767
0.767
0.767
0.767
0.767
0.767
0.767
0.767
0.767
0.767
0.767
0.767
0.767
0.767
0.767
0.767
0.767
0.767
0.767
0.767
0.767
0.767
0.767
0.767
0.767
0.767
0.767
0.767
0.767
0.767
0.767
0.767
0.767
0.767
0.767
0.767
0.767
0.767
0.767
0.767
0.767
0.767
0.767
0.767
0.767
0.767
0.767
0.767
0.767
0.767
0.767
0.767
0.767
0.767
0.767
0.767
0.767
0.767
0.767
0.767
0.767
0.767
0.767
0.767
0.767
0.767
0.767
0.767
0.767
0.767
0.767
0.767
0.767
0.767
0.767
0.767
0.767
0.767
0.767
0.767
0.767
0.767
0.767
0.767
0.767
0.767
0.767
0.767
0.767
0.767
0.767
0.767
0.767
0.767
0.767
0.767
0.767
0.767
0.767
0.767
0.767
0.767
0.767
0.767
0.767
0.767
0.767
0.767
0.767
0.767
0.767
0.767
0.767
0.767
0.767
0.767
0.767
0.767
0.767
0.767
0.767
0.767
0.767
0.767
0.767
0.767
0.767
0.767
0.767
0.767
0.767
0.767
0.767
0.767
0.767
0.767
0.767
0.767
0.767
0.767
0.767
0.767
0.767
0.767
0.767
0.767
0.767
0.767
0.767
0.767
0.767
0.767
0.767
0.767
0.767
0.767
0.767
0.767
0.767
0.767
0.767
0.767
0.767
0.767
0.767
0.767
0.767
0.767
0.767
0.767
0.767
0.767
0.767
0.767
0.767
0.767
0.767
0.767
0.767
0.767
0.767
0.767
0.767
0.767
0.767
0.767
0.767
0.767
0.767
0.767
0.767
0.767
0.767
0.767
0.767
0.767
0.767
0.767
0.767
0.767
0.767
0.767
0.767
0.767
0.767
0.767
0.767
0.767
0.767
0.767
0.767
0.767
0.767
0.767
0.767
0.767
0.767
0.767
0.767
0.767
0.767
0.767
0.767
0.767
0.767
0.767
0.767
0.767
0.767
0.767
0.767
0.767
0.767
0.767
0.767
0.767
0.767
0.767
0.767
0.767
0.767
0.767
0.767
0.767
0.767
0.767
0.767
0.767
0.767
0.767
0.767
0.767
0.767
0.767
0.767
0.767
0.767
0.767
0.767
0.767
0.767
0.767
0.767
0.767
0.767
0.767
0.767
0.767
0.767
0.767
0.767
0.767
0.767
0.767
0.767
0.767
0.767
0.767
0.767
0.767
0.767
0.767
0.767
0.767
0.767
0.767
0.767
0.767
0.767
0.767
0.767
0.767
0.767
0.767
0.767
0.767
0.767
0.767
0.767
0.767
0.767
0.767
0.767
0.767
0.767
0.767
0.767
0.767
0.767
0.767
0.767
0.767
0.767
0.767
0.767
0.767
0.767
0.767
0.767
0.767
0.767
0.767
0.767
0.767
0.767
0.767
0.767
0.767
0.767
0.767
0.767
0.767
0.767
0.767
0.767
0.767
0.767
0.767
0.767
0.767
0.767
0.767
0.767
0.767
0.767
0.767
0.767
0.767
0.767
0.767
0.767
0.767
0.767
0.767
0.767
0.767
0.767
0.767
0.767
0.767
0.767
0.767
0.767
0.767
0.767
0.767
0.767
0.767
0.767
0.767
0.767
0.767
0.767
0.767
0.767
0.767
0.767
0.767
0.767
0.767
0.767
0.767
0.767
0.767
0.767
0.767
0.767
0.767
0.767
0.767
0.767
0.767
0.767
0.767
0.767
0.767
0.767
0.767
0.767
0.767
0.767
0.767
0.767
0.767
0.767
0.767
0.767
0.767
0.767
0.767
0.767
0.767
0.767
0.767
0.767
0.767
0.767
0.767
0.767
0.767
0.767
0.767
0.767
0.767
0.767
0.767
0.767
0.767
0.767
0.767
0.767
0.767
0.767
0.767
0.767
0.767
0.767
0.767
0.767
0.767
0.767
0.767
0.767
0.767
0.767
0.767
0.767
0.767
0.767
0.767
0.767
0.767
0.767
0.767
0.767
0.767
0.767
0.767
0.767
0.767
0.767
0.767
0.767
0.767
0.767
0.767
0.767
0.767
0.767
0.767
0.767
0.767
0.767
0.767
0.767
0.767
0.767
0.767
0.767
0.767
0.767
0.767
0.767
0.767
0.767
0.767
0.767
0.767
0.767
0.767
0.767
0.767
0.767
0.767
0.767
0.767
0.767
0.767
0.767
0.767
0.767
0.767
0.767
0.767
0.767
0.767
0.767
0.767
0.767
0.767
0.767
0.767
0.767
0.767
0.767
0.767
0.767
0.767
0.767
0.767
0.767
0.767
0.767
0.767
0.767
0.767
0.767
0.767
0.767
0.767
0.767
0.767
0.767
0.767
0.767
0.767
0.767
0.767
0.767
0.767
0.767
0.767
0.767
0.767
0.767
0.767
0.767
0.767
0.767
0.767
0.767
0.767
0.767
0.767
0.767
0.767
0.767
0.767
0.767
0.767
0.767
0.767
0.767
0.767
0.767
0.767
0.767
0.767
0.767
0.767
0.767
0.767
0.767
0.767
0.767
0.767
0.767
0.767
0.767
0.767
0.767
0.767
0.767
0.767
0.767
0.767
0.767
0.767
0.767
0.767
0.767
0.767
0.767
0.767
0.767
0.767
0.767
0.767
0.767
0.767
0.767
0.767
0.767
0.767
0.767
0.767
0.767
0.767
0.767
0.767
0.767
0.767
0.767
0.767
0.767
0.767
0.767
0.767
0.767
0.767
0.767
0.767
0.767
0.767
0.767
0.767
0.767
0.767
0.767
0.767
0.767
0.767
0.767
0.767
0.767
0.767
0.767
0.767
0.767
0.767
0.767
0.767
0.767
0.767
0.767
0.767
0.767
0.767
0.767
0.767
0.767
0.767
0.767
0.767
0.767
0.767
0.767
0.767
0.767
0.767
0.767
0.767
0.767
0.767
0.767
0.767
0.767
0.767
0.767
0.767
0.767
0.767
0.767
0.767
0.767
0.767
0.767
0.767
0.767
0.767
0.767
0.767
0.767
0.767
0.767
0.767
0.767
0.767
0.767
0.767
0.767
0.767
0.767
0.767
0.767
0.767
0.767
0.767
0.767
0.767
0.767
0.767
0.767
0.767
0.767
0.767
0.767
0.767
0.767
0.767
0.767
0.767
0.767
0.767
0.767
0.767
0.767
0.767
0.767
0.767
0.767
0.767
0.767
0.767
0.767
0.767
0.767
0.767
0.767
0.767
0.767
0.767
0.767
0.767
0.767
0.767
0.767
0.767
0.767
0.767
0.767
0.767
0.767
0.767
0.767
0.767
0.767
0.767
0.767
0.767
0.767
0.767
0.767
0.767
0.767
0.767
0.767
0.767
0.767
0.767
0.767
0.767
0.767
0.767
0.767
0.767
0.767
0.767
0.767
0.767
0.767
0.767
0.767
0.767
0.767
0.767
0.767
0.767
0.767
0.767
0.767
0.767
0.767
0.767
0.767
0.767
0.767
0.767
0.767
0.767
0.767
0.767
0.767
0.767
0.767
0.767
0.767
0.767
0.767
0.767
0.767
0.767
0.767
0.767
0.767
0.767
0.767
0.767
0.767
0.767
0.767
0.767
0.767
0.767
0.767
0.767
0.767
0.767
0.767
0.767
0.767
0.767
0.767
0.767
0.767
0.767
0.767
0.767
0.767
0.767
0.767
0.767
0.767
0.767
0.767
0.767
0.767
0.767
0.767
0.767
0.767
0.767
0.767
0.767
0.767
0.767
0.767
0.767
0.767
0.767
0.767
0.767
0.767
0.767
0.767
0.767
0.767
0.767
0.767
0.767
0.767
0.767
0.767
0.767
0.767
0.767
0.767
0.767
0.767
0.767
0.767
0.767
0.767
0.767
0.767
0.767
0.767
0.767
0.767
0.767
0.767
0.767
0.767
0.767
0.767
0.767
0.767
0.767
0.767
0.767
0.767
0.767
0.767
0.767
0.767
0.767
0.767
0.767
0.767
0.767
0.767
0.767
0.767
0.767
0.767
0.767
0.767
0.767
0.767
0.767
0.767
0.767
0.767
0.767
0.767
0.767
0.767
0.767
0.767
0.767
0.767
0.767
0.767
0.767
0.767
0.767
0.767
0.767
0.767
0.767
0.767
0.767
0.767
0.767
0.767
0.767
0.767
0.767
0.767
0.767
0.767
0.767
0.767
0.767
0.767
0.767
0.767
0.767
0.767
0.767
0.767
0.767
0.767
0.767
0.767
0.767
0.767
0.767
0.767
0.767
0.767
0.767
0.767
0.767
0.767
0.767
0.767
0.767
0.767
0.767
0.767
0.767
0.767
0.767
0.767
0.767
0.767
0.767
0.767
0.767
0.767
0.767
0.767
0.767
0.767
0.767
0.767
0.767
0.767
0.767
0.767
0.767
0.767
0.767
0.767
0.767
0.767
0.767
0.767
0.767
0.767
0.767
0.767
0.767
0.767
0.767
0.767
0.767
0.767
0.767
0.767
0.767
0.767
0.767
0.767
0.767
0.767
0.767
0.767
0.767
0.767
0.767
0.767
0.767
0.767
0.767
0.767
0.767
0.767
0.767
0.767
0.767
0.767
0.767
0.767
0.767
0.767
0.767
0.767
0.767
0.767
0.767
0.767
0.767
0.767
0.767
0.767
0.767
0.767
0.767
0.767
0.767
0.767
0.767
0.767
0.767
0.767
0.767
0.767
0.767
0.767
0.767
0.767
0.767
0.767
0.767
0.767
0.767
0.767
0.767
0.767
0.767
0.767
0.767
0.767
0.767
0.767
0.767
0.767
0.767
0.767
0.767
0.767
0.767
0.767
0.767
0.767
0.767
0.767
0.767
0.767
0.767
0.767
0.767
0.767
0.767
0.767
0.767
0.767
0.767
0.767
0.767
0.767
0.767
0.767
0.767
0.767
0.767
0.767
0.767
0.767
0.767
0.767
0.767
0.767
0.767
0.767
0.767
0.767
0.767
0.767
0.767
0.767
0.767
0.767
0.767
0.767
0.767
0.767
0.767
0.767
0.767
0.767
0.767
0.767
0.767
0.767
0.767
0.767
0.767
0.767
0.767
0.767
0.767
0.767
0.767
0.767
0.767
0.767
0.767
0.767
0.767
0.767
0.767
0.767
0.767
0.767
0.767
0.767
0.767
0.767
0.767
0.767
0.767
0.767
0.767
0.767
0.767
0.767
0.767
0.767
0.767
0.767
0.767
0.767
0.767
0.767
0.767
0.767
0.767
0.767
0.767
0.767
0.767
0.767
0.767
0.767
0.767
0.767
0.767
0.767
0.767
0.767
0.767
0.767
0.767
0.767
0.767
0.767
0.767
0.767
0.767
0.767
0.767
0.767
0.767
0.767
0.767
0.767
0.767
0.767
0.767
0.767
0.767
0.767
0.767
0.767
0.767
0.767
0.767
0.767
0.767
0.767
0.767
0.767
0.767
0.767
0.767
0.767
0.767
0.767
0.767
0.767
0.767
0.767
0.767
0.767
0.767
0.767
0.767
0.767
0.767
0.767
0.767
0.767
0.767
0.767
0.767
0.767
0.767
0.767
0.767
0.767
0.767
0.767
0.767
0.767
0.767
0.767
0.767
0.767
0.767
0.767
0.767
0.767
0.767
0.767
0.767
0.767
0.767
0.767
0.767
0.767
0.767
0.767
0.767
0.767
0.767
0.767
0.767
0.767
0.767
0.767
0.767
0.767
0.767
0.767
0.767
0.767
0.767
0.767
0.767
0.767
0.767
0.767
0.767
0.767
0.767
0.767
0.767
0.767
0.767
0.767
0.767
0.767
0.767
0.767
0.767
0.767
0.767
0.767
0.767
0.767
0.767
0.767
0.767
0.767
0.767
0.767
0.767
0.767
0.767
0.767
0.767
0.767
0.767
0.767
0.767
0.767
0.767
0.767
0.767
0.767
0.767
0.767
0.767
0.767
0.767
0.767
0.767
0.767
0.767
0.767
0.767
0.767
0.767
0.767
0.767
0.767
0.767
0.767
0.767
0.767
0.767
0.767
0.767
0.767
0.767
0.767
0.767
0.767
0.767
0.767
0.767
0.767
0.767
0.767
0.767
0.767
0.767
0.767
0.767
0.767
0.767
0.767
0.767
0.767
0.767
0.767
0.767
0.767
0.767
0.767
0.767
0.767
0.767
0.767
0.767
0.767
0.767
0.767
0.767
0.767
0.767
0.767
0.767
0.767
0.767
0.767
0.767
0.767
0.767
0.767
0.767
0.767
0.767
0.767
0.767
0.767
0.767
0.767
0.767
0.767
0.767
0.767
0.767
0.767
0.767
0.767
0.767
0.767
0.767
0.767
0.767
0.767
0.767
0.767
0.767
0.767
0.767
0.767
0.767
0.767
0.767
0.767
0.767
0.767
0.767
0.767
0.767
0.767
0.767
0.767
0.767
0.767
0.767
0.767
0.767
0.767
0.767
0.767
0.767
0.767
0.767
0.767
0.767
0.767
0.767
0.767
0.767
0.767
0.767
0.767
0.767
0.767
0.767
0.767
0.767
0.767
0.767
0.767
0.767
0.767
0.767
0.767
0.767
0.767
0.767
0.767
0.767
0.767
0.767
0.767
0.767
0.767
0.767
0.767
0.767
0.767
0.767
0.767
0.767
0.767
0.767
0.767
0.767
0.767
0.767
0.767
0.767
0.767
0.767
0.767
0.767
0.767
0.767
0.767
0.767
0.767
0.767
0.767
0.767
0.767
0.767
0.767
0.767
0.767
0.767
0.767
0.767
0.767
0.767
0.767
0.767
0.767
0.767
0.767
0.767
0.767
0.767
0.767
0.767
0.767
0.767
0.767
0.767
0.767
0.767
0.767
0.767
0.767
0.767
0.767
0.767
0.767
0.767
0.767
0.767
0.767
0.767
0.767
0.767
0.767
0.767
0.767
0.767
0.767
0.767
0.767
0.767
0.767
0.767
0.767
0.767
0.767
0.767
0.767
0.767
0.767
0.767
0.7669999999
0.7669999999
0.7669999999
0.7669999999
0.7669999999
0.7669999998
0.7669999998
0.7669999998
0.7669999998
0.7669999998
0.7669999998
0.7669999998
0.7669999998
0.7669999998
0.7669999998
0.7669999998
0.7669999998
0.7669999998
0.7669999998
0.7669999998
0.7669999998
0.767
0.767
0.767
0.767
0.767
0.767
0.767
0.767
0.767
0.767
0.767
0.767
0.767
0.767
0.767
0.767
0.767
0.767
0.767
0.767
0.767
0.767
0.767
0.767
0.767
0.767
0.767
0.767
0.767
0.767
0.767
0.767
0.767
0.767
0.767
0.767
0.767
0.767
0.767
0.767
0.767
0.767
0.767
0.767
0.767
0.767
0.767
0.767
0.767
0.767
0.767
0.767
0.767
0.767
0.767
0.767
0.767
0.767
0.767
0.767
0.767
0.767
0.767
0.767
0.767
0.767
0.767
0.767
0.767
0.767
0.767
0.7669999999
0.7669999999
0.7669999998
0.7669999997
0.7669999995
0.7669999992
0.7669999988
0.766999998
0.7669999976
0.7669999967
0.7669999959
0.7669999949
0.7669999944
0.7669999943
0.7669999943
0.7669999945
0.7669999945
0.7669999946
0.7669999945
0.7669999944
0.7669999944
0.7669999944
0.7669999945
0.7669999945
0.7669999946
0.7669999947
0.7669999948
0.766999995
0.7669999985
0.7669999986
0.7669999988
0.766999999
0.7669999991
0.7669999992
0.7669999994
0.7669999995
0.7669999996
0.7669999997
0.7669999997
0.7669999998
0.7669999998
0.7669999999
0.7669999999
0.7669999999
0.7669999999
0.7669999999
0.767
0.767
0.767
0.767
0.767
0.767
0.767
0.767
0.767
0.767
0.767
0.767
0.767
0.767
0.767
0.767
0.767
0.767
0.767
0.767
0.767
0.767
0.767
0.767
0.767
0.767
0.767
0.767
0.767
0.767
0.767
0.767
0.767
0.767
0.767
0.767
0.767
0.767
0.767
0.767
0.767
0.767
0.767
0.767
0.7669999999
0.7669999999
0.7669999999
0.7669999998
0.7669999997
0.7669999996
0.7669999993
0.766999999
0.7669999982
0.7669999969
0.7669999961
0.7669999931
0.7669999888
0.766999982
0.7669999714
0.7669999558
0.7669999237
0.7669999113
0.7669998742
0.7669998466
0.7669998136
0.7669997977
0.7669997939
0.7669997965
0.7669998045
0.7669998092
0.7669998092
0.7669998078
0.7669998068
0.7669998067
0.7669998078
0.7669998101
0.7669998136
0.766999818
0.766999823
0.7669998286
0.7669998348
0.7669999372
0.7669999422
0.7669999522
0.7669999601
0.766999965
0.7669999697
0.7669999746
0.76699998
0.7669999839
0.7669999866
0.7669999888
0.7669999913
0.7669999929
0.7669999941
0.7669999953
0.7669999963
0.766999997
0.7669999974
0.766999998
0.7669999985
0.7669999988
0.766999999
0.7669999991
0.7669999993
0.7669999994
0.7669999995
0.7669999996
0.7669999997
0.7669999997
0.7669999998
0.7669999998
0.7669999998
0.7669999999
0.7669999999
0.7669999999
0.7669999999
0.7669999999
0.7669999999
0.7669999999
0.7669999999
0.7669999999
0.7669999999
0.7669999999
0.7669999999
0.7669999999
0.7669999999
0.7669999999
0.7669999999
0.7669999999
0.7669999999
0.7669999999
0.7669999999
0.7669999998
0.7669999998
0.7669999998
0.7669999997
0.7669999996
0.7669999995
0.7669999993
0.7669999991
0.7669999987
0.7669999984
0.7669999976
0.7669999965
0.7669999959
0.7669999937
0.7669999902
0.7669999842
0.766999972
0.7669999619
0.766999928
0.766999879
0.7669998411
0.7669997225
0.7669995511
0.7669992829
0.7669988711
0.766998235
0.7669971547
0.7669967435
0.766995558
0.7669946609
0.7669935906
0.7669932002
0.766993105
0.7669932621
0.7669936143
0.7669938003
0.7669938006
0.7669937605
0.7669937417
0.7669937647
0.76699383
0.7669939384
0.7669940852
0.7669942607
0.7669944554
0.7669946624
0.7669948833
0.7669973756
0.7669975489
0.7669979202
0.7669982638
0.7669984764
0.7669986817
0.7669988945
0.7669991279
0.7669993018
0.7669994179
0.7669995113
0.7669996212
0.7669996915
0.7669997448
0.7669997948
0.7669998409
0.7669998695
0.766999892
0.766999913
0.7669999362
0.7669999504
0.7669999578
0.7669999633
0.7669999722
0.7669999769
0.7669999805
0.7669999847
0.7669999878
0.7669999898
0.7669999909
0.7669999921
0.7669999936
0.7669999945
0.7669999948
0.7669999949
0.7669999953
0.7669999959
0.7669999966
0.7669999968
0.7669999965
0.7669999965
0.7669999965
0.766999997
0.7669999971
0.7669999971
0.7669999971
0.7669999969
0.7669999967
0.7669999965
0.7669999962
0.7669999959
0.7669999952
0.7669999937
0.7669999932
0.766999991
0.7669999884
0.7669999845
0.7669999788
0.766999973
0.7669999654
0.76699995
0.7669999362
0.7669999013
0.7669998559
0.7669998293
0.7669997358
0.7669995872
0.7669993356
0.7669988485
0.7669984147
0.7669971733
0.7669954456
0.766993992
0.766989534
0.766983214
0.7669733859
0.7669584357
0.7669351022
0.7668986257
0.7668847805
0.7668441055
0.7668154124
0.766783781
0.7667716307
0.7667709482
0.7667787831
0.7667933915
0.7667999542
0.7667995331
0.7667983374
0.7667983043
0.7667999618
0.7668030982
0.7668077296
0.7668136012
0.7668203257
0.7668275517
0.7668350207
0.766842755
0.7668945789
0.7669014987
0.7669162658
0.766929992
0.7669385009
0.7669467966
0.7669553557
0.7669647605
0.7669717988
0.7669764932
0.7669802386
0.7669846912
0.7669875205
0.7669896783
0.766991705
0.7669935757
0.7669947174
0.7669956284
0.766996503
0.7669973207
0.7669978437
0.7669981615
0.7669984079
0.7669987852
0.7669989922
0.7669991522
0.7669993364
0.7669994704
0.766999557
0.7669996049
0.7669996558
0.7669997247
0.7669997627
0.7669997721
0.7669997798
0.7669997965
0.7669998252
0.7669998502
0.7669998544
0.7669998455
0.7669998483
0.7669998557
0.766999871
0.7669998782
0.7669998762
0.7669998769
0.7669998684
0.766999859
0.7669998551
0.7669998383
0.7669998239
0.7669997943
0.7669997319
0.7669997085
0.7669996145
0.7669995025
0.7669993377
0.7669990987
0.7669988563
0.7669985297
0.7669978851
0.7669973891
0.7669961039
0.7669944963
0.7669933016
0.7669896896
0.7669839103
0.7669740489
0.7669558552
0.7669389796
0.7668913456
0.7668300378
0.7667744021
0.766614509
0.7663959822
0.7660795074
0.7656362591
0.7650118554
0.7642741637
0.763955685
0.7633114908
0.7627908275
0.76234816
0.7622038438
0.762238566
0.762390039
0.7626271913
0.7627076272
0.7626806437
0.7626588843
0.7626656409
0.7627037832
0.7627674464
0.7628554796
0.76296344
0.7630854933
0.7632162054
0.7633518063
0.7634888555
0.7640149291
0.7641595908
0.7644814617
0.7647913989
0.7650056435
0.7652264706
0.765466419
0.7657466695
0.7659775707
0.7661312273
0.7662536717
0.7664108615
0.7665136714
0.76659451
0.7666718368
0.7667445504
0.7667882663
0.7668244474
0.7668593872
0.7668921728
0.7669130011
0.7669256581
0.7669358864
0.7669506121
0.7669591932
0.766965647
0.7669732582
0.7669786432
0.7669821061
0.7669839881
0.7669860582
0.766988926
0.7669904286
0.7669907615
0.7669910714
0.7669917663
0.7669929674
0.7669939917
0.7669941177
0.7669934934
0.7669937784
0.7669939486
0.7669947934
0.766995114
0.7669950203
0.7669950511
0.7669947064
0.7669943598
0.766994226
0.7669935238
0.766992922
0.7669917339
0.7669892975
0.7669883645
0.7669845849
0.7669801445
0.7669735811
0.7669642531
0.7669548929
0.7669418301
0.766916986
0.7668974821
0.7668472193
0.7667920406
0.7667402773
0.7666064432
0.7663980402
0.7660607594
0.7655234184
0.7650663281
0.7640319366
0.7628156759
0.7618351771
0.7598906549
0.7575833402
0.7552559618
0.7525756959
0.7495521153
0.7471148808
0.7461014663
0.7441081664
0.7425700049
0.7414430395
0.7411401213
0.7413014338
0.7417876942
0.7423468379
0.7424533646
0.7422794896
0.7421993245
0.742235506
0.7423707393
0.742580341
0.7428600798
0.7432031299
0.7435931952
0.744011366
0.7444476854
0.7448848722
0.7462415884
0.7467317114
0.7478602766
0.7487944392
0.7496850238
0.7506675744
0.7518298822
0.7533374777
0.7551052754
0.7560980338
0.7566937091
0.7578705779
0.7587929068
0.7596119591
0.76050136
0.7614454391
0.7620829194
0.7626620802
0.7633117823
0.7639517251
0.764398925
0.7646898929
0.7649349991
0.765323159
0.7655736742
0.7657697274
0.7660246086
0.7661999492
0.7663182748
0.7663833257
0.7664588678
0.7665682486
0.7666236086
0.7666343125
0.7666462491
0.7666736381
0.7667217339
0.7667620217
0.7667656124
0.7667385379
0.7667489868
0.7667456171
0.7667909527
0.7668054456
0.7668012516
0.7668035679
0.7667883641
0.766776378
0.7667721935
0.7667442396
0.7667197632
0.7666741039
0.7665851958
0.7665482074
0.7664120439
0.7662535053
0.7660289206
0.7657604279
0.7654946016
0.7650837004
0.7645190134
0.7640466549
0.7630892934
0.7621347101
0.7612833823
0.7596192645
0.7575408482
0.754951687
0.7519493878
0.7499836573
0.7457049992
0.7416848801
0.7387497596
0.7340911242
0.7292637513
0.7253865412
0.7210702701
0.716572712
0.7141819101
0.7130495217
0.7104171462
0.70832371
0.7069112114
0.7065921626
0.7068864154
0.7076452117
0.708093209
0.7080624247
0.7077567858
0.7076472385
0.7077164491
0.7079138057
0.7082050422
0.7085872172
0.7090634234
0.7096161629
0.7101884323
0.7107875469
0.71139521
0.7130585531
0.7137127179
0.7152155615
0.7156893499
0.7169494705
0.718393507
0.7201586409
0.7225671729
0.7269928178
0.7287030471
0.7285549016
0.7303124881
0.7320109333
0.7336894231
0.73571185
0.7380259592
0.7397162074
0.7413689468
0.7437219912
0.745838036
0.7474272417
0.7485070927
0.749294839
0.7509679452
0.7522698249
0.7533615993
0.7553017543
0.7562517081
0.7570608547
0.7575666318
0.7582240038
0.7593030128
0.7598796797
0.759976995
0.7601163338
0.7604596543
0.761093062
0.7616658316
0.7616913205
0.7615833323
0.7615401325
0.7616847793
0.7621563549
0.7623209674
0.762231972
0.7622669244
0.7620363305
0.761843681
0.7617882153
0.7613657651
0.7610053021
0.7604074938
0.7594308541
0.758965563
0.7577078011
0.7563747385
0.7547698349
0.7535162528
0.7521077666
0.7497194306
0.7474584003
0.745655145
0.7422323423
0.7394382396
0.7370119958
0.7331676179
0.7289304147
0.7244306438
0.7200355931
0.7179056654
0.7110179308
0.7050669297
0.7008001694
0.694866961
0.6888127177
0.6846951773
0.6795741138
0.673954794
0.6687512973
0.6664118254
0.6631632402
0.6606128471
0.6589398105
0.6586292837
0.6591472909
0.6603525136
0.6621861433
0.6629632618
0.6630700402
0.6632801084
0.6637485651
0.6643220482
0.6649578569
0.6656589689
0.6664410486
0.6673947333
0.6682208521
0.6690848888
0.6699397719
0.6708275353
0.6716323426
0.6734931352
0.6728319596
0.6743860766
0.676165396
0.678324612
0.6812134279
0.6828949657
0.6848768682
0.6873702802
0.6901882284
0.6922135747
0.694263507
0.6969057163
0.7000098283
0.7022490641
0.70456819
0.7088259013
0.711909673
0.7141341475
0.7156047101
0.7159085416
0.7183201871
0.7203560864
0.7220996913
0.7268945256
0.7274685586
0.7285414095
0.7293751925
0.7305545652
0.7327383535
0.7338797889
0.7340434206
0.7343467516
0.7351690634
0.7367421242
0.738188837
0.7381930714
0.7377451066
0.7378455489
0.738366784
0.7395280678
0.7399234613
0.7396409226
0.7397109292
0.7390730093
0.7385546504
0.738390982
0.7372230428
0.7362302216
0.7348029554
0.7326931991
0.7316639274
0.7293023693
0.7267749533
0.7240912348
0.7234052475
0.7211564282
0.7162283517
0.7131860158
0.7106317776
0.7050667928
0.70120693
0.6977451627
0.692951491
0.6878510368
0.6828334817
0.6769526596
0.6712466753
0.6662313771
0.6586250042
0.6527105368
0.6447370572
0.6368642766
0.6313382047
0.6249751194
0.6181563872
0.6121100814
0.6092299211
0.6054910328
0.602791508
0.6012297587
0.6010387449
0.6018014857
0.6033558585
0.6055535067
0.6063876506
0.6066872058
0.607109329
0.6079856219
0.6088101715
0.6096855381
0.610571507
0.6117586001
0.6130875342
0.614180011
0.615257
0.6164073763
0.6102323877
0.6112425724
0.6137296481
0.6174476954
0.6193773302
0.621524434
0.6241234256
0.6276367894
0.6297920603
0.6322129733
0.6352462761
0.6387575298
0.6412537391
0.6438799494
0.6474171639
0.6515483202
0.6545107681
0.6575078969
0.6640013505
0.6685704215
0.6713978574
0.6732182815
0.672275955
0.6752395435
0.6777536413
0.6798270235
0.6820465159
0.6852800689
0.6873264176
0.688416915
0.689828882
0.692335965
0.6936243642
0.6937675962
0.6941147481
0.6951859534
0.6973439619
0.6992621476
0.6991941667
0.6985744113
0.6987000493
0.6994356068
0.7010318999
0.7014973586
0.7010736276
0.7011407123
0.7002610269
0.6995539856
0.6992566769
0.6976962348
0.696305102
0.6944320213
0.6919357687
0.6906607301
0.6880892187
0.684974234
0.681504893
0.6777345583
0.6744736037
0.6721515848
0.668907963
0.6658959792
0.6577671104
0.6521418816
0.6476919559
0.6410424816
0.6349360915
0.6282624186
0.6209119858
0.6143577916
0.6057429006
0.5985210231
0.5923882615
0.5840426032
0.5763028216
0.5700150792
0.5634456434
0.5566048966
0.5509881406
0.548266926
0.5444945012
0.5423768659
0.5412095583
0.5413918982
0.5425117977
0.5443715498
0.5467405443
0.5475516341
0.5478810385
0.5485596409
0.5498924566
0.5509025086
0.5518338044
0.5531453747
0.554395334
0.5557360362
0.5571030872
0.5582753184
0.5595558756
0.5505184562
0.551529523
0.554155543
0.5578607043
0.5598663889
0.5621166762
0.5648352038
0.5684612238
0.5707096965
0.5732437202
0.5764131632
0.5800067503
0.5825377349
0.5852004467
0.5888022797
0.5930569894
0.5960709184
0.5991177889
0.6019794503
0.6062773444
0.6097716116
0.6121502245
0.6154337621
0.6192252857
0.6222226451
0.6247314311
0.6276418099
0.6315252152
0.6341123813
0.6354787061
0.6371947209
0.6403024512
0.6418634553
0.6419515987
0.6423997245
0.6438210084
0.6467552007
0.6493926723
0.6491221337
0.6483364918
0.6484660167
0.649452872
0.6516409003
0.652156887
0.6515417261
0.6516502979
0.6504075347
0.6494790052
0.6491107181
0.6468124705
0.6450205216
0.6424602395
0.6392304055
0.6378204831
0.6342551829
0.6305674743
0.6261418234
0.6213396666
0.6171715475
0.613202686
0.6071891228
0.6028021875
0.596855854
0.5912534795
0.5866089202
0.579778203
0.5732396893
0.5660919337
0.5584997654
0.5522240684
0.5429232699
0.5350870763
0.5295490808
0.5215846714
0.5146978494
0.5087680345
0.502838715
0.4966962396
0.4924015081
0.4904572782
0.4869460764
0.4856663571
0.4852129501
0.4858552867
0.4871539845
0.4897156041
0.4920616559
0.4929195483
0.4934162548
0.4943550733
0.4955066125
0.4968997472
0.497914557
0.4990456147
0.5005526749
0.5024509116
0.5037521442
0.504964079
0.5060287413
0.4904729857
0.4914513579
0.4941410562
0.497655263
0.4996025402
0.5018885089
0.5046080153
0.5080979318
0.5102247646
0.5127468391
0.5158813723
0.5194116468
0.5218374555
0.5245396212
0.5281784118
0.5323828067
0.5352808092
0.5383007335
0.5409519371
0.54554004
0.5489714686
0.5513846567
0.5545711294
0.5586769998
0.5616448518
0.5642166657
0.5672767042
0.5712382279
0.5738635282
0.5752560999
0.5769263725
0.5802111607
0.5816227818
0.5816157187
0.5820819776
0.5834936901
0.5864154054
0.5891364071
0.5886070135
0.587816752
0.5879288207
0.588880784
0.5912289624
0.5915470367
0.5908257842
0.5909037022
0.5895686614
0.5885340004
0.5880466083
0.5856754483
0.5836155002
0.5809886714
0.5777493959
0.5762944682
0.5722303722
0.568314797
0.5641324825
0.5588565612
0.5543819732
0.550471293
0.5438440331
0.539496049
0.5331506089
0.5277895671
0.5236016238
0.5167411403
0.5104462973
0.5034443441
0.4963963657
0.490091885
0.4816492023
0.4745627026
0.4696073906
0.4626844148
0.4568384975
0.4517328656
0.4467902683
0.4411068247
0.4381438642
0.4370903238
0.4341545536
0.4334791809
0.433416769
0.4342191888
0.4357076596
0.4387096529
0.4411692994
0.4420875143
0.4426329659
0.4436302994
0.4450303856
0.446276995
0.4472088705
0.4485709108
0.4500299688
0.4517460685
0.4536294747
0.4548758341
0.4560315096
0.4310835044
0.4320434959
0.4347812303
0.4380629815
0.4399183347
0.4422564103
0.4449770099
0.4482946162
0.4502566951
0.4527974331
0.4559242347
0.4592926173
0.4615174591
0.4642332053
0.4678655574
0.4719118194
0.4745973169
0.4775415165
0.4802503297
0.4846870476
0.4878809381
0.4902207416
0.4931972202
0.4975004003
0.5001903801
0.5026825987
0.5057197159
0.5095206452
0.5119759513
0.5132953713
0.5150314032
0.5182480216
0.5194347359
0.5193553775
0.519859594
0.5212795063
0.5241459477
0.5267988096
0.5259338605
0.52515773
0.5253136756
0.5262920171
0.5286104995
0.5286177218
0.5278728885
0.5279258759
0.5264489665
0.5254929439
0.5248740379
0.5223739451
0.5203230639
0.517611061
0.5144712988
0.5132551772
0.5086878627
0.5049865
0.5014594763
0.4959013647
0.4912819681
0.4878160012
0.4814618126
0.4774950631
0.4707663152
0.4660707461
0.4619927614
0.4562817861
0.4502501635
0.4434258177
0.4375995802
0.4323907811
0.4239165853
0.4179850604
0.4143655173
0.4081442961
0.4033295276
0.3993346826
0.3952213568
0.3901013506
0.3874884246
0.3872839297
0.3844839232
0.384170156
0.384299666
0.3853272688
0.3869899376
0.3893136078
0.3923944901
0.393456445
0.3940553243
0.3952963173
0.3964822757
0.3977355543
0.3987318168
0.4000615306
0.4015430852
0.4034630629
0.4047161183
0.4064961518
0.4077205226
0.3731583621
0.3740843851
0.3768128807
0.3798118458
0.3815379902
0.3839013533
0.3865852699
0.3896689622
0.391411982
0.3939403357
0.3970365085
0.4001952374
0.402179255
0.4048999947
0.4085213318
0.4123785733
0.4148224961
0.4176823223
0.4204392055
0.4247066006
0.4276182908
0.4298478389
0.4327702672
0.4369631116
0.4394723594
0.4418747761
0.4449043478
0.4485739267
0.450862145
0.4521042858
0.453897666
0.457020247
0.4579290712
0.4577771902
0.4583399175
0.459769765
0.4625780762
0.4651083519
0.463891973
0.4631419401
0.4633955356
0.464451578
0.4667140747
0.4663873908
0.46564447
0.4657428753
0.4641971365
0.4633631291
0.4627346798
0.4602314226
0.45816276
0.4555866954
0.4526057374
0.4514745486
0.4472217467
0.4433356466
0.4398492471
0.4345700706
0.4301999379
0.42670504
0.4211792019
0.4178154529
0.4120821496
0.4077665081
0.4039033483
0.3991940375
0.3943389836
0.3886880333
0.3830772828
0.3793485698
0.3717659071
0.3660225425
0.3637203519
0.3572466463
0.3533776789
0.3503338115
0.3465097808
0.3418996253
0.3386862547
0.339056434
0.3364841835
0.3362834368
0.3367475422
0.3380145227
0.3397095864
0.3423283246
0.3450679864
0.3462073178
0.3469508881
0.3484257268
0.349576862
0.3507109572
0.3519534779
0.3537286157
0.3547531494
0.3562204563
0.358280182
0.3596408666
0.3609306786
0.3181975331
0.3190520999
0.3216818675
0.3243462751