/*--------------------------------*- C++ -*----------------------------------*\
| =========                 |                                                 |
| \\      /  F ield         | OpenFOAM: The Open Source CFD Toolbox           |
|  \\    /   O peration     | Version:  v1706                                 |
|   \\  /    A nd           | Web:      www.OpenFOAM.com                      |
|    \\/     M anipulation  |                                                 |
\*---------------------------------------------------------------------------*/
FoamFile
{
    version     2.0;
    format      ascii;
    class       volScalarField;
    location    "0.00272";
    object      N2+;
}
// * * * * * * * * * * * * * * * * * * * * * * * * * * * * * * * * * * * * * //

dimensions      [0 0 0 0 0 0 0];


internalField   nonuniform List<scalar> 
11682
(
1.229444673e-60
8.523568979e-61
9.162688654e-61
7.261406401e-61
6.147642064e-61
4.468318983e-61
3.896004626e-61
3.192128023e-61
1.63669297e-61
1.346110615e-61
1.176303131e-61
1.002936794e-61
6.527590053e-62
5.529184846e-62
4.170258638e-62
2.886454474e-62
2.523996639e-62
2.791005488e-62
1.978822561e-62
1.342056073e-62
9.098002083e-63
6.108224105e-63
5.121751697e-63
2.565016588e-63
2.465035181e-63
1.730355104e-63
1.263255718e-63
9.859100454e-64
7.806195024e-64
6.684483803e-64
5.240348669e-64
4.201802102e-64
3.562713e-64
2.810497271e-64
2.808208451e-64
4.170296772e-64
7.792115612e-64
1.406385107e-63
2.218192607e-63
2.408182571e-63
2.422418754e-63
2.387470411e-63
1.936395876e-63
1.093585886e-63
8.664739507e-64
3.964469004e-64
3.932033105e-64
3.993553041e-64
4.090114641e-64
4.247967559e-64
3.703750696e-64
4.102190847e-64
5.098620414e-64
7.922455266e-64
1.099786772e-63
1.680590847e-63
2.510375429e-63
3.17125822e-63
6.423937905e-63
1.070556969e-62
1.483443562e-62
3.072606137e-62
5.237870044e-62
5.872295413e-62
1.401617247e-61
2.484882762e-61
4.765303757e-61
8.072920629e-61
2.156665089e-60
5.586696265e-60
1.14781972e-59
2.818271325e-59
5.972061344e-59
1.141764053e-58
2.272434661e-58
5.387766766e-58
1.159934685e-57
2.272339301e-57
4.496831238e-57
7.191793779e-57
1.240814193e-56
1.768838184e-56
2.899650928e-56
3.990652399e-56
4.857528784e-56
5.594406307e-56
7.008044173e-56
8.033600866e-56
8.899276865e-56
9.751293786e-56
9.887131873e-56
1.147136742e-55
1.242371307e-55
1.311844288e-55
1.388620718e-55
1.456080869e-55
1.516294128e-55
1.572605101e-55
1.605438126e-55
1.803859354e-58
1.433799994e-58
1.499004093e-58
1.144657382e-58
9.974458327e-59
7.706949874e-59
5.980955777e-59
5.117575852e-59
2.711204538e-59
2.067595332e-59
1.817494934e-59
1.548192007e-59
1.045516981e-59
8.129524842e-60
6.2577145e-60
4.335050852e-60
4.583070857e-60
4.474319365e-60
3.039710652e-60
2.043191207e-60
1.393426327e-60
1.00883659e-60
7.836977738e-61
5.353384632e-61
3.708281113e-61
2.704673009e-61
1.955856689e-61
1.494546837e-61
1.197457038e-61
1.03196412e-61
8.266668157e-62
7.113847971e-62
5.590699702e-62
4.302583304e-62
4.0673375e-62
5.778213011e-62
9.339011939e-62
1.564982942e-61
2.535260308e-61
2.910731393e-61
2.947956378e-61
2.979738287e-61
2.524201704e-61
1.805590174e-61
1.226607595e-61
8.090931491e-62
6.295880338e-62
6.154010539e-62
6.209917815e-62
6.480776794e-62
6.146818076e-62
6.61254034e-62
8.04342906e-62
1.206447269e-61
1.744822939e-61
2.530417724e-61
3.759364124e-61
5.7545968e-61
9.680366256e-61
1.620044711e-60
2.95407639e-60
4.713308591e-60
7.8353126e-60
1.299340182e-59
2.03242166e-59
3.588718577e-59
6.891139418e-59
1.462328736e-58
3.232997448e-58
7.991913597e-58
1.897462703e-57
4.017609731e-57
8.576565859e-57
1.580462288e-56
3.173560972e-56
7.302742292e-56
1.657787959e-55
3.247308379e-55
6.161714597e-55
1.014226506e-54
1.607862348e-54
2.627015742e-54
3.827113769e-54
5.186175563e-54
6.604281849e-54
7.781847814e-54
9.047046164e-54
1.012550846e-53
1.07286867e-53
1.243279852e-53
1.342986149e-53
1.442093071e-53
1.53597825e-53
1.611963537e-53
1.701382439e-53
1.768761998e-53
1.833519263e-53
1.90110371e-53
1.94626614e-53
2.967365155e-56
2.152700765e-56
2.247517552e-56
1.776714075e-56
1.605707428e-56
1.171233311e-56
9.011854867e-57
7.91339551e-57
4.178796516e-57
3.15829103e-57
2.766698366e-57
2.323717065e-57
1.53935442e-57
1.18901874e-57
9.554003156e-58
6.507473201e-58
7.286105722e-58
7.054976926e-58
4.608177919e-58
3.071412148e-58
2.077115948e-58
1.565996797e-58
1.203276921e-58
8.058081511e-59
5.989099884e-59
4.007997482e-59
3.01544845e-59
2.468401524e-59
1.883057112e-59
1.589860809e-59
1.249891237e-59
1.108729791e-59
8.629565261e-60
6.566026969e-60
6.442888049e-60
7.746149059e-60
1.134873789e-59
1.877485189e-59
2.723176258e-59
3.236138341e-59
3.308035499e-59
3.515518863e-59
3.218325346e-59
2.312676026e-59
1.643600774e-59
1.188228864e-59
9.34294154e-60
9.366014837e-60
9.289752248e-60
9.702145874e-60
9.126766829e-60
9.64041975e-60
1.242752458e-59
1.813221103e-59
2.612306654e-59
3.648142828e-59
5.616416278e-59
8.198352249e-59
1.430611951e-58
2.464099961e-58
4.392848003e-58
7.309685473e-58
1.215524213e-57
1.863594211e-57
2.789327316e-57
5.146482831e-57
9.744905006e-57
2.107990466e-56
4.57710081e-56
1.125284927e-55
2.689008778e-55
5.643316603e-55
1.215110262e-54
2.197104431e-54
4.365435457e-54
1.019839287e-53
2.242894717e-53
4.331700967e-53
8.272338782e-53
1.313642905e-52
2.24310802e-52
3.577493617e-52
4.967428022e-52
6.715591499e-52
8.397491859e-52
9.74318411e-52
1.133652097e-51
1.241602036e-51
1.338454967e-51
1.512639972e-51
1.591421335e-51
1.721172217e-51
1.862715811e-51
1.960788859e-51
2.065665542e-51
2.074430024e-51
2.174340895e-51
2.245295253e-51
2.309232052e-51
4.579436066e-54
3.433883999e-54
3.538751852e-54
2.757803149e-54
2.549809633e-54
1.917090674e-54
1.348066593e-54
1.225051438e-54
6.38499572e-55
4.83016159e-55
4.2792259e-55
3.427210025e-55
2.37578694e-55
1.982593697e-55
1.427643302e-55
1.06406995e-55
1.238282233e-55
1.104950229e-55
7.049207047e-56
4.639945806e-56
3.062550799e-56
2.46145281e-56
1.900294314e-56
1.193879014e-56
8.998680916e-57
6.606201881e-57
4.727447898e-57
3.711019468e-57
2.874682719e-57
2.523062385e-57
2.045250709e-57
1.752454469e-57
1.338643283e-57
1.047492161e-57
1.024255272e-57
1.110038201e-57
1.373170344e-57
2.109056439e-57
2.64582623e-57
3.424353548e-57
3.86301084e-57
4.875813075e-57
4.140906487e-57
3.18579986e-57
2.203652366e-57
1.679966664e-57
1.379916006e-57
1.430982711e-57
1.391837982e-57
1.411247193e-57
1.342152801e-57
1.446848214e-57
1.888374785e-57
2.715581016e-57
3.879387266e-57
5.559355973e-57
8.521535028e-57
1.101785509e-56
2.10224072e-56
3.676312721e-56
6.538752508e-56
1.087316987e-55
1.772011035e-55
2.658707523e-55
3.797221537e-55
7.219901658e-55
1.353923873e-54
3.00438538e-54
6.763123443e-54
1.570119515e-53
3.835891077e-53
8.165108916e-53
1.708602484e-52
2.996786651e-52
5.815794012e-52
1.403932162e-51
3.02589482e-51
5.817219887e-51
1.10371152e-50
1.703313318e-50
2.994003576e-50
4.717442873e-50
6.352945014e-50
8.546009982e-50
1.055333186e-49
1.174658482e-49
1.420924835e-49
1.514059508e-49
1.660440481e-49
1.781375995e-49
2.006781213e-49
2.132926827e-49
2.264297913e-49
2.366283312e-49
2.471527063e-49
2.563485259e-49
2.625728881e-49
2.678092262e-49
2.732617518e-49
6.887443839e-52
5.387213006e-52
5.599570187e-52
4.427643673e-52
3.692427807e-52
3.049095288e-52
2.031988846e-52
1.895115442e-52
1.045549264e-52
7.265792649e-53
6.862248066e-53
5.149900806e-53
3.38264721e-53
3.015336017e-53
2.25100032e-53
1.619502802e-53
1.825067407e-53
1.700104104e-53
1.095054257e-53
7.061162396e-54
4.742796055e-54
3.898666543e-54
3.033562889e-54
1.875710266e-54
1.337936237e-54
9.984252031e-55
7.417457617e-55
5.542001523e-55
4.443438484e-55
3.899347252e-55
3.222200845e-55
2.740589729e-55
2.04780781e-55
1.58175485e-55
1.564662907e-55
1.594517273e-55
1.789003032e-55
2.310602605e-55
3.040705458e-55
3.510484297e-55
4.336748797e-55
6.101732914e-55
5.825414497e-55
4.456658309e-55
3.135648318e-55
2.357095292e-55
2.062926051e-55
2.184198505e-55
2.087157061e-55
2.145296237e-55
1.972233116e-55
2.248842426e-55
2.910763514e-55
4.005145239e-55
5.760974347e-55
8.270804746e-55
1.286757395e-54
1.942833843e-54
3.068513759e-54
5.466179882e-54
9.732464391e-54
1.571352168e-53
2.604809153e-53
3.718930601e-53
5.963446459e-53
1.024635833e-52
1.887283982e-52
4.239095412e-52
9.482482458e-52
2.223597658e-51
5.455435379e-51
1.21732191e-50
2.413934332e-50
4.083766502e-50
8.38628126e-50
1.918742e-49
4.073169371e-49
7.631449548e-49
1.466879591e-48
2.45436112e-48
3.99552789e-48
6.234632708e-48
8.186121355e-48
1.093738416e-47
1.29946675e-47
1.481384826e-47
1.773570265e-47
1.859088865e-47
2.11412362e-47
2.277017041e-47
2.435224493e-47
2.576433256e-47
2.738929503e-47
2.867855616e-47
2.86679873e-47
3.052236105e-47
3.099678574e-47
3.161635975e-47
3.2335926e-47
1.096375769e-49
8.583853011e-50
9.315702182e-50
6.634526445e-50
6.421483017e-50
4.788628481e-50
3.262506278e-50
2.916409122e-50
1.592477556e-50
1.070832228e-50
1.067935197e-50
8.350073013e-51
5.527483905e-51
4.668694997e-51
3.431534025e-51
2.431169724e-51
2.990816444e-51
2.597507336e-51
1.702366458e-51
1.077919417e-51
7.380965389e-52
6.089692545e-52
4.693676944e-52
2.887117831e-52
2.056437955e-52
1.52476425e-52
1.151184903e-52
8.35358284e-53
6.912028339e-53
5.973316379e-53
5.04177293e-53
4.216305107e-53
3.238464945e-53
2.470004439e-53
2.393279887e-53
2.332381495e-53
2.327188308e-53
2.60806278e-53
3.034175152e-53
3.460325728e-53
4.821085943e-53
7.73566713e-53
7.955846867e-53
6.290679676e-53
4.294162094e-53
3.245530697e-53
3.192482341e-53
3.356798896e-53
3.147646939e-53
3.176137125e-53
2.861931291e-53
3.408053674e-53
4.579344218e-53
6.188796269e-53
9.337603705e-53
1.204104241e-52
1.96010967e-52
2.931042343e-52
4.635122812e-52
8.064044688e-52
1.443608752e-51
2.474984595e-51
3.956493339e-51
5.54411711e-51
8.60534541e-51
1.459901057e-50
2.853559715e-50
6.000086215e-50
1.27293947e-49
3.074022782e-49
7.603768515e-49
1.716334431e-48
3.39161216e-48
5.882759076e-48
1.130002652e-47
2.614237352e-47
5.48130665e-47
1.04679014e-46
1.987613761e-46
3.148070457e-46
5.264938083e-46
8.200142058e-46
1.093148449e-45
1.406518526e-45
1.698648075e-45
1.939343937e-45
2.232964148e-45
2.354250437e-45
2.591035428e-45
2.761704114e-45
2.988132711e-45
3.115838054e-45
3.293482825e-45
3.414940353e-45
3.564393483e-45
3.635622012e-45
3.626168811e-45
3.699758142e-45
3.833296119e-45
1.800054539e-47
1.363418546e-47
1.434273598e-47
1.110126062e-47
1.034224603e-47
7.335851705e-48
5.160196583e-48
4.465007833e-48
2.462011332e-48
1.72161624e-48
1.649404753e-48
1.270780647e-48
8.428957761e-49
7.320114763e-49
5.114865751e-49
3.731862512e-49
4.595609211e-49
4.205524396e-49
2.609775959e-49
1.634925642e-49
1.149567436e-49
9.372740962e-50
7.268385537e-50
4.425978157e-50
3.112002542e-50
2.36257136e-50
1.770399808e-50
1.280144664e-50
1.093587841e-50
9.510561675e-51
7.859617386e-51
6.474967813e-51
4.822912872e-51
3.759537843e-51
3.683094253e-51
3.437814961e-51
3.072297e-51
2.899938896e-51
3.004067621e-51
3.47832877e-51
5.482053995e-51
9.577236722e-51
1.064873998e-50
8.513051456e-51
5.922975301e-51
4.82981714e-51
4.887877857e-51
5.171786748e-51
4.904873055e-51
4.821490266e-51
4.558114468e-51
5.005699865e-51
7.022770961e-51
9.312687625e-51
1.401579585e-50
2.012444732e-50
3.035762433e-50
4.507725865e-50
6.806099524e-50
1.179528518e-49
2.14460777e-49
3.660709144e-49
6.186973872e-49
8.793313815e-49
1.262339302e-48
2.110138307e-48
4.107891842e-48
8.428404407e-48
1.80831836e-47
4.379586762e-47
1.052312235e-46
2.374613248e-46
4.756016378e-46
8.320396296e-46
1.446815257e-45
3.536290344e-45
7.353446337e-45
1.421201829e-44
2.658173165e-44
4.356519747e-44
6.936870106e-44
1.066619165e-43
1.488688009e-43
1.822533624e-43
2.163430575e-43
2.526588022e-43
2.77095925e-43
2.974845344e-43
3.228170374e-43
3.33434823e-43
3.643257329e-43
3.827007269e-43
3.95528571e-43
3.913843287e-43
4.244258197e-43
4.317174653e-43
4.484769032e-43
4.600390723e-43
4.655926549e-43
2.84591261e-45
2.279579687e-45
2.288835722e-45
1.730547174e-45
1.591458473e-45
1.120339675e-45
8.823220084e-46
6.820879406e-46
3.79417081e-46
2.66190954e-46
2.520924312e-46
2.068958186e-46
1.324036826e-46
1.160249982e-46
8.465839706e-47
5.725391205e-47
7.771681405e-47
6.487164784e-47
4.007538906e-47
2.46829042e-47
1.734663578e-47
1.499549101e-47
1.115647887e-47
6.886811533e-48
4.736977672e-48
3.710175381e-48
2.730401493e-48
1.945297569e-48
1.672791024e-48
1.471110914e-48
1.219432203e-48
9.903192139e-49
7.592816931e-49
6.135299711e-49
5.719664793e-49
5.20553882e-49
4.429483616e-49
3.312832002e-49
3.219292629e-49
3.609241584e-49
6.772853074e-49
1.411502349e-48
1.521461849e-48
1.151073922e-48
8.348102201e-49
7.209748924e-49
7.502266298e-49
7.904925706e-49
8.020498423e-49
7.172703003e-49
6.830734704e-49
8.042035214e-49
1.073019956e-48
1.418077242e-48
2.09943142e-48
3.005133886e-48
4.454493795e-48
6.873452595e-48
1.029482001e-47
1.734445852e-47
3.192289191e-47
5.400449962e-47
9.379933991e-47
1.363802566e-46
1.874600796e-46
3.07179806e-46
5.945143047e-46
1.234242981e-45
2.531244265e-45
6.051021314e-45
1.450255333e-44
3.236070497e-44
6.683007506e-44
1.144755518e-43
2.255429258e-43
4.785574227e-43
9.809033168e-43
1.938470403e-42
3.552540879e-42
5.713168353e-42
9.014023376e-42
1.380780382e-41
1.926982949e-41
2.352012269e-41
2.768282898e-41
3.169270662e-41
3.398237718e-41
3.590795606e-41
3.92707806e-41
4.205975595e-41
4.422818665e-41
4.616343778e-41
4.705365924e-41
4.735505564e-41
4.993706803e-41
5.18122029e-41
5.353002656e-41
5.440009542e-41
5.510426424e-41
4.56023571e-43
3.518723692e-43
3.553922729e-43
2.624579039e-43
2.388891482e-43
1.727268884e-43
1.353011047e-43
1.032512465e-43
5.86419087e-44
4.259229003e-44
3.852355955e-44
3.384532835e-44
2.102337143e-44
1.84414128e-44
1.34214358e-44
8.652174919e-45
1.226067116e-44
9.848039427e-45
6.141076332e-45
3.749296871e-45
2.64510103e-45
2.343175546e-45
1.667396326e-45
1.104592613e-45
7.09050827e-46
5.728921642e-46
4.228868408e-46
2.948545608e-46
2.570652925e-46
2.293161997e-46
1.898115189e-46
1.499021066e-46
1.153945592e-46
9.466371025e-47
8.587049243e-47
8.351198836e-47
6.778106514e-47
4.356109881e-47
3.408185412e-47
3.851069275e-47
9.393898819e-47
2.034444458e-46
2.171784473e-46
1.622018895e-46
1.189409203e-46
1.059518061e-46
1.127821278e-46
1.202553435e-46
1.229234505e-46
1.153998195e-46
1.035551715e-46
1.217014995e-46
1.635476165e-46
2.158502004e-46
3.159110997e-46
4.318353419e-46
6.394529581e-46
1.001288424e-45
1.506363621e-45
2.619677385e-45
4.746016319e-45
8.005897738e-45
1.389126459e-44
2.059100505e-44
2.765008889e-44
4.309074368e-44
8.56967038e-44
1.776830529e-43
3.382974716e-43
8.351794907e-43
2.021344775e-42
4.664155361e-42
9.323665722e-42
1.564521477e-41
3.006075281e-41
6.383182445e-41
1.293529208e-40
2.589172401e-40
4.735787456e-40
7.500036585e-40
1.167698892e-39
1.798287237e-39
2.503193975e-39
3.215613686e-39
3.521001783e-39
4.005169717e-39
4.175403478e-39
4.2449624e-39
4.615062677e-39
5.112072616e-39
5.409325113e-39
5.595741661e-39
5.624350992e-39
5.475530737e-39
5.821127668e-39
6.072996976e-39
6.342977839e-39
6.35466371e-39
6.477907571e-39
7.216933259e-41
5.237371192e-41
5.914381535e-41
4.357525385e-41
3.703036074e-41
2.683732597e-41
2.005224164e-41
1.560101494e-41
8.90096831e-42
6.910932705e-42
5.958915715e-42
5.315792346e-42
3.435945315e-42
2.907159053e-42
2.185818868e-42
1.301687955e-42
1.936384002e-42
1.438374599e-42
9.354676364e-43
5.774344249e-43
4.177494656e-43
3.608160826e-43
2.710635372e-43
1.740620053e-43
1.137101828e-43
8.637032119e-44
6.563611532e-44
4.840674615e-44
3.957341211e-44
3.590751293e-44
2.961116841e-44
2.33193383e-44
1.7466731e-44
1.451804358e-44
1.357899097e-44
1.276977935e-44
9.959458611e-45
5.735962452e-45
3.732879225e-45
4.466777899e-45
1.318657497e-44
3.01870551e-44
3.192250358e-44
2.318458653e-44
1.71850831e-44
1.573243593e-44
1.697122509e-44
1.828448391e-44
1.898160541e-44
1.715265217e-44
1.527601792e-44
1.776714385e-44
2.485500442e-44
3.305670493e-44
4.832400161e-44
6.663413585e-44
9.721316469e-44
1.440612317e-43
2.20801723e-43
3.832220709e-43
6.993217337e-43
1.18191459e-42
2.01976888e-42
3.024958853e-42
4.006884423e-42
5.839183745e-42
1.219548041e-41
2.52336789e-41
5.620682192e-41
1.180885063e-40
2.906795669e-40
6.635721471e-40
1.295702567e-39
2.246736875e-39
3.968500477e-39
8.420234422e-39
1.658926138e-38
3.427348036e-38
6.352037827e-38
9.79198268e-38
1.569455718e-37
2.39412087e-37
3.358558494e-37
4.195911225e-37
4.810902223e-37
5.144955034e-37
5.292197318e-37
5.479007806e-37
6.005076787e-37
6.312144829e-37
6.601949795e-37
6.760615235e-37
6.76171295e-37
6.315499913e-37
6.892776157e-37
7.175600267e-37
7.492540725e-37
7.68191388e-37
7.704484281e-37
1.179852769e-38
8.381594525e-39
9.190043817e-39
6.648979535e-39
5.513927829e-39
4.084585704e-39
2.952781458e-39
2.410374708e-39
1.348964256e-39
1.072597527e-39
9.391201244e-40
8.391122625e-40
5.773213104e-40
4.641068262e-40
3.35172755e-40
1.978984001e-40
3.049694922e-40
2.479627322e-40
1.438323321e-40
8.721746096e-41
6.568906e-41
5.545877055e-41
4.159199637e-41
2.689512838e-41
1.878755064e-41
1.393261576e-41
1.014865884e-41
7.731756172e-42
6.086742097e-42
5.599784064e-42
4.569711819e-42
3.488553063e-42
2.503708686e-42
2.334271648e-42
2.067045129e-42
2.02734265e-42
1.442169626e-42
7.658898331e-43
4.152227072e-43
5.581469093e-43
1.87140815e-42
4.394813502e-42
4.785431573e-42
3.480407403e-42
2.635923004e-42
2.350628683e-42
2.556985226e-42
2.776133468e-42
2.869116336e-42
2.580718866e-42
2.26553733e-42
2.742326713e-42
3.749729964e-42
5.037448925e-42
7.271247569e-42
1.012605215e-41
1.476687592e-41
2.101977755e-41
3.280594727e-41
5.602047614e-41
1.030164286e-40
1.718364108e-40
3.042494288e-40
4.426381827e-40
5.712577217e-40
9.419917484e-40
1.739714917e-39
3.764670094e-39
8.189343853e-39
1.68898207e-38
4.051409489e-38
9.38881095e-38
1.786898485e-37
3.058557018e-37
5.472639829e-37
1.092663468e-36
2.338953233e-36
4.613957285e-36
8.452972232e-36
1.286883716e-35
2.03324287e-35
3.085938129e-35
4.481427364e-35
5.318802222e-35
6.228440205e-35
6.71890837e-35
6.531619795e-35
7.037332891e-35
7.436659499e-35
7.69528796e-35
8.001703816e-35
8.167758851e-35
7.90675032e-35
8.320224396e-35
8.655936136e-35
8.927023617e-35
9.124017877e-35
9.207867642e-35
9.15129968e-35
1.909659639e-36
1.427643977e-36
1.406462896e-36
9.732945037e-37
8.326584727e-37
6.243517658e-37
4.519434634e-37
3.822822578e-37
2.009497914e-37
1.626875454e-37
1.480326775e-37
1.285902785e-37
9.267152729e-38
7.271488312e-38
5.098896175e-38
3.188523649e-38
4.783468439e-38
3.696412219e-38
2.228077744e-38
1.269238561e-38
1.013416372e-38
8.526677117e-39
6.256521427e-39
4.02519202e-39
2.90835409e-39
2.207330852e-39
1.566417633e-39
1.18390332e-39
9.441767468e-40
8.616894549e-40
7.008938397e-40
5.264467535e-40
4.043037998e-40
3.606786008e-40
3.137738995e-40
3.081447932e-40
2.193296168e-40
1.044052712e-40
5.06062287e-41
7.523840828e-41
2.690160016e-40
7.032908095e-40
7.227194845e-40
5.054762949e-40
3.976555645e-40
3.563269186e-40
3.871887869e-40
4.226929358e-40
4.366357465e-40
3.946006135e-40
3.355517014e-40
4.087400643e-40
5.584614865e-40
7.385578782e-40
1.099157471e-39
1.496690983e-39
2.187264152e-39
3.380925894e-39
4.85207833e-39
8.135863809e-39
1.530627551e-38
2.450827557e-38
4.528207751e-38
6.583691915e-38
7.904602046e-38
1.336005271e-37
2.501611786e-37
5.441302452e-37
1.1832063e-36
2.392142345e-36
5.666342539e-36
1.315179645e-35
2.435057856e-35
4.150395022e-35
7.051815091e-35
1.455673986e-34
3.131860307e-34
5.965455157e-34
1.076249729e-33
1.780679135e-33
2.681935783e-33
4.220410481e-33
5.799125594e-33
7.241691101e-33
7.878734256e-33
8.439589959e-33
8.578214685e-33
8.685358057e-33
9.018005817e-33
9.167199553e-33
9.56470413e-33
9.881199048e-33
9.397357736e-33
9.826050359e-33
1.023218041e-32
1.067115926e-32
1.106146798e-32
1.11148912e-32
1.089817728e-32
2.876307302e-34
2.32794139e-34
2.139619833e-34
1.491901091e-34
1.276976944e-34
1.001180701e-34
6.977968335e-35
6.123042408e-35
3.091846337e-35
2.491235204e-35
2.235977556e-35
1.961012439e-35
1.468908979e-35
1.142749181e-35
7.73437797e-36
4.860045324e-36
7.33398112e-36
5.628717135e-36
3.355283599e-36
2.146811442e-36
1.557323424e-36
1.316714029e-36
9.406952737e-37
5.883025752e-37
4.505050307e-37
3.471302243e-37
2.442951117e-37
1.809254246e-37
1.429150376e-37
1.308330518e-37
1.092976347e-37
7.939861468e-38
5.983803128e-38
5.557189048e-38
4.941169603e-38
4.575156997e-38
3.33120347e-38
1.452626473e-38
6.234664525e-39
1.01775189e-38
4.320445742e-38
1.106946113e-37
1.161344949e-37
8.415794081e-38
6.16347097e-38
5.454775601e-38
5.899467224e-38
6.335119659e-38
6.844151903e-38
5.895950097e-38
4.797318646e-38
6.056508677e-38
8.535444628e-38
1.008291234e-37
1.635113161e-37
2.302668484e-37
3.109826098e-37
5.001891901e-37
6.965886211e-37
1.189173387e-36
2.254441793e-36
3.928525762e-36
6.911260688e-36
9.679378337e-36
1.158381183e-35
1.89326513e-35
3.826666383e-35
8.150469284e-35
1.662177655e-34
3.317723451e-34
8.231921883e-34
1.844260598e-33
3.234919691e-33
5.534682606e-33
1.005851023e-32
2.181584144e-32
4.191984198e-32
7.950971158e-32
1.455478487e-31
2.331835751e-31
3.766294342e-31
5.592662797e-31
7.424052564e-31
9.156302063e-31
9.321639494e-31
1.03943795e-30
1.067662405e-30
1.055363046e-30
1.091204475e-30
1.094986954e-30
1.14586253e-30
1.196268815e-30
1.182049504e-30
1.221142028e-30
1.247958899e-30
1.304550313e-30
1.337462199e-30
1.335552294e-30
1.287906055e-30
4.778545065e-32
3.534876472e-32
3.231010955e-32
2.638578646e-32
1.947857711e-32
1.543055636e-32
1.095042104e-32
9.439739454e-33
4.954015532e-33
3.911126239e-33
3.416734099e-33
3.03531426e-33
2.269361463e-33
1.785103073e-33
1.173833147e-33
7.434159326e-34
1.105334001e-33
9.104049511e-34
4.923460567e-34
3.368306499e-34
2.387897229e-34
2.033041919e-34
1.464384586e-34
9.308719787e-35
6.948678579e-35
5.228694587e-35
3.627060468e-35
2.88902712e-35
2.169332867e-35
1.993234051e-35
1.723853584e-35
1.241354432e-35
9.004031019e-36
8.678188024e-36
7.574830321e-36
6.915819697e-36
5.317679573e-36
2.127063534e-36
8.096311195e-37
1.444928644e-36
6.662792365e-36
1.871334785e-35
1.814189152e-35
1.266048931e-35
9.280431315e-36
8.188077144e-36
9.02999742e-36
9.53614829e-36
1.083645588e-35
8.722245389e-36
7.252479459e-36
9.052759924e-36
1.220927508e-35
1.663185466e-35
2.518633249e-35
3.445704553e-35
4.842873167e-35
7.524190415e-35
9.479346865e-35
1.764609261e-34
3.318258442e-34
5.724262177e-34
1.029097984e-33
1.470454722e-33
1.620429178e-33
2.706618496e-33
5.53335151e-33
1.178488671e-32
2.286550096e-32
4.44996659e-32
1.150057006e-31
2.724818774e-31
4.555725622e-31
7.752841274e-31
1.399308471e-30
2.967013697e-30
5.718903583e-30
1.069792705e-29
1.854529561e-29
2.954142654e-29
5.005717358e-29
7.371540709e-29
9.145583942e-29
1.155445462e-28
1.220315255e-28
1.293096008e-28
1.320308606e-28
1.2287739e-28
1.309547897e-28
1.325571448e-28
1.387898437e-28
1.456667138e-28
1.450129744e-28
1.474870536e-28
1.423665181e-28
1.514319612e-28
1.570625414e-28
1.579868792e-28
1.509394222e-28
7.095928052e-30
5.563755892e-30
5.128684679e-30
4.151297703e-30
3.047776502e-30
2.391076884e-30
1.80476907e-30
1.480366827e-30
7.757489805e-31
6.161526351e-31
5.413229948e-31
4.507640422e-31
3.343393884e-31
2.77204207e-31
1.780472445e-31
1.172247502e-31
1.683410067e-31
1.381095601e-31
7.312648349e-32
5.328756298e-32
3.710912198e-32
3.116165647e-32
2.188571328e-32
1.383628492e-32
1.053209794e-32
8.020121205e-33
5.798406653e-33
4.51117088e-33
3.292137873e-33
3.048790587e-33
2.660883798e-33
1.971083889e-33
1.357737799e-33
1.325169698e-33
1.196750939e-33
1.097853989e-33
8.160762636e-34
3.013834882e-34
1.075761703e-34
2.129918276e-34
1.044750535e-33
3.105150332e-33
2.789102074e-33
1.896872294e-33
1.390841821e-33
1.210276485e-33
1.384704801e-33
1.550118998e-33
1.692809688e-33
1.266978813e-33
1.083604708e-33
1.373573237e-33
1.965500653e-33
2.38255509e-33
3.690947465e-33
5.186005873e-33
7.651638288e-33
1.156560899e-32
1.557228496e-32
2.653013115e-32
4.788174668e-32
8.460448336e-32
1.508539657e-31
2.033116023e-31
2.278606749e-31
3.875684547e-31
7.897004336e-31
1.686081437e-30
3.478436758e-30
6.309262158e-30
1.606352505e-29
3.8060589e-29
7.16732658e-29
1.033487901e-28
1.862631205e-28
4.06814198e-28
7.734402748e-28
1.430050169e-27
2.287408173e-27
3.560058641e-27
6.502992633e-27
9.636618149e-27
1.277383787e-26
1.474949881e-26
1.607972873e-26
1.635004652e-26
1.64656094e-26
1.60069269e-26
1.587708486e-26
1.572555557e-26
1.654298669e-26
1.753212944e-26
1.768270613e-26
1.793408525e-26
1.750356972e-26
1.798380513e-26
1.840480536e-26
1.843678246e-26
1.804234166e-26
1.086378458e-27
8.522041384e-28
7.790335209e-28
6.333094146e-28
4.511967355e-28
3.736395525e-28
2.944142602e-28
2.315703134e-28
1.234122373e-28
9.70756112e-29
8.56314642e-29
6.750320833e-29
5.264512033e-29
4.295472376e-29
2.667704545e-29
1.846228489e-29
2.886885301e-29
2.337117558e-29
1.15546401e-29
8.344788703e-30
5.593566803e-30
4.899897911e-30
3.446680707e-30
2.151310427e-30
1.629644057e-30
1.288699014e-30
8.970807397e-31
6.980231597e-31
5.055527014e-31
4.541677676e-31
4.037715026e-31
3.034198837e-31
2.092722562e-31
2.011229755e-31
1.89708759e-31
1.697344206e-31
1.283423742e-31
4.564210151e-32
1.423902277e-32
3.215724361e-32
1.692514398e-31
5.171235746e-31
4.435546334e-31
2.833086655e-31
2.079457957e-31
1.744613437e-31
2.127523074e-31
2.431604733e-31
2.623218228e-31
1.883634995e-31
1.624349856e-31
2.061865615e-31
3.013977423e-31
3.632796693e-31
5.312740282e-31
7.960776001e-31
1.14552945e-30
1.733978578e-30
2.266249679e-30
4.080266455e-30
6.932617156e-30
1.224123317e-29
2.196413909e-29
3.266718002e-29
3.263978521e-29
5.571871131e-29
1.147962468e-28
2.383107499e-28
5.029288876e-28
8.173680145e-28
2.243851714e-27
5.145351254e-27
1.007234172e-26
1.436519967e-26
2.463800934e-26
5.583033929e-26
1.032988801e-25
1.969369706e-25
3.532034788e-25
4.678179444e-25
8.494944179e-25
1.258698558e-24
1.714537892e-24
1.837037828e-24
2.030239314e-24
1.996214443e-24
2.041695285e-24
1.961304921e-24
1.894701336e-24
1.846887915e-24
1.982418384e-24
2.10272287e-24
2.176405802e-24
2.163853227e-24
2.097206184e-24
2.155151133e-24
2.178670159e-24
2.119076453e-24
2.102269587e-24
1.830214914e-25
1.27750968e-25
1.169703678e-25
9.422241894e-26
7.713102203e-26
5.69405249e-26
4.621864019e-26
3.626014001e-26
1.947725723e-26
1.523024679e-26
1.323799664e-26
1.099402379e-26
8.123179292e-27
6.66836121e-27
4.134396649e-27
2.874146755e-27
4.458098208e-27
3.57968646e-27
2.040975073e-27
1.366777552e-27
8.522902111e-28
7.371920577e-28
5.323112349e-28
3.530579431e-28
2.582740159e-28
2.028131305e-28
1.359424973e-28
1.067008033e-28
8.032120815e-29
6.700034048e-29
6.475459429e-29
4.649462021e-29
3.441895471e-29
3.065964659e-29
2.845647437e-29
2.63803574e-29
1.996210785e-29
6.429221137e-30
1.926484118e-30
4.901598313e-30
2.904557155e-29
1.054368773e-28
7.053318351e-29
4.15272117e-29
3.089209554e-29
2.626467826e-29
3.281429176e-29
3.913572288e-29
4.065019958e-29
2.759174304e-29
2.480420949e-29
2.993570847e-29
4.664630352e-29
5.624029787e-29
7.784628184e-29
1.183295529e-28
1.740066555e-28
2.573473161e-28
3.175346235e-28
6.253332011e-28
1.049042466e-27
1.775250178e-27
3.173779878e-27
4.705173997e-27
4.542327341e-27
8.049820757e-27
1.645148563e-26
3.326815488e-26
7.26822893e-26
1.188143868e-25
3.077594689e-25
7.374491869e-25
1.408248467e-24
1.941799291e-24
3.38924856e-24
7.642198054e-24
1.361729199e-23
2.669219207e-23
4.796957974e-23
6.173221601e-23
1.12967615e-22
1.617425025e-22
2.258312178e-22
2.396342037e-22
2.586506218e-22
2.327063064e-22
2.501560315e-22
2.436539379e-22
2.260001999e-22
2.200708335e-22
2.404681897e-22
2.533877733e-22
2.626839569e-22
2.658166348e-22
2.337742292e-22
2.49642695e-22
2.526859375e-22
2.493142112e-22
2.411454295e-22
2.841522959e-23
2.292970798e-23
1.730081113e-23
1.429660576e-23
1.230174041e-23
8.727056773e-24
6.854921259e-24
5.739327541e-24
3.068296392e-24
2.335274909e-24
1.972244894e-24
1.721088249e-24
1.27457911e-24
1.039718331e-24
6.564178245e-25
4.412348821e-25
7.550435863e-25
5.302401647e-25
3.282446897e-25
2.109893927e-25
1.331877585e-25
1.083800411e-25
8.248853943e-26
5.534099641e-26
3.872885133e-26
3.125824464e-26
2.023708833e-26
1.601940105e-26
1.221392558e-26
9.963443006e-27
1.044927778e-26
7.1305861e-27
5.39838207e-27
4.816279003e-27
4.373895199e-27
4.100285318e-27
3.074442246e-27
8.866129681e-28
2.765657142e-28
8.56343485e-28
5.462800042e-27
2.237373677e-26
1.151070211e-26
5.655502182e-27
4.577165087e-27
3.520533307e-27
5.00622922e-27
6.091579921e-27
6.153524505e-27
4.269857646e-27
3.913717798e-27
4.878574588e-27
6.915180046e-27
8.553121283e-27
1.221458586e-26
1.751605057e-26
2.644021162e-26
4.223053221e-26
5.275506998e-26
9.480940062e-26
1.536884933e-25
2.560459908e-25
4.896928663e-25
6.845164145e-25
6.160532505e-25
1.1817571e-24
2.321721653e-24
4.62191027e-24
1.047247387e-23
1.732385546e-23
4.353776848e-23
1.056560551e-22
1.939971311e-22
2.687017358e-22
4.389770757e-22
1.036523357e-21
1.915641211e-21
3.433973045e-21
7.153446264e-21
7.991748532e-21
1.545458987e-20
2.207573916e-20
2.843165032e-20
3.141116196e-20
3.437689966e-20
2.919279679e-20
3.031164759e-20
3.114216688e-20
2.622878745e-20
2.741816786e-20
2.853241987e-20
3.003874549e-20
3.094625669e-20
3.172344786e-20
3.075527662e-20
3.078638802e-20
3.022091639e-20
2.910451997e-20
2.745440883e-20
4.418145535e-21
4.046696628e-21
2.781074515e-21
2.335566356e-21
1.914458425e-21
1.410140676e-21
9.345675199e-22
9.183657631e-22
4.816101465e-22
3.752356975e-22
3.339788864e-22
2.688759533e-22
1.933045936e-22
1.61379384e-22
9.953951409e-23
6.717753964e-23
1.199857696e-22
8.161194906e-23
5.194894307e-23
3.199896025e-23
2.113810422e-23
1.718592314e-23
1.276916348e-23
8.56009552e-24
6.249343715e-24
4.927673885e-24
3.013362873e-24
2.538344605e-24
1.805330949e-24
1.640071151e-24
1.591105846e-24
1.088178167e-24
8.351396766e-25
7.634417603e-25
6.762491245e-25
6.34834312e-25
4.800169836e-25
1.196600422e-25
3.766490813e-26
1.534585592e-25
1.233566182e-24
6.136953356e-24
2.006464655e-24
8.597166402e-25
6.836358023e-25
5.977475044e-25
7.622530042e-25
9.350754312e-25
1.029051937e-24
6.500253674e-25
5.95127491e-25