/*--------------------------------*- C++ -*----------------------------------*\
| =========                 |                                                 |
| \\      /  F ield         | OpenFOAM: The Open Source CFD Toolbox           |
|  \\    /   O peration     | Version:  v1706                                 |
|   \\  /    A nd           | Web:      www.OpenFOAM.com                      |
|    \\/     M anipulation  |                                                 |
\*---------------------------------------------------------------------------*/
FoamFile
{
    version     2.0;
    format      ascii;
    class       volScalarField;
    location    "0.00272";
    object      NO;
}
// * * * * * * * * * * * * * * * * * * * * * * * * * * * * * * * * * * * * * //

dimensions      [0 0 0 0 0 0 0];


internalField   nonuniform List<scalar> 
11682
(
9.540980875e-46
8.438824315e-46
7.643926731e-46
6.517321068e-46
5.664089603e-46
4.834910499e-46
4.235579514e-46
3.41099289e-46
2.534636612e-46
2.177480399e-46
1.841137777e-46
1.497532265e-46
1.164668991e-46
9.941640696e-47
8.151520285e-47
6.383092136e-47
4.806525566e-47
4.269051372e-47
3.464056574e-47
2.707794796e-47
2.125154237e-47
1.715688047e-47
1.494903873e-47
1.106937207e-47
9.705692854e-48
7.972919766e-48
6.57522855e-48
5.408779733e-48
4.498130047e-48
3.90429921e-48
3.369145829e-48
2.863007896e-48
2.512839755e-48
2.223299606e-48
2.088074915e-48
2.00966143e-48
1.81556905e-48
1.570771109e-48
1.469439746e-48
1.424138811e-48
1.464012526e-48
1.521764479e-48
1.503658647e-48
1.385571654e-48
1.48981756e-48
1.399342581e-48
1.596904841e-48
1.782384339e-48
1.975347928e-48
2.25849284e-48
2.51447191e-48
2.986229171e-48
3.677249272e-48
4.775242304e-48
6.153578137e-48
8.367349366e-48
1.145392478e-47
1.521517312e-47
2.266638517e-47
3.220779366e-47
4.407773612e-47
6.744755851e-47
1.017771529e-46
1.433863723e-46
2.440241218e-46
3.89039444e-46
6.331400801e-46
1.019693058e-45
1.876094237e-45
3.433772979e-45
5.991313622e-45
1.108811374e-44
1.979698167e-44
3.564253094e-44
6.416432612e-44
1.208963253e-43
2.217798959e-43
3.888615481e-43
6.558702239e-43
1.002818469e-42
1.548623631e-42
2.184087462e-42
3.095734088e-42
4.087325133e-42
5.043208272e-42
5.987049064e-42
7.101822516e-42
8.202785679e-42
9.347050125e-42
1.043970764e-41
1.128357655e-41
1.25177165e-41
1.351246224e-41
1.439172361e-41
1.524240992e-41
1.602959165e-41
1.675574261e-41
1.742370193e-41
1.798587632e-41
3.958271973e-44
3.614011373e-44
3.262817143e-44
2.751455448e-44
2.400455157e-44
2.098882972e-44
1.772583815e-44
1.450591093e-44
1.087858625e-44
9.112991167e-45
7.720457169e-45
6.289131732e-45
4.955993101e-45
4.128051944e-45
3.403162697e-45
2.66370896e-45
2.105987711e-45
1.807423081e-45
1.453510818e-45
1.133712311e-45
8.91873846e-46
7.340827651e-46
6.265566849e-46
5.054845736e-46
4.059545517e-46
3.369582772e-46
2.762256997e-46
2.269116133e-46
1.886626614e-46
1.643472487e-46
1.42573384e-46
1.233785022e-46
1.057946467e-46
9.319774558e-47
8.690204684e-47
8.524542827e-47
7.649763472e-47
6.55957403e-47
6.183749021e-47
6.073574291e-47
6.191998933e-47
6.348603684e-47
6.251777535e-47
6.104011738e-47
6.217629173e-47
6.391216076e-47
6.778252769e-47
7.429287702e-47
8.193570498e-47
9.3809803e-47
1.068747042e-46
1.258355645e-46
1.535911125e-46
1.970793767e-46
2.57052427e-46
3.43588067e-46
4.686930391e-46
6.53947092e-46
9.261769759e-46
1.313039523e-45
1.931697705e-45
2.749481087e-45
4.112277057e-45
6.37760248e-45
9.755758107e-45
1.544413802e-44
2.5071174e-44
4.258639381e-44
7.477254984e-44
1.344985074e-43
2.440597651e-43
4.301123093e-43
7.654234384e-43
1.358850772e-42
2.444939095e-42
4.553018624e-42
8.462312349e-42
1.477359245e-41
2.452738675e-41
3.773156618e-41
5.637900193e-41
8.209706461e-41
1.124099456e-40
1.473019593e-40
1.834956286e-40
2.184533159e-40
2.523863605e-40
2.89674272e-40
3.23611832e-40
3.661973186e-40
4.014140534e-40
4.343942794e-40
4.651095625e-40
4.934736336e-40
5.211656939e-40
5.459763844e-40
5.691592475e-40
5.910496439e-40
6.094948658e-40
1.609862959e-42
1.429390822e-42
1.294012027e-42
1.101424678e-42
9.690256243e-43
8.343594802e-43
7.034523621e-43
5.811279128e-43
4.348902713e-43
3.631162509e-43
3.071748429e-43
2.499448543e-43
1.95809154e-43
1.6291903e-43
1.360202039e-43
1.055660626e-43
8.437638441e-44
7.272067271e-44
5.789469564e-44
4.505091594e-44
3.54031402e-44
2.938259777e-44
2.503303546e-44
2.015210272e-44
1.649650396e-44
1.332361781e-44
1.103083719e-44
9.25484133e-45
7.592495538e-45
6.569620309e-45
5.653761234e-45
4.938402019e-45
4.225426788e-45
3.714239887e-45
3.529127501e-45
3.396203689e-45
3.083942601e-45
2.688855903e-45
2.462135239e-45
2.437546394e-45
2.457524583e-45
2.489339261e-45
2.465544718e-45
2.383769761e-45
2.444112191e-45
2.557296088e-45
2.68790717e-45
2.942478723e-45
3.225527368e-45
3.699318872e-45
4.208415062e-45
4.921179979e-45
6.074468914e-45
7.731518392e-45
1.005713047e-44
1.329310298e-44
1.826692851e-44
2.515728524e-44
3.591725225e-44
5.12540566e-44
7.469484959e-44
1.072173591e-43
1.602644686e-43
2.424221352e-43
3.661704285e-43
5.847064127e-43
9.424395126e-43
1.602582415e-42
2.796487329e-42
5.007206805e-42
9.05970632e-42
1.582231618e-41
2.815417237e-41
4.946230555e-41
8.839647674e-41
1.648917634e-40
3.027517826e-40
5.239221103e-40
8.688650367e-40
1.316378565e-39
1.994967237e-39
2.874727702e-39
3.868543638e-39
5.044056774e-39
6.219574952e-39
7.34258278e-39
8.461135144e-39
9.588263959e-39
1.072409425e-38
1.200185841e-38
1.300737669e-38
1.406055903e-38
1.508103555e-38
1.598685851e-38
1.683706962e-38
1.743210373e-38
1.818358091e-38
1.882986472e-38
1.941621084e-38
6.422999386e-41
5.734682505e-41
5.195459059e-41
4.392353111e-41
3.912308227e-41
3.378562573e-41
2.784819503e-41
2.327028241e-41
1.731031029e-41
1.449297303e-41
1.225155427e-41
9.868776756e-42
7.842431584e-42
6.649382169e-42
5.386012737e-42
4.298264585e-42
3.47159659e-42
2.922604874e-42
2.307428219e-42
1.790147559e-42
1.398193314e-42
1.179839085e-42
1.008428319e-42
7.97429727e-43
6.569153856e-43
5.435858907e-43
4.422830801e-43
3.677366379e-43
3.024651426e-43
2.646908848e-43
2.293093876e-43
1.988538858e-43
1.69024885e-43
1.501387498e-43
1.430059413e-43
1.367318677e-43
1.233095302e-43
1.086590923e-43
9.558820688e-44
9.683900079e-44
9.889281937e-44
1.022016365e-43
9.728643154e-44
9.513797223e-44
9.595539877e-44
1.012335302e-43
1.064004954e-43
1.166921802e-43
1.26830482e-43
1.44683789e-43
1.649798995e-43
1.93516468e-43
2.392542569e-43
3.031073253e-43
3.924994065e-43
5.21173596e-43
7.141094655e-43
9.515094475e-43
1.390641055e-42
1.987900067e-42
2.888184077e-42
4.131309571e-42
6.125835401e-42
9.182190437e-42
1.364887929e-41
2.195701401e-41
3.521632512e-41
6.012157921e-41
1.059192209e-40
1.857352302e-40
3.371252166e-40
5.874358748e-40
1.032644352e-39
1.790325068e-39
3.166924101e-39
5.952326535e-39
1.082211542e-38
1.862917309e-38
3.070784128e-38
4.594711564e-38
6.979942438e-38
9.969569997e-38
1.326639087e-37
1.71489257e-37
2.103651985e-37
2.440747651e-37
2.827830366e-37
3.163504537e-37
3.541225875e-37
3.895830112e-37
4.284745316e-37
4.593857361e-37
4.879770552e-37
5.16071928e-37
5.406685042e-37
5.629870146e-37
5.835099028e-37
6.005998761e-37
6.167176034e-37
2.549358714e-39
2.289699286e-39
2.089895988e-39
1.775516158e-39
1.545844732e-39
1.36420861e-39
1.104113158e-39
9.335182012e-40
7.058667982e-40
5.765191809e-40
4.95546272e-40
3.90920266e-40
3.067213446e-40
2.644272074e-40
2.165336687e-40
1.719008767e-40
1.369497602e-40
1.17004342e-40
9.25136114e-41
7.132932322e-41
5.597259157e-41
4.758083976e-41
4.08260189e-41
3.207481186e-41
2.608829505e-41
2.163004892e-41
1.779259765e-41
1.458686436e-41
1.210527506e-41
1.059827572e-41
9.227145955e-42
8.002239898e-42
6.755715151e-42
5.973019253e-42
5.731909989e-42
5.472750223e-42
4.999880902e-42
4.353917646e-42
3.967293065e-42
3.839071939e-42
3.927182298e-42
4.054789609e-42
3.938276857e-42
3.814682674e-42
3.84231297e-42
4.00066137e-42
4.226491731e-42
4.629766421e-42
4.988162243e-42
5.723651737e-42
6.461225526e-42
7.6860261e-42
9.453711391e-42
1.184279984e-41
1.531268978e-41
2.030890011e-41
2.78819917e-41
3.864376775e-41
5.380372857e-41
7.714842558e-41
1.117892421e-40
1.581890312e-40
2.343543654e-40
3.45588635e-40
5.301724352e-40
8.271604715e-40
1.31434175e-39
2.249067376e-39
3.964947885e-39
6.931376774e-39
1.258472428e-38
2.20934412e-38
3.799035431e-38
6.4871915e-38
1.163511112e-37
2.147193626e-37
3.87197923e-37
6.585949866e-37
1.085355342e-36
1.657152836e-36
2.447604073e-36
3.467447879e-36
4.545971537e-36
5.855220463e-36
7.07354633e-36
8.22479026e-36
9.454689083e-36
1.047725069e-35
1.180950908e-35
1.292670879e-35
1.395995602e-35
1.49101528e-35
1.582214684e-35
1.666295601e-35
1.72355981e-35
1.804511637e-35
1.859160355e-35
1.910757865e-35
1.95952858e-35
1.025459952e-37
9.206851193e-38
8.575948205e-38
7.058405285e-38
6.41473012e-38
5.514096914e-38
4.465789367e-38
3.744456135e-38
2.820135225e-38
2.283352101e-38
1.992947444e-38
1.588711867e-38
1.24734931e-38
1.057353079e-38
8.628425434e-39
6.845121336e-39
5.560278383e-39
4.677686689e-39
3.722285012e-39
2.850566539e-39
2.248738505e-39
1.915357195e-39
1.638986677e-39
1.284231565e-39
1.044082907e-39
8.632236477e-40
7.147863753e-40
5.796856326e-40
4.863101556e-40
4.236826998e-40
3.710414575e-40
3.20327781e-40
2.725299305e-40
2.399750772e-40
2.298504117e-40
2.191099537e-40
2.003923881e-40
1.753494823e-40
1.579052854e-40
1.51756099e-40
1.552773117e-40
1.605568578e-40
1.576088608e-40
1.53541823e-40
1.52187708e-40
1.572086012e-40
1.698866611e-40
1.84206533e-40
1.964632155e-40
2.247396288e-40
2.527228161e-40
3.038148101e-40
3.771998345e-40
4.6897377e-40
6.140695907e-40
7.892698521e-40
1.094941787e-39
1.508573001e-39
2.102532928e-39
2.990873946e-39
4.324797677e-39
6.205435441e-39
9.049770053e-39
1.323481787e-38
2.011766703e-38
3.120670981e-38
5.031517202e-38
8.441691239e-38
1.465027725e-37
2.57152646e-37
4.678170491e-37
8.193526092e-37
1.397195145e-36
2.395947672e-36
4.206695252e-36
7.758341768e-36
1.388074723e-35
2.355988971e-35
3.867061256e-35
5.785225076e-35
8.567265634e-35
1.207633432e-34
1.581122968e-34
2.003210577e-34
2.420479509e-34
2.804515371e-34
3.173362016e-34
3.503836375e-34
3.889582835e-34
4.231930602e-34
4.569903245e-34
4.841183888e-34
5.127520836e-34
5.363940896e-34
5.604458517e-34
5.78184538e-34
5.913273651e-34
6.069152844e-34
6.237237689e-34
4.169950209e-36
3.719634987e-36
3.450421427e-36
2.894855814e-36
2.616442819e-36
2.214796217e-36
1.802623772e-36
1.500695722e-36
1.132685625e-36
9.24734217e-37
8.016681174e-37
6.331047245e-37
4.975932745e-37
4.258495165e-37
3.424262194e-37
2.746237747e-37
2.217166449e-37
1.903234931e-37
1.491741193e-37
1.139337517e-37
9.065385534e-38
7.696455778e-38
6.596427062e-38
5.13687061e-38
4.159556223e-38
3.460759183e-38
2.864676909e-38
2.315351363e-38
1.961442927e-38
1.712313858e-38
1.492274415e-38
1.281865678e-38
1.082325494e-38
9.583747593e-39
9.230400917e-39
8.74944594e-39
7.972591102e-39
6.980320674e-39
6.285304347e-39
6.06162162e-39
6.148825129e-39
6.266999715e-39
6.242269073e-39
6.1001239e-39
6.04370616e-39
6.316366351e-39
6.811520058e-39
7.349677238e-39
7.819210051e-39
8.903605721e-39
1.015398033e-38
1.19378766e-38
1.49457645e-38
1.843120355e-38
2.41165353e-38
3.189565955e-38
4.341277721e-38
5.943975387e-38
8.165296257e-38
1.157307084e-37
1.67557097e-37
2.396155017e-37
3.542842699e-37
5.165304129e-37
7.681589504e-37
1.184409471e-36
1.902258687e-36
3.163279974e-36
5.49998192e-36
9.656280158e-36
1.738239674e-35
3.023810298e-35
5.142054158e-35
8.813421439e-35
1.502529795e-34
2.802397106e-34
4.981415031e-34
8.432727933e-34
1.375789481e-33
2.068865162e-33
3.007500369e-33
4.203104703e-33
5.544499473e-33
6.890081098e-33
8.241448659e-33
9.558805069e-33
1.06293217e-32
1.173901329e-32
1.29013584e-32
1.387727654e-32
1.496039245e-32
1.584507501e-32
1.660465703e-32
1.715720937e-32
1.802830017e-32
1.855346089e-32
1.915020713e-32
1.965040323e-32
2.002768438e-32
1.683642086e-34
1.528756331e-34
1.398514338e-34
1.168703768e-34
1.05683689e-34
8.898250286e-35
7.476123015e-35
6.023892973e-35
4.551475046e-35
3.704153934e-35
3.216865728e-35
2.585617961e-35
2.003554169e-35
1.723479257e-35
1.39939587e-35
1.103495371e-35
9.095492433e-36
7.651967469e-36
5.993430801e-36
4.552027829e-36
3.621234128e-36
3.130770102e-36
2.655581408e-36
2.063605406e-36
1.662449457e-36
1.395323371e-36
1.149899773e-36
9.227905407e-37
7.843153263e-37
6.871023489e-37
5.997723542e-37
5.131572127e-37
4.366098797e-37
3.904045495e-37
3.721885497e-37
3.506717534e-37
3.219230885e-37
2.772638483e-37
2.569858268e-37
2.44158193e-37
2.467684446e-37
2.547969192e-37
2.506575564e-37
2.416703519e-37
2.415047361e-37
2.541635681e-37
2.740823923e-37
2.930846482e-37
3.163703794e-37
3.514502024e-37
4.014603275e-37
4.801454918e-37
5.923631734e-37
7.278972893e-37
9.474321833e-37
1.252542754e-36
1.697266967e-36
2.349100792e-36
3.208667527e-36
4.489390887e-36
6.510190906e-36
9.25251401e-36
1.377839445e-35
2.01729606e-35
2.954467121e-35
4.51329535e-35
7.220306994e-35
1.205997053e-34
2.054514045e-34
3.606116357e-34
6.451362145e-34
1.110177937e-33
1.898127465e-33
3.223520028e-33
5.678526426e-33
1.015468687e-32
1.788811483e-32
3.04532796e-32
4.902774871e-32
7.293838251e-32
1.053812328e-31
1.463131957e-31
1.921562541e-31
2.373007884e-31
2.814163578e-31
3.226976115e-31
3.555852889e-31
3.889004144e-31
4.254090228e-31
4.610065446e-31
4.898263145e-31
5.16201426e-31
5.37980599e-31
5.562195338e-31
5.794280539e-31
5.981840819e-31
6.151815298e-31
6.286785439e-31
6.399149664e-31
6.857714183e-33
6.161396041e-33
5.621350584e-33
4.698161725e-33
4.241421658e-33
3.588585253e-33
3.022527535e-33
2.416776743e-33
1.837249443e-33
1.502706923e-33
1.291458648e-33
1.057295631e-33
8.103764622e-34
6.988918878e-34
5.675348188e-34
4.420853613e-34
3.669809187e-34
3.067271287e-34
2.412528212e-34
1.822868652e-34
1.451211644e-34
1.26810713e-34
1.062770385e-34
8.38541612e-35
6.628494683e-35
5.613793676e-35
4.627219497e-35
3.681283104e-35
3.14732164e-35
2.768517007e-35
2.415678076e-35
2.052336605e-35
1.746990731e-35
1.56678608e-35
1.48647638e-35
1.431682635e-35
1.313014969e-35
1.132400239e-35
1.035796893e-35
9.823800917e-36
1.01202116e-35
1.022230832e-35
1.000736566e-35
9.654603714e-36
9.665255009e-36
1.017783923e-35
1.096247425e-35
1.167936022e-35
1.259313112e-35
1.421060697e-35
1.598623708e-35
1.90507315e-35
2.349997327e-35
2.878733027e-35
3.730883847e-35
4.873850376e-35
6.593099519e-35
9.168524785e-35
1.252258608e-34
1.760450735e-34
2.536897592e-34
3.586783485e-34
5.334742902e-34
7.858906512e-34
1.139226783e-33
1.708646905e-33
2.745661136e-33
4.57290737e-33
7.655601945e-33
1.346476263e-32
2.402813128e-32
4.178941252e-32
6.974451788e-32
1.181263718e-31
2.060945212e-31
3.673803679e-31
6.42064748e-31
1.093042e-30
1.749342793e-30
2.580958773e-30
3.694793445e-30
5.120256292e-30
6.690868239e-30
8.323952774e-30
9.617230261e-30
1.095400988e-29
1.189752787e-29
1.281354004e-29
1.396577051e-29
1.515016791e-29
1.609671561e-29
1.68789943e-29
1.746986112e-29
1.784742283e-29
1.858129693e-29
1.91874435e-29
1.977140538e-29
2.009360971e-29
2.045797982e-29
2.782425104e-31
2.4642434e-31
2.321706435e-31
1.941866506e-31
1.72199958e-31
1.455541503e-31
1.211590656e-31
9.694623519e-32
7.386378358e-32
6.166631484e-32
5.211920775e-32
4.288644448e-32
3.309087928e-32
2.837796138e-32
2.332566766e-32
1.771124016e-32
1.483531287e-32
1.218997611e-32
9.70906895e-33
7.346555684e-33
5.889112895e-33
5.125178399e-33
4.363174055e-33
3.40636823e-33
2.704224494e-33
2.248859778e-33
1.867611578e-33
1.505488492e-33
1.266800989e-33
1.120450745e-33
9.771945215e-34
8.296708603e-34
6.99938195e-34
6.294167917e-34
6.034752566e-34
5.766832307e-34
5.270647747e-34
4.558662804e-34
4.170462712e-34
4.003765364e-34
4.118338699e-34
4.111016662e-34
4.013152409e-34
3.853657777e-34
3.879918686e-34
4.087967609e-34
4.388314762e-34
4.661870803e-34
5.038147879e-34
5.626811747e-34
6.320304381e-34
7.494096274e-34
9.338531109e-34
1.144094941e-33
1.480891293e-33
1.9340522e-33
2.605204776e-33
3.578468341e-33
4.88942792e-33
6.853535065e-33
9.882871969e-33
1.394350604e-32
2.061672093e-32
3.038427768e-32
4.385883044e-32
6.417151895e-32
1.041542173e-31
1.728536704e-31
3.021739122e-31
5.084445215e-31
9.06842445e-31
1.565587235e-30
2.575764613e-30
4.408604217e-30
7.474320899e-30
1.328289688e-29
2.292412993e-29
3.927380922e-29
6.301907367e-29
9.118013115e-29
1.314978062e-28
1.807315126e-28
2.35351429e-28
2.904139117e-28
3.373136848e-28
3.749276574e-28
4.034110174e-28
4.339656028e-28
4.722776114e-28
5.027956396e-28
5.306370756e-28
5.530133733e-28
5.700132695e-28
5.735450072e-28
5.996722678e-28
6.17576148e-28
6.362915055e-28
6.49923618e-28
6.577977869e-28
1.142223856e-29
1.004982233e-29
9.441206193e-30
7.876519291e-30
6.921062233e-30
5.866564038e-30
4.849129402e-30
3.918286465e-30
2.978215374e-30
2.507373712e-30
2.122525735e-30
1.752597643e-30
1.373346801e-30
1.159828442e-30
9.443371059e-31
7.133697406e-31
6.009561128e-31
5.088214681e-31
3.920196315e-31
2.951291047e-31
2.396516254e-31
2.074355432e-31
1.768332142e-31
1.383453001e-31
1.11407772e-31
9.193786735e-32
7.551347415e-32
6.145867535e-32
5.114987632e-32
4.546596558e-32
3.954198489e-32
3.321716447e-32
2.769443369e-32
2.570202545e-32
2.43069464e-32
2.353396156e-32
2.102199335e-32
1.822898396e-32
1.665013522e-32
1.640942744e-32
1.667212546e-32
1.638505407e-32
1.615644586e-32
1.558901373e-32
1.580567794e-32
1.643288172e-32
1.758431221e-32
1.864013954e-32
2.005684848e-32
2.240869432e-32
2.509063974e-32
2.999433271e-32
3.714331091e-32
4.558280581e-32
5.864505756e-32
7.671965239e-32
1.034490357e-31
1.398813823e-31
1.922697793e-31
2.677671192e-31
3.856316493e-31
5.413155443e-31
8.049843152e-31
1.173232816e-30
1.687432747e-30
2.536482383e-30
3.962108604e-30
6.64930842e-30
1.156133667e-29
1.928687679e-29
3.406283563e-29
5.882380101e-29
9.556379049e-29
1.620610857e-28
2.753992114e-28
4.777296575e-28
8.448921273e-28
1.42374629e-27
2.270069597e-27
3.243703067e-27
4.643667486e-27
6.334959171e-27
8.330522175e-27
1.005391024e-26
1.17042647e-26
1.296845109e-26
1.36291158e-26
1.475638551e-26
1.581652962e-26
1.670961922e-26
1.751951959e-26
1.817034904e-26
1.852708205e-26
1.92285334e-26
1.981961892e-26
2.032037749e-26
2.073682407e-26
2.104750746e-26
2.121456611e-26
4.71910842e-28
4.19703965e-28
3.83359028e-28
3.157549911e-28
2.798838226e-28
2.375320987e-28
1.965559491e-28
1.605099606e-28
1.198540624e-28
1.01237913e-28
8.698046254e-29
7.121789368e-29
5.64599703e-29
4.728560047e-29
3.82422694e-29
2.938605851e-29
2.443306392e-29
2.045670883e-29
1.593509185e-29
1.176418626e-29
9.728140103e-30
8.411483809e-30
7.152480045e-30
5.587555314e-30
4.526156572e-30
3.766640266e-30
3.05830917e-30
2.485593295e-30
2.075483991e-30
1.842850709e-30
1.600211158e-30
1.335053244e-30
1.133869363e-30
1.040542031e-30
9.784378451e-31
9.513172907e-31
8.4910851e-31
7.283809165e-31
6.754785907e-31
6.769369166e-31
6.726528597e-31
6.665912707e-31
6.511868154e-31
6.255527557e-31
6.401259874e-31
6.637659315e-31
7.064908697e-31
7.471471594e-31
7.996978091e-31
9.007191927e-31
9.99969422e-31
1.192949679e-30
1.475819564e-30
1.802533171e-30
2.332016932e-30
3.031277726e-30
4.092341866e-30
5.648225858e-30
7.583196302e-30
1.045705816e-29
1.515483082e-29
2.095669067e-29
3.143061943e-29
4.590853235e-29
6.434488971e-29
9.695586631e-29
1.512364968e-28
2.547118463e-28
4.438462472e-28
7.324238593e-28
1.284289195e-27
2.211383677e-27
3.532914886e-27
5.984719876e-27
9.989180027e-27
1.745034732e-26
3.070746884e-26
5.122300526e-26
8.120625495e-26
1.182254354e-25
1.6489831e-25
2.273485039e-25
2.926799718e-25
3.575682993e-25
4.055593279e-25
4.451827257e-25
4.706148555e-25
4.975834872e-25
5.280709548e-25
5.526797068e-25
5.781270543e-25
5.995129427e-25
6.065302288e-25
6.268419069e-25
6.454022911e-25
6.626935508e-25
6.780112514e-25
6.86191817e-25
6.879954136e-25
1.915369342e-26
1.742733081e-26
1.557283047e-26
1.283230512e-26
1.141184369e-26
9.782184313e-27
7.987680416e-27
6.618385866e-27
4.869662611e-27
4.099527392e-27
3.521951856e-27
2.895542717e-27
2.324706924e-27
1.937892654e-27
1.551098512e-27
1.193924732e-27
9.898884931e-28
8.305248884e-28
6.44444395e-28
4.897464462e-28
3.959388397e-28
3.424577025e-28
2.900927685e-28
2.245453631e-28
1.847375319e-28
1.545145702e-28
1.247382739e-28
1.003951677e-28
8.378437354e-29
7.451304255e-29
6.505317213e-29
5.367317078e-29
4.542363355e-29
4.220496424e-29
3.996594415e-29
3.826925054e-29
3.430093081e-29
2.918647296e-29
2.719410007e-29
2.759173837e-29
2.784806286e-29
2.691595607e-29
2.673298934e-29
2.611919794e-29
2.620119453e-29
2.696906992e-29
2.848373032e-29
2.983744974e-29
3.223231372e-29
3.606696733e-29
3.952169522e-29
4.750770462e-29
5.923237003e-29
6.997144496e-29
9.246712116e-29
1.213713993e-28
1.598617576e-28
2.230327795e-28
2.970891091e-28
4.102409951e-28
5.969110013e-28
8.420517734e-28
1.244873443e-27
1.797866501e-27
2.507699215e-27
3.71874727e-27
5.911380982e-27
9.921789643e-27
1.695587505e-26
2.776859376e-26
4.922669472e-26
8.360688298e-26
1.300624906e-25
2.20931038e-25
3.740439997e-25
6.62627243e-25
1.121993149e-24
1.866484732e-24
2.968764544e-24
4.264354047e-24
6.022494977e-24
8.125669713e-24
1.031109187e-23
1.248638638e-23
1.381384922e-23
1.524283623e-23
1.606889493e-23
1.677994202e-23
1.769087563e-23
1.834629989e-23
1.916368381e-23
1.987129635e-23
2.026050587e-23
2.084538201e-23
2.133732467e-23
2.188548615e-23
2.227431088e-23
2.245631331e-23
2.236872621e-23
8.022488434e-25
7.116319928e-25
6.346381465e-25
5.462883901e-25
4.660892782e-25
4.004081292e-25
3.27806968e-25
2.706583839e-25
2.00645139e-25
1.677797417e-25
1.432135239e-25
1.185511892e-25
9.536640427e-26
7.961511117e-26
6.310740624e-26
4.865658111e-26
4.004560719e-26
3.438494162e-26
2.599676025e-26
2.007800112e-26
1.616475015e-26
1.400570205e-26
1.191136194e-26
9.256265405e-27
7.564200041e-27
6.277470618e-27
5.03502126e-27
4.122264013e-27
3.392229003e-27
3.0242731e-27
2.664657533e-27
2.185713616e-27
1.833959945e-27
1.726321331e-27
1.622780668e-27
1.548884164e-27
1.413102356e-27
1.187852182e-27
1.10536047e-27
1.132077028e-27
1.138854092e-27
1.10923543e-27
1.092278284e-27
1.06241196e-27
1.066323702e-27
1.091951457e-27
1.152839371e-27
1.194620267e-27
1.309220632e-27
1.445475743e-27
1.591129681e-27
1.901110264e-27
2.34252024e-27
2.867307182e-27
3.723860642e-27
4.839397393e-27
6.433966424e-27
8.870467593e-27
1.150071261e-26
1.619820439e-26
2.364234361e-26
3.301727112e-26
4.921718412e-26
7.133430002e-26
9.675771651e-26
1.43484405e-25
2.283019094e-25
3.840526544e-25
6.473971511e-25
1.046711283e-24
1.875651997e-24
3.231101512e-24
4.888262341e-24
8.326869672e-24
1.403147767e-23
2.452141611e-23
4.140960273e-23
6.875391734e-23
1.075114931e-22
1.526454238e-22
2.179246918e-22
2.917696305e-22
3.613712165e-22
4.37127466e-22
4.863098008e-22
5.250953894e-22
5.492427476e-22
5.609711905e-22
5.937994e-22
6.15760762e-22
6.39882588e-22
6.632559206e-22
6.756468423e-22
6.907426956e-22
6.949196624e-22
7.153047858e-22
7.29339601e-22
7.354595781e-22
7.287022926e-22
3.278010092e-23
2.94803196e-23
2.631576751e-23
2.268304556e-23
1.924573488e-23
1.651803056e-23
1.366549182e-23
1.118006281e-23
8.24172682e-24
6.910103477e-24
5.908578343e-24
4.814171052e-24
3.874764815e-24
3.278674933e-24
2.577094598e-24
2.011414971e-24
1.626143882e-24
1.405496945e-24
1.058248197e-24
8.304924686e-25
6.659755532e-25
5.746249461e-25
4.850404899e-25
3.751482323e-25
3.087701513e-25
2.565908665e-25
2.079529178e-25
1.689427747e-25
1.377258097e-25
1.234903041e-25
1.088939425e-25
9.007746702e-26
7.423283377e-26
7.043799928e-26
6.68497027e-26
6.376818358e-26
5.762923075e-26
4.805456271e-26
4.531192956e-26
4.678937206e-26
4.676514483e-26
4.546829833e-26
4.447663451e-26
4.332751452e-26
4.347325832e-26
4.4159585e-26
4.683562599e-26
4.902096909e-26
5.314582821e-26
5.787788419e-26
6.418550398e-26
7.675934058e-26
9.596063355e-26
1.134049811e-25
1.485253108e-25
1.937930905e-25
2.614333243e-25
3.564040927e-25
4.704795828e-25
6.441187394e-25
9.335212739e-25
1.309023277e-24
1.941778993e-24
2.769580179e-24
3.758335338e-24
5.565066189e-24
8.837662271e-24
1.489594405e-23
2.552308503e-23
4.02716241e-23
7.192457771e-23
1.237364658e-22
1.893088279e-22
3.117202991e-22
5.224230683e-22
9.148967257e-22
1.536990057e-21
2.528465749e-21
3.878591745e-21
5.415978646e-21
7.871565061e-21
1.051363101e-20
1.318513302e-20
1.54775358e-20
1.721099896e-20
1.827405955e-20
1.890736375e-20
1.943845433e-20
2.009457191e-20
2.0633401e-20
2.138540635e-20
2.218998583e-20
2.263308763e-20
2.308479564e-20
2.325348144e-20
2.36668033e-20
2.399838718e-20
2.413474613e-20
2.40191915e-20
1.351768314e-21
1.216662336e-21
1.083963109e-21
9.390612965e-22
7.876307264e-22
6.882042463e-22
5.739786414e-22
4.644507231e-22
3.425257833e-22
2.862929907e-22
2.453208856e-22
1.966064202e-22
1.60760762e-22
1.355122193e-22
1.052578681e-22
8.371901646e-23
6.88300065e-23
5.964973762e-23
4.402774218e-23
3.438846354e-23
2.729854966e-23
2.389286277e-23
2.013623726e-23
1.54391239e-23
1.27286469e-23
1.069626668e-23
8.561079323e-24
6.93916662e-24
5.632897495e-24
5.024765436e-24
4.455158656e-24
3.69103956e-24
3.037729078e-24
2.881081538e-24
2.773576025e-24
2.616515862e-24
2.380410907e-24
1.995811951e-24
1.856508833e-24
1.94161137e-24
1.927312859e-24
1.846179403e-24
1.830062047e-24
1.77167587e-24
1.778869507e-24
1.7801533e-24
1.911351076e-24
2.001353081e-24
2.158466188e-24
2.342926811e-24
2.604190036e-24
3.105626481e-24
3.899229618e-24
4.578491326e-24
5.915337523e-24
7.870597042e-24
1.048906627e-23
1.436517788e-23
1.867445326e-23
2.598102252e-23
3.69923894e-23
5.167506604e-23
7.688520577e-23
1.128295066e-22
1.478845456e-22
2.172860733e-22
3.455027931e-22
5.787627028e-22
9.996040096e-22
1.516711856e-21
2.778919166e-21
4.73310662e-21
7.1592696e-21
1.187995042e-20
1.948841686e-20
3.438874914e-20
5.711550604e-20
9.469109557e-20
1.499944572e-19
1.974849625e-19
2.863733392e-19
3.811216738e-19
4.804671839e-19
5.478658197e-19
6.062467183e-19
6.335002205e-19
6.536386671e-19
6.653102086e-19
6.803957522e-19
6.927619355e-19
7.205103503e-19
7.459721165e-19
7.654103066e-19
7.746689866e-19
7.780622568e-19
7.900038873e-19
7.968167565e-19
7.933102333e-19
7.911783317e-19
5.764983462e-20
5.008845295e-20
4.478372598e-20
3.875699667e-20
3.372183086e-20
2.861561735e-20
2.409630447e-20
1.941291438e-20
1.4293946e-20
1.191779328e-20
1.018535661e-20
8.266733505e-21
6.664474942e-21
5.628937064e-21
4.363586172e-21
3.49930561e-21
2.841150346e-21
2.477634597e-21
1.89470804e-21
1.45104411e-21
1.126731412e-21
9.862700025e-22
8.364074679e-22
6.514431939e-22
5.316183714e-22
4.457472456e-22
3.519792482e-22
2.855757787e-22
2.344706506e-22
2.047940345e-22
1.863683786e-22
1.51677772e-22
1.273184895e-22
1.183611383e-22
1.136764009e-22
1.081066314e-22
9.835940039e-23
8.17777539e-23
7.724796554e-23
8.018434929e-23
7.977230719e-23
7.775114538e-23
7.520102688e-23
7.232200048e-23
7.297730653e-23
7.307999829e-23
7.85860588e-23
8.279831603e-23
8.809125886e-23
9.472124792e-23
1.067155927e-22
1.247423672e-22
1.599418024e-22
1.869953432e-22
2.375769241e-22
3.179993688e-22
4.252367587e-22
5.781765967e-22
7.395403061e-22
1.053285059e-21
1.496928388e-21
2.050357261e-21
3.040011404e-21
4.49118765e-21
5.816609206e-21
8.554920658e-21
1.352302383e-20
2.253493668e-20
3.947174928e-20
5.931783428e-20
1.073514528e-19
1.848586871e-19
2.736507135e-19
4.510511114e-19
7.407145267e-19
1.302065862e-18
2.128376839e-18
3.56007376e-18
5.643728e-18
7.265191784e-18
1.055067341e-17
1.383714077e-17
1.758337116e-17
1.98188353e-17
2.157412266e-17
2.182622766e-17
2.268952036e-17
2.301069345e-17
2.318745491e-17
2.348113453e-17
2.451039561e-17
2.530296101e-17
2.594529796e-17
2.632441582e-17
2.565380673e-17
2.626054363e-17
2.64451166e-17
2.639468312e-17
2.608916581e-17
2.430762376e-18
2.186896027e-18
1.855150267e-18
1.616206779e-18
1.431372278e-18
1.196681078e-18
1.003210046e-18
8.184460938e-19
6.005660878e-19
4.960690089e-19
4.212766767e-19
3.463195961e-19
2.799547216e-19
2.355789696e-19
1.832362242e-19
1.466743416e-19
1.211084893e-19
1.026015812e-19
8.021731702e-20
6.049163093e-20
4.712179834e-20
4.064685611e-20
3.500178446e-20
2.731046331e-20
2.197360681e-20
1.854180756e-20
1.446758187e-20
1.175037425e-20
9.694915201e-21
8.395754342e-21
7.85134976e-21
6.269305847e-21
5.299841282e-21
4.927239286e-21
4.706445838e-21
4.491451678e-21
4.071212413e-21
3.356384503e-21
3.310728698e-21
3.405455156e-21
3.334550282e-21
3.223269617e-21
3.102102302e-21
2.901496924e-21
3.00339134e-21
2.913693788e-21
3.242460054e-21
3.413461084e-21
3.592413057e-21
3.922542643e-21
4.446412741e-21
5.202382095e-21
6.523818192e-21
7.640665811e-21
9.78800312e-21
1.287825639e-20
1.735681352e-20
2.414869644e-20
3.088896227e-20
4.286744702e-20
6.049549512e-20
8.149852789e-20
1.241484685e-19
1.792358341e-19
2.289149603e-19
3.400971812e-19
5.286200501e-19
8.796210729e-19
1.567577228e-18
2.330506811e-18
4.200434963e-18
7.314845703e-18
1.039000012e-17
1.740330759e-17
2.788565418e-17
4.940781852e-17
8.167260421e-17
1.327491325e-16
2.208821132e-16
2.679815867e-16
3.968881905e-16
5.168548083e-16
6.360426724e-16
7.219046605e-16
7.826840435e-16
7.72726976e-16
7.903318046e-16
8.08283906e-16
7.899940884e-16
8.147721762e-16
8.374534231e-16
8.616554094e-16
8.80865142e-16
8.956075348e-16
8.938508978e-16
8.961961875e-16
8.912931193e-16
8.813657964e-16
8.629603944e-16
1.028801049e-16
9.607734132e-17
7.919885173e-17
6.964784213e-17
6.072566795e-17
5.118043371e-17
4.102984063e-17
3.493629413e-17
2.53777558e-17
2.106562614e-17
1.816994509e-17
1.462892291e-17
1.171850628e-17
9.917238794e-18
7.650084069e-18
6.169804659e-18
5.109152755e-18
4.320303734e-18
3.408644359e-18
2.527348335e-18
1.999554057e-18
1.722761249e-18
1.474873518e-18
1.146042095e-18
9.322056347e-19
7.815686038e-19
5.974405756e-19
4.94104179e-19
3.998298451e-19
3.571030092e-19
3.275530826e-19
2.603380445e-19
2.209798788e-19
2.06830966e-19
1.960981111e-19
1.873153562e-19
1.702328405e-19
1.379700299e-19
1.400287117e-19
1.425413819e-19
1.413331473e-19
1.368896182e-19
1.286408182e-19
1.203503075e-19
1.243888673e-19
1.245685425e-19
1.34564943e-19
1.410268821e-19
1.516889152e-19
1.629675969e-19
1.846153706e-19
2.145044099e-19