/*--------------------------------*- C++ -*----------------------------------*\
| =========                 |                                                 |
| \\      /  F ield         | OpenFOAM: The Open Source CFD Toolbox           |
|  \\    /   O peration     | Version:  v1706                                 |
|   \\  /    A nd           | Web:      www.OpenFOAM.com                      |
|    \\/     M anipulation  |                                                 |
\*---------------------------------------------------------------------------*/
FoamFile
{
    version     2.0;
    format      ascii;
    class       volScalarField;
    location    "0.00272";
    object      NO+;
}
// * * * * * * * * * * * * * * * * * * * * * * * * * * * * * * * * * * * * * //

dimensions      [0 0 0 0 0 0 0];


internalField   nonuniform List<scalar> 
11682
(
4.154544004e-62
2.927009392e-62
3.144238613e-62
2.702920605e-62
2.301631129e-62
1.714182681e-62
1.550283876e-62
1.287566754e-62
6.798910273e-63
5.699488556e-63
4.947635904e-63
4.257040733e-63
2.805799719e-63
2.350492747e-63
1.742685648e-63
1.216082746e-63
1.092550096e-63
1.185374546e-63
8.086106564e-64
5.251098089e-64
3.442512104e-64
2.285606748e-64
1.970045906e-64
1.027739574e-64
1.0269944e-64
7.454470715e-65
5.583489838e-65
4.438049549e-65
3.552369793e-65
3.052067442e-65
2.413109848e-65
1.930867102e-65
1.644856318e-65
1.29782794e-65
1.299825167e-65
1.986859444e-65
3.969864399e-65
8.452418724e-65
2.317219774e-64
7.653325935e-64
2.40549368e-63
4.914823407e-63
4.453067095e-63
2.130593216e-63
1.269148769e-63
3.362442937e-64
1.606363338e-64
6.203222221e-65
3.138122868e-65
2.429194141e-65
1.919381537e-65
1.994636612e-65
2.391612362e-65
3.664744471e-65
5.085694414e-65
7.797738378e-65
1.155889818e-64
1.441103757e-64
2.801714858e-64
4.474479408e-64
5.980260791e-64
1.219619733e-63
2.103083614e-63
2.443955873e-63
6.01371529e-63
1.08699267e-62
2.094962155e-62
3.545740753e-62
9.216025458e-62
2.318013957e-61
4.651402213e-61
1.146659895e-60
2.461466635e-60
4.806554307e-60
9.681236253e-60
2.315296831e-59
5.007730512e-59
9.854845521e-59
1.948865842e-58
3.129501162e-58
5.416751998e-58
7.761283214e-58
1.279507474e-57
1.779574018e-57
2.189485701e-57
2.555897351e-57
3.244765849e-57
3.772486879e-57
4.235438222e-57
4.683593304e-57
4.793407784e-57
5.600417712e-57
6.103072306e-57
6.48335384e-57
6.900478636e-57
7.275563982e-57
7.616256757e-57
7.937413578e-57
8.14481277e-57
5.960450564e-60
4.764947294e-60
5.019367767e-60
4.145870636e-60
3.623474947e-60
2.884174921e-60
2.306967446e-60
2.012990212e-60
1.097879404e-60
8.494055842e-61
7.422218067e-61
6.391684815e-61
4.37601298e-61
3.365935912e-61
2.547208079e-61
1.777452767e-61
1.940503826e-61
1.849553731e-61
1.207783184e-61
7.756697141e-62
5.115949383e-62
3.657037288e-62
2.924763351e-62
2.095927165e-62
1.506084577e-62
1.133870475e-62
8.387541138e-63
6.567962018e-63
5.302912643e-63
4.59345307e-63
3.704843865e-63
3.180285984e-63
2.504349821e-63
1.927900862e-63
1.823231978e-63
2.707522064e-63
4.851502281e-63
1.032441818e-62
3.315759606e-62
1.286646711e-61
4.170225945e-61
8.465578834e-61
7.887634809e-61
4.809889877e-61
2.359130004e-61
9.197809995e-62
3.163949893e-62
1.110517373e-62
5.075734476e-63
3.7087841e-63
3.117920786e-63
3.124567169e-63
3.659164865e-63
5.417361132e-63
7.853764467e-63
1.140753768e-62
1.679564276e-62
2.52864272e-62
4.102719205e-62
6.570705688e-62
1.158154356e-61
1.815647351e-61
3.055942286e-61
5.244203156e-61
8.487085021e-61
1.525902021e-60
2.949926827e-60
6.220939627e-60
1.34797886e-59
3.231576439e-59
7.509196012e-59
1.587865185e-58
3.435239899e-58
6.458586973e-58
1.314498463e-57
3.056804433e-57
6.988098346e-57
1.373210931e-56
2.602882102e-56
4.296387289e-56
6.826048898e-56
1.117767747e-55
1.643086245e-55
2.249842182e-55
2.900294974e-55
3.462915637e-55
4.079872346e-55
4.637921126e-55
4.978464459e-55
5.825347944e-55
6.347657471e-55
6.86325628e-55
7.352470564e-55
7.762769421e-55
8.239572714e-55
8.617095595e-55
8.981746948e-55
9.361379384e-55
9.631982341e-55
9.527032695e-58
6.925257111e-58
7.326245207e-58
6.245014368e-58
5.666533462e-58
4.248255227e-58
3.368712148e-58
3.025786689e-58
1.641666491e-58
1.259395837e-58
1.096544632e-58
9.328660697e-59
6.250353434e-59
4.776669505e-59
3.779199592e-59
2.58737946e-59
3.004885005e-59
2.840608424e-59
1.778121064e-59
1.129495742e-59
7.39374576e-60
5.493754614e-60
4.353796585e-60
3.071606727e-60
2.36719285e-60
1.628559293e-60
1.252440747e-60
1.05379041e-60
8.104817831e-61
6.869328033e-61
5.422809641e-61
4.808659079e-61
3.749904562e-61
2.850284825e-61
2.793201063e-61
3.527812418e-61
5.95265546e-61
1.370376038e-60
4.522306354e-60
2.03294414e-59
6.760146898e-59
1.357473843e-58
1.333342271e-58
8.090697106e-59
4.059777889e-59
1.664636841e-59
5.570289962e-60
1.920058574e-60
8.106373947e-61
5.569816163e-61
4.542580089e-61
4.427324153e-61
5.473844058e-61
7.902575487e-61
1.14106818e-60
1.596380503e-60
2.430299143e-60
3.49738087e-60
5.887528694e-60
9.710177713e-60
1.671235136e-59
2.729649023e-59
4.602839543e-59
7.300272053e-59
1.1326786e-58
2.128712598e-58
4.062586983e-58
8.737727206e-58
1.859901628e-57
4.435555958e-57
1.03440002e-56
2.164081691e-56
4.731778933e-56
8.709414854e-56
1.755700245e-55
4.153248834e-55
9.212506082e-55
1.783907917e-54
3.404513622e-54
5.411090146e-54
9.250345728e-54
1.480257392e-53
2.074542224e-53
2.834807264e-53
3.589556759e-53
4.221511908e-53
4.978326534e-53
5.541070591e-53
6.046101501e-53
6.90515055e-53
7.326665341e-53
7.978361189e-53
8.687904753e-53
9.203550105e-53
9.750731859e-53
9.852144944e-53
1.03761462e-52
1.077068385e-52
1.113675968e-52
1.427560682e-55
1.067271487e-55
1.12229145e-55
9.389841404e-56
8.779793726e-56
6.742044375e-56
4.888276695e-56
4.554383842e-56
2.43384029e-56
1.874063223e-56
1.646556309e-56
1.337016978e-56
9.37224823e-57
7.713261109e-57
5.472858722e-57
4.116361589e-57
5.00782056e-57
4.338432358e-57
2.63898107e-57
1.651542899e-57
1.055817153e-57
8.364561601e-58
6.675868621e-58
4.420440651e-58
3.464183251e-58
2.607810926e-58
1.903725132e-58
1.540751907e-58
1.201856088e-58
1.058864726e-58
8.607519253e-59
7.392191776e-59
5.651016243e-59
4.41724935e-59
4.294083764e-59
4.872305948e-59
7.165590442e-59
1.718648745e-58
5.591767361e-58
3.022623572e-57
1.104341129e-56
2.523137734e-56
2.211775673e-56
1.429048659e-56
6.890528082e-57
2.828581936e-57
9.47775118e-58
3.259776477e-58
1.2916979e-58
8.141341206e-59
6.550412703e-59
6.446504772e-59
8.060067645e-59
1.150192554e-58
1.646250293e-58
2.357157793e-58
3.571932267e-58
4.556349931e-58
8.405040571e-58
1.407554655e-57
2.413994674e-57
3.938559586e-57
6.507791972e-57
1.009382164e-56
1.492842877e-56
2.901303293e-56
5.494525118e-56
1.21333415e-55
2.680993434e-55
6.031977366e-55
1.43578079e-54
3.042812056e-54
6.468077285e-54
1.153278392e-53
2.271748904e-53
5.566680206e-53
1.211054906e-52
2.335106461e-52
4.424622362e-52
6.827356248e-52
1.201390629e-51
1.898133744e-51
2.580021078e-51
3.509029162e-51
4.394078307e-51
4.961853283e-51
6.076173054e-51
6.573466162e-51
7.300564296e-51
7.926375629e-51
8.997736287e-51
9.629765924e-51
1.028341039e-50
1.081692694e-50
1.136622553e-50
1.185184874e-50
1.220957083e-50
1.25139956e-50
1.283497042e-50
2.086194708e-53
1.619208099e-53
1.728733397e-53
1.465826784e-53
1.243396279e-53
1.044725642e-53
7.142563941e-54
6.85574469e-54
3.880971752e-54
2.744445407e-54
2.572287836e-54
1.948741776e-54
1.294394175e-54
1.135543283e-54
8.354939961e-55
6.101405517e-55
7.205973456e-55
6.508632735e-55
3.980146362e-55
2.433084589e-55
1.58198254e-55
1.285516015e-55
1.035749401e-55
6.739282434e-56
5.010114672e-56
3.822552424e-56
2.902637619e-56
2.2350348e-56
1.805588683e-56
1.590376442e-56
1.317281777e-56
1.125595647e-56
8.414562998e-57
6.475014592e-57
6.357249122e-57
6.720230975e-57
9.119263963e-57
2.078823155e-56
8.552517319e-56
4.301263611e-55
1.689104175e-54
3.95453053e-54
3.867606892e-54
2.477382006e-54
1.199172015e-54
4.655524988e-55
1.587244022e-55
5.423115397e-56
2.037967632e-56
1.243473337e-56
9.427141358e-57
9.701580488e-57
1.203740137e-56
1.649004429e-56
2.373409124e-56
3.400557275e-56
5.228189574e-56
7.770125721e-56
1.192060342e-55
2.034812493e-55
3.486641886e-55
5.525308288e-55
9.261498103e-55
1.367392974e-54
2.271412005e-54
3.995581511e-54
7.433350833e-54
1.667734181e-53
3.671308469e-53
8.332941001e-53
1.990253954e-52
4.419694603e-52
8.890756875e-52
1.526158194e-51
3.182997907e-51
7.406284699e-51
1.588109802e-50
2.984629678e-50
5.724226399e-50
9.59524463e-50
1.560934865e-49
2.441813678e-49
3.229368889e-49
4.369440288e-49
5.267720787e-49
6.088644772e-49
7.386074056e-49
7.869305549e-49
9.053625483e-49
9.854448245e-49
1.062769591e-48
1.13321191e-48
1.212485135e-48
1.277690805e-48
1.285689307e-48
1.3753192e-48
1.404195023e-48
1.439061154e-48
1.479146968e-48
3.216121164e-51
2.502845681e-51
2.81025797e-51
2.139334167e-51
2.110187315e-51
1.602649842e-51
1.113728719e-51
1.026361522e-51
5.748210409e-52
3.937614551e-52
3.904876319e-52
3.076138454e-52
2.050506898e-52
1.702544843e-52
1.234005208e-52
8.904307249e-53
1.151626601e-52
9.688065707e-53
6.015024173e-53
3.599792158e-53
2.386148296e-53
1.951238082e-53
1.557318045e-53
1.007005039e-53
7.467418724e-54
5.656696945e-54
4.380450934e-54
3.266171828e-54
2.731322694e-54
2.367439268e-54
2.002643741e-54
1.683266396e-54
1.293421391e-54
9.810908947e-55
9.431425316e-55
9.433835654e-55
1.136156528e-54
2.547383296e-54
1.108594068e-53
5.900253059e-53
2.440594816e-52
5.968702372e-52
6.194459452e-52
4.122196407e-52
1.929523848e-52
7.261506842e-53
2.64977951e-53
8.90517653e-54
3.186695181e-54
1.844004501e-54
1.339914423e-54
1.427145665e-54
1.838427672e-54
2.474338211e-54
3.742249866e-54
4.814072884e-54
7.740863508e-54
1.137754314e-53
1.74957335e-53
2.918652928e-53
5.015837457e-53
8.437801728e-53
1.362007574e-52
1.972452639e-52
3.175065605e-52
5.521953778e-52
1.092445819e-51
2.299083034e-51
4.806169295e-51
1.123364944e-50
2.702343307e-50
6.069429603e-50
1.215742421e-49
2.138757787e-49
4.175638676e-49
9.827423431e-49
2.081795062e-48
3.978637093e-48
7.551310192e-48
1.198078655e-47
2.003194243e-47
3.128785201e-47
4.196294981e-47
5.467519868e-47
6.69806991e-47
7.763114867e-47
9.057598806e-47
9.694101385e-47
1.079863013e-46
1.163510465e-46
1.269905201e-46
1.334228351e-46
1.421372576e-46
1.483400232e-46
1.556357124e-46
1.595421945e-46
1.599042851e-46
1.639733125e-46
1.708003552e-46
5.125338627e-49
3.872206864e-49
4.223871974e-49
3.485317002e-49
3.322455219e-49
2.396586835e-49
1.714627463e-49
1.527890716e-49
8.64069307e-50
6.140859241e-50
5.883938971e-50
4.546168289e-50
3.029647904e-50
2.592370596e-50
1.785241322e-50
1.328366813e-50
1.724581974e-50
1.527161528e-50
8.949662914e-51
5.293282783e-51
3.608162536e-51
2.921107895e-51
2.346440594e-51
1.497127003e-51
1.095056739e-51
8.490632262e-52
6.545808805e-52
4.850042275e-52
4.193397311e-52
3.659550554e-52
3.033681916e-52
2.511279821e-52
1.872932361e-52
1.449049169e-52
1.407817679e-52
1.33464069e-52
1.414858648e-52
2.981554162e-52
1.400326744e-51
8.079332309e-51
3.416418871e-50
8.233821571e-50
9.191955823e-50
6.253556625e-50
2.98376707e-50
1.179840095e-50
4.267916482e-51
1.421008992e-51
5.041395982e-52
2.791899373e-52
2.088461777e-52
2.037180793e-52
2.735042893e-52
3.613692687e-52
5.461658391e-52
7.824082026e-52
1.169020495e-51
1.703260499e-51
2.499046888e-51
4.149998939e-51
7.22750554e-51
1.210754969e-50
2.069939582e-50
3.032137181e-50
4.515143508e-50
7.747154735e-50
1.529098493e-49
3.142532008e-49
6.649862475e-49
1.561719067e-48
3.64164601e-48
8.171547301e-48
1.659026934e-47
2.942169044e-47
5.202884745e-47
1.294532763e-46
2.719940849e-46
5.254709159e-46
9.831754908e-46
1.614242857e-45
2.571583213e-45
3.964576942e-45
5.570810314e-45
6.897581257e-45
8.305674708e-45
9.84255978e-45
1.095390774e-44
1.193615872e-44
1.310414233e-44
1.36913269e-44
1.508208115e-44
1.596913859e-44
1.663583767e-44
1.660189113e-44
1.80717839e-44
1.84657324e-44
1.927050487e-44
1.986639064e-44
2.021458631e-44
7.885243861e-47
6.312643165e-47
6.546458099e-47
5.301243225e-47
5.00078653e-47
3.570239358e-47
2.86409059e-47
2.271247446e-47
1.295258451e-47
9.208025739e-48
8.761919594e-48
7.217220199e-48
4.611543026e-48
3.99245461e-48
2.866147526e-48
1.980282526e-48
2.844396712e-48
2.292435075e-48
1.333391128e-48
7.741289686e-49
5.276677417e-49
4.543180763e-49
3.508151312e-49
2.257674284e-49
1.61636963e-49
1.293007132e-49
9.80585863e-50
7.140614435e-50
6.22706286e-50
5.497319782e-50
4.572040438e-50
3.733418257e-50
2.862535166e-50
2.291749709e-50
2.122885662e-50
1.941080404e-50
1.903962837e-50
3.40297707e-50
1.863924074e-49
1.090115819e-48
4.79037949e-48
1.256745763e-47
1.37152054e-47
9.005581085e-48
4.474432493e-48
1.839521663e-48
6.67620838e-49
2.187688675e-49
8.180700837e-50
4.121239248e-50
3.057362828e-50
3.168337112e-50
4.054591025e-50
5.343450471e-50
7.952264709e-50
1.137735143e-49
1.67234739e-49
2.537296263e-49
3.683802648e-49
5.932277615e-49
1.044521765e-48
1.731765443e-48
3.050363643e-48
4.578574281e-48
6.519186909e-48
1.095190871e-47
2.153721476e-47
4.480778836e-47
9.069624667e-47
2.104231043e-46
4.878833636e-46
1.082484559e-45
2.26990944e-45
3.937441459e-45
7.895796469e-45
1.706671864e-44
3.533401056e-44
6.979600688e-44
1.278750759e-43
2.060853835e-43
3.254644443e-43
4.997185035e-43
7.02133533e-43
8.671097017e-43
1.034481901e-42
1.201633111e-42
1.309060741e-42
1.40472098e-42
1.552647284e-42
1.680489192e-42
1.782600362e-42
1.87604434e-42
1.9281317e-42
1.955460708e-42
2.072670534e-42
2.159972143e-42
2.241517752e-42
2.290119178e-42
2.332443452e-42
1.232273656e-44
9.506639471e-45
9.86232807e-45
7.849271274e-45
7.328957071e-45
5.363407234e-45
4.296786936e-45
3.345841609e-45
1.95051763e-45
1.431821341e-45
1.303217049e-45
1.148969548e-45
7.100362516e-46
6.166061186e-46
4.422093446e-46
2.905742852e-46
4.378949147e-46
3.384192394e-46
1.981636465e-46
1.137438872e-46
7.787970532e-47
6.904685525e-47
5.105284914e-47
3.517006884e-47
2.34922565e-47
1.939262691e-47
1.47520615e-47
1.049832811e-47
9.299722613e-48
8.327227793e-48
6.914417123e-48
5.496686886e-48
4.22603383e-48
3.426646425e-48
3.092877358e-48
3.007737915e-48
2.717366785e-48
4.178417396e-48
2.265202087e-47
1.382920037e-46
6.807505202e-46
1.727203859e-45
1.90912714e-45
1.274325317e-45
6.417356726e-46
2.69378231e-46
9.823738915e-47
3.255840517e-47
1.220348477e-47
6.491425917e-48
4.519998696e-48
4.65203197e-48
5.997664026e-48
7.901733488e-48
1.163015948e-47
1.592153447e-47
2.336588747e-47
3.607840587e-47
5.254633323e-47
8.724635396e-47
1.509888805e-46
2.491719706e-46
4.39265364e-46
6.741418764e-46
9.374300394e-46
1.495306104e-45
3.02343567e-45
6.284433568e-45
1.181993381e-44
2.829984892e-44
6.600509545e-44
1.516440726e-43
3.086275335e-43
5.239054035e-43
1.025369716e-42
2.218369656e-42
4.539129378e-42
9.073996194e-42
1.657914383e-41
2.631411993e-41
4.099762998e-41
6.331532404e-41
8.886755733e-41
1.154759242e-40
1.281390723e-40
1.478736673e-40
1.565462411e-40
1.6164188e-40
1.778454211e-40
1.98783757e-40
2.122809853e-40
2.215003448e-40
2.244277437e-40
2.200725163e-40
2.351748356e-40
2.466341509e-40
2.588929549e-40
2.60784525e-40
2.673726742e-40
1.897306709e-42
1.380081759e-42
1.599850007e-42
1.27167052e-42
1.108523212e-42
8.119115158e-43
6.216414963e-43
4.91154143e-43
2.881884084e-43
2.267350838e-43
1.962012804e-43
1.758872038e-43
1.12628203e-43
9.462149329e-44
7.029060182e-44
4.24161469e-44
6.747157596e-44
4.80558154e-44
2.923394593e-44
1.694605293e-44
1.19140035e-44
1.033654187e-44
8.077466107e-45
5.400672367e-45
3.664066272e-45
2.842535713e-45
2.225860922e-45
1.673931997e-45
1.392674256e-45
1.268690401e-45
1.050062411e-45
8.325026079e-46
6.216976024e-46
5.098086015e-46
4.74767365e-46
4.450988388e-46
3.744820132e-46
4.863885549e-46
2.62476409e-45
1.715322092e-44
8.860564323e-44
2.267947742e-43
2.556777388e-43
1.710171522e-43
8.803427484e-44
3.797978036e-44
1.392915532e-44
4.649567668e-45
1.792777772e-45
9.367551277e-46
6.465445551e-46
6.577911202e-46
8.850703366e-46
1.177205923e-45
1.731387626e-45
2.386790659e-45
3.454504431e-45
5.055412136e-45
7.507370713e-45
1.242315442e-44
2.164189009e-44
3.575138059e-44
6.217178372e-44
9.651763198e-44
1.324722833e-43
1.969882805e-43
4.186434071e-43
8.683848282e-43
1.91032515e-42
3.897864418e-42
9.226369728e-42
2.096332481e-41
4.182647459e-41
7.330125177e-41
1.316912313e-40
2.850998618e-40
5.667711812e-40
1.169510118e-39
2.163880986e-39
3.340124559e-39
5.362735271e-39
8.200185654e-39
1.160162871e-38
1.471376804e-38
1.709098916e-38
1.851967343e-38
1.933032368e-38
2.030608938e-38
2.253258025e-38
2.392426e-38
2.524470241e-38
2.606556621e-38
2.628557905e-38
2.468211521e-38
2.707888719e-38
2.833809102e-38
2.97769192e-38
3.070716198e-38
3.098951497e-38
3.020208652e-40
2.146674459e-40
2.423178801e-40
1.895276369e-40
1.607381288e-40
1.199233174e-40
8.907981476e-41
7.367963186e-41
4.255178523e-41
3.432709064e-41
3.01301451e-41
2.712475801e-41
1.845973649e-41
1.470843197e-41
1.050913595e-41
6.254848861e-42
1.037577171e-41
8.059490363e-42
4.347205781e-42
2.476278046e-42
1.81773117e-42
1.543387992e-42
1.20739715e-42
8.152858325e-43
5.885571314e-43
4.456966435e-43
3.348434433e-43
2.605681364e-43
2.08576528e-43
1.927045398e-43
1.578705677e-43
1.211686036e-43
8.667850229e-44
7.957195842e-44
7.021943689e-44
6.856152232e-44
5.121601414e-44
5.476935268e-44
2.820378315e-43
2.033742058e-42
1.063961415e-41
2.740343604e-41
3.276290867e-41
2.267141695e-41
1.20656254e-41
5.105358201e-42
1.884721342e-42
6.382954129e-43
2.518878673e-43
1.349104999e-43
9.265834718e-44
9.815850384e-44
1.297372443e-43
1.747652929e-43
2.53552309e-43
3.530501795e-43
5.117401905e-43
7.163657512e-43
1.086584141e-42
1.767928199e-42
3.101229355e-42
5.048379233e-42
9.100962365e-42
1.375171237e-41
1.841883509e-41
3.090578272e-41
5.8062842e-41
1.261617626e-40
2.714412853e-40
5.434201715e-40
1.248864595e-39
2.8814352e-39
5.623605884e-39
9.710756752e-39
1.767145241e-38
3.599772152e-38
7.774278989e-38
1.533314964e-37
2.803305945e-37
4.266683878e-37
6.750771152e-37
1.027604759e-36
1.509160463e-36
1.817713091e-36
2.161041191e-36
2.361848212e-36
2.326488646e-36
2.544000968e-36
2.72132795e-36
2.845661659e-36
2.982422317e-36
3.066187163e-36
2.995208806e-36
3.171037528e-36
3.317291032e-36
3.438020672e-36
3.532394031e-36
3.586196067e-36
3.5877684e-36
4.779759488e-38
3.565142964e-38
3.61098448e-38
2.699162718e-38
2.3596583e-38
1.779768209e-38
1.323503687e-38
1.137673999e-38
6.173138274e-39
5.060633942e-39
4.635788116e-39
4.05658585e-39
2.890758621e-39
2.243768229e-39
1.557291753e-39
9.79311863e-40
1.591497686e-39
1.168709e-39
6.518418503e-40
3.487489552e-40
2.7222623e-40
2.302785579e-40
1.770252812e-40
1.192474717e-40
8.873003063e-41
6.893743393e-41
5.028200316e-41
3.885430175e-41
3.148489907e-41
2.886607253e-41
2.355565858e-41
1.776660249e-41
1.358639544e-41
1.19419096e-41
1.033546869e-41
1.01297512e-41
7.395538386e-42
6.133551452e-42
2.92608657e-41
2.319925862e-40
1.177272218e-39
3.308255048e-39
3.961267471e-39
2.756395931e-39
1.533341037e-39
6.56497327e-40
2.440026633e-40
8.454589177e-41
3.460078161e-41
1.954599509e-41
1.323960633e-41
1.415648854e-41
1.87722638e-41
2.49808973e-41
3.731374114e-41
5.085895992e-41
7.389881824e-41
1.121775179e-40
1.565246853e-40
2.500316995e-40
4.48576772e-40
6.9945648e-40
1.316450803e-39
1.993791255e-39
2.483962869e-39
4.263351772e-39
8.110303598e-39
1.776573242e-38
3.830132913e-38
7.501202879e-38
1.694959379e-37
3.921122068e-37
7.464345657e-37
1.281543487e-36
2.215893294e-36
4.657139036e-36
1.013850308e-35
1.930568157e-35
3.479774222e-35
5.749527527e-35
8.637902215e-35
1.366744634e-34
1.901505023e-34
2.41548117e-34
2.670503584e-34
2.896616851e-34
2.97850782e-34
3.06025136e-34
3.215286483e-34
3.302331469e-34
3.472344647e-34
3.611222757e-34
3.463563003e-34
3.644245643e-34
3.817937116e-34
4.003071529e-34
4.173800995e-34
4.220165671e-34
4.167319494e-34
7.023677111e-36
5.679453478e-36
5.340144053e-36
4.013501102e-36
3.516138096e-36
2.771213365e-36
1.975791062e-36
1.772980606e-36
9.21467637e-37
7.513109545e-37
6.807787485e-37
6.025269419e-37
4.473481267e-37
3.435460409e-37
2.297249276e-37
1.447616932e-37
2.386774259e-37
1.731477377e-37
9.505470062e-38
5.697075801e-38
4.064388116e-38
3.450477063e-38
2.591893204e-38
1.699811881e-38
1.339485285e-38
1.057651057e-38
7.637615599e-39
5.762132846e-39
4.630739509e-39
4.259097986e-39
3.563590016e-39
2.596152188e-39
1.952769999e-39
1.787047973e-39
1.580668094e-39
1.461105335e-39
1.07380695e-39
7.007579781e-40
2.763795007e-39
2.327159383e-38
1.321043744e-37
3.635602513e-37
4.755480069e-37
3.574382065e-37
1.903493081e-37
8.138090553e-38
3.026009394e-38
1.058847572e-38
4.761081536e-39
2.750840001e-39
1.816127397e-39
2.026612581e-39
2.7866403e-39
3.319345424e-39
5.399660888e-39
7.608410134e-39
1.020734865e-38
1.61244647e-38
2.185996774e-38
3.553800306e-38
6.432735344e-38
1.090129236e-37
1.95647165e-37
2.864677015e-37
3.545808293e-37
5.872235883e-37
1.208254613e-36
2.596747318e-36
5.245584171e-36
1.015276502e-35
2.39161425e-35
5.341408244e-35
9.660147315e-35
1.660238134e-34
3.067620819e-34
6.800223918e-34
1.3199163e-33
2.501650582e-33
4.583229857e-33
7.343371868e-33
1.181328457e-32
1.761137308e-32
2.368975539e-32
2.974824779e-32
3.079460634e-32
3.477033765e-32
3.614186264e-32
3.624535171e-32
3.789671668e-32
3.837702475e-32
4.047982326e-32
4.254547648e-32
4.236440012e-32
4.408677637e-32
4.540783485e-32
4.772810841e-32
4.920927953e-32
4.945358448e-32
4.804567769e-32
1.137982592e-33
8.412396565e-34
7.847838688e-34
6.908779546e-34
5.203839987e-34
4.154176111e-34
3.003952549e-34
2.65534645e-34
1.430874997e-34
1.144201547e-34
1.008724551e-34
9.068498861e-35
6.741472174e-35
5.227565255e-35
3.385495272e-35
2.1429566e-35
3.517455469e-35
2.720240985e-35
1.352874631e-35
8.660252036e-36
6.055096281e-36
5.175755754e-36
3.922689259e-36
2.619732036e-36
2.013479762e-36
1.551557021e-36
1.10455839e-36
8.936913839e-37
6.820451266e-37
6.302797662e-37
5.456515151e-37
3.935335565e-37
2.852024327e-37
2.713631076e-37
2.350462831e-37
2.140873008e-37
1.65226651e-37
8.641443546e-38
2.488037252e-37
2.181511141e-36
1.319737546e-35
3.995074758e-35
5.270541911e-35
3.982840516e-35
2.156512375e-35
9.321806861e-36
3.547447026e-36
1.273440997e-36
6.552308412e-37
3.82005117e-37
2.618879344e-37
2.92301177e-37
3.87324079e-37
5.317640834e-37
8.106573374e-37
1.107602476e-36
1.544758636e-36
2.355249093e-36
2.887739763e-36
5.120452026e-36
9.222009038e-36
1.542928506e-35
2.836134817e-35
4.247781949e-35
4.826549538e-35
8.150777825e-35
1.701694749e-34
3.664540271e-34
7.033684571e-34
1.329620838e-33
3.244798094e-33
7.667852393e-33
1.326919093e-32
2.257872509e-32
4.152136567e-32
8.992777673e-32
1.751399235e-31
3.269130696e-31
5.685495171e-31
9.069657604e-31
1.530006059e-30
2.258391347e-30
2.839474174e-30
3.65119424e-30
3.918552036e-30
4.207176098e-30
4.347365377e-30
4.1072881e-30
4.426810861e-30
4.525103715e-30
4.771221484e-30
5.042514893e-30
5.055076917e-30
5.179725892e-30
5.044142062e-30
5.399428691e-30
5.634570221e-30
5.704831311e-30
5.488182057e-30
1.650207037e-31
1.289433073e-31
1.209831428e-31
1.06003345e-31
7.89146112e-32
6.270288715e-32
4.787835732e-32
4.047507952e-32
2.171381796e-32
1.751322603e-32
1.550403998e-32
1.308692815e-32
9.680213598e-33
7.902138065e-33
4.98171011e-33
3.274416887e-33
5.223678144e-33
4.011681273e-33
1.9491865e-33
1.329967219e-33
9.150162562e-34
7.715356964e-34
5.69614495e-34
3.779931272e-34
2.966779425e-34
2.309800526e-34
1.71653698e-34
1.356530638e-34
1.003688805e-34
9.373926003e-35
8.178910558e-35
6.077833975e-35
4.166822645e-35
4.02872229e-35
3.6094732e-35
3.293726826e-35
2.446667255e-35
1.069794216e-35
2.157740592e-35
1.914331612e-34
1.222391696e-33
4.051647454e-33
5.352569905e-33
4.157056714e-33
2.284921174e-33
9.936760945e-34
3.93583958e-34
1.580367501e-34
8.902366078e-35
5.194645098e-35
3.730533764e-35
4.282632643e-35
6.04226838e-35
7.404104188e-35
1.158265692e-34
1.621547517e-34
2.372283964e-34
3.521738222e-34
4.593150182e-34
7.464143161e-34
1.293125494e-33
2.214706793e-33
4.043407895e-33
5.728889234e-33
6.598219475e-33
1.132415416e-32
2.368091067e-32
5.115381706e-32
1.040638039e-31
1.843332716e-31
4.401839639e-31
1.039628815e-30
2.031673037e-30
2.922132811e-30
5.373716607e-30
1.199227483e-29
2.304154856e-29
4.234517922e-29
6.809929321e-29
1.063701084e-28
1.932083125e-28
2.870365671e-28
3.849977102e-28
4.532817889e-28
5.019466996e-28
5.176667453e-28
5.271032919e-28
5.195614504e-28
5.221505644e-28
5.223911742e-28
5.529672465e-28
5.903886863e-28
5.994498314e-28
6.12927733e-28
6.033800859e-28
6.242440737e-28
6.432747488e-28
6.490903383e-28
6.395704167e-28
2.449380882e-29
1.919257826e-29
1.786526023e-29
1.576059978e-29
1.134788321e-29
9.557370953e-30
7.596440101e-30
6.158910316e-30
3.356115175e-30
2.683337612e-30
2.384491419e-30
1.900881104e-30
1.479979942e-30
1.190245862e-30
7.235885179e-31
5.004229525e-31
8.770761193e-31
6.60830013e-31
2.984421094e-31
2.019684983e-31
1.33902768e-31
1.180793812e-31
8.710193518e-32
5.696736819e-32
4.458835629e-32
3.607774923e-32
2.586257133e-32
2.041474444e-32
1.494870674e-32
1.357196723e-32
1.207071106e-32
9.08642277e-33
6.224407481e-33
5.9412455e-33
5.568386113e-33
4.936898843e-33
3.72767906e-33
1.47075464e-33
1.780263477e-33
1.573579029e-32
1.046371289e-31
3.653326958e-31
5.146102198e-31
4.050273314e-31
2.27084828e-31
9.782580363e-32
4.152830057e-32
1.874660699e-32
1.20458496e-32
7.216964523e-33
5.328826426e-33
6.213857345e-33
8.99388383e-33
1.095100211e-32
1.6227645e-32
2.425223143e-32
3.448160564e-32
5.135114524e-32
6.499956807e-32
1.114831337e-31
1.8156723e-31
3.104112085e-31
5.722338144e-31
8.974687296e-31
9.197958306e-31
1.578564884e-30
3.35211278e-30
7.053980749e-30
1.465990447e-29
2.334509397e-29
5.976836972e-29
1.363916544e-28
2.784995487e-28
3.934858402e-28
6.891637904e-28
1.601111853e-27
2.994182411e-27
5.657994634e-27
1.017922442e-26
1.351880989e-26
2.448083948e-26
3.641823506e-26
5.030283636e-26
5.49845686e-26
6.164281854e-26
6.154030962e-26
6.355311241e-26
6.181472237e-26
6.053346201e-26
5.958729031e-26
6.437581047e-26
6.882029727e-26
7.176139754e-26
7.191846932e-26
7.040921627e-26
7.283047013e-26
7.415588302e-26
7.269960002e-26
7.268693138e-26
4.007756251e-27
2.789558106e-27
2.60857952e-27
2.279118972e-27
1.882281274e-27
1.417664892e-27
1.164046897e-27
9.374213605e-28
5.150706828e-28
4.094103754e-28
3.586603125e-28
3.002670779e-28
2.217297622e-28
1.794172407e-28
1.087077075e-28
7.57085427e-29
1.323341236e-28
9.851399124e-29
5.08591963e-29
3.208517397e-29
1.977126792e-29
1.728351269e-29
1.30697364e-29
9.10193885e-30
6.867359629e-30
5.51791212e-30
3.814388264e-30
3.036400161e-30
2.309939855e-30
1.944451739e-30
1.883651581e-30
1.351327541e-30
9.926348752e-31
8.781491908e-31
8.112397711e-31
7.441651633e-31
5.614178966e-31
1.943443685e-31
1.43522881e-31
1.181807097e-30
8.21285545e-30
3.265389029e-29
4.498232619e-29
3.628513419e-29
2.106517768e-29
9.494583321e-30
4.274845145e-30
2.298878654e-30
1.655908438e-30
9.892356163e-31
7.749541886e-31
8.697130945e-31
1.352836717e-30
1.650949414e-30
2.30718658e-30
3.508456351e-30
5.085442042e-30
7.401822604e-30
8.855393994e-30
1.662909703e-29
2.666541674e-29
4.352433867e-29
8.009623694e-29
1.259514491e-28
1.245395093e-28
2.212048945e-28
4.674638075e-28
9.597562417e-28
2.063059622e-27
3.315205172e-27
7.947900419e-27
1.887158053e-26
3.796558964e-26
5.140683986e-26
9.201101917e-26
2.1297703e-25
3.833874847e-25
7.450477383e-25
1.338419571e-24
1.726695644e-24
3.151993201e-24
4.543345172e-24
6.452966233e-24
6.983993213e-24
7.637394071e-24
6.98898202e-24
7.578804986e-24
7.453225404e-24
7.009982591e-24
6.876623272e-24
7.575135818e-24
8.054866354e-24
8.420519633e-24
8.585253779e-24
7.624895549e-24
8.194714427e-24
8.358723712e-24
8.318478845e-24
8.116819428e-24
6.072434022e-25
4.865650185e-25
3.750758797e-25
3.354575793e-25
2.924233697e-25
2.10680902e-25
1.685899595e-25
1.44049374e-25
7.893908193e-26
6.105792719e-26
5.197089874e-26
4.566688599e-26
3.384130553e-26
2.716137776e-26
1.672974454e-26
1.128698886e-26
2.191360536e-26
1.420128134e-26
7.919227935e-27
4.799111778e-27
2.993279827e-27
2.468229015e-27
1.968423872e-27
1.388662362e-27
1.000246345e-27
8.248894329e-28
5.521723925e-28
4.432545054e-28
3.415661844e-28
2.801141671e-28
2.954802367e-28
2.010719097e-28
1.510993368e-28
1.335913976e-28
1.207256332e-28
1.121476844e-28
8.370852896e-29
2.561905544e-29
1.313885348e-29
8.682066105e-29
6.041586452e-28
2.527014033e-27
3.615814959e-27
2.878213307e-27
1.811104542e-27
7.915360492e-28
4.308372811e-28
2.824579095e-28
2.274408912e-28
1.44413862e-28
1.170488726e-28
1.36582192e-28
1.949624229e-28
2.439742077e-28
3.511198219e-28
5.043934685e-28
7.505194863e-28
1.181328136e-27
1.430570146e-27
2.453603255e-27
3.797243639e-27
6.055050136e-27
1.195965888e-26
1.780991529e-26
1.640731864e-26
3.148558706e-26
6.395350125e-26
1.297259115e-25
2.884074731e-25
4.708745603e-25
1.084508946e-24
2.612662201e-24
5.09120593e-24
6.860217234e-24
1.155749131e-23
2.803238313e-23
5.23189294e-23
9.286775627e-23
1.935880449e-22
2.168422315e-22
4.177010911e-22
5.999514398e-22
7.884846217e-22
8.880980001e-22
9.860140324e-22
8.49601964e-22
8.91191186e-22
9.237420515e-22
7.884626808e-22
8.305183119e-22
8.726149681e-22
9.263963183e-22
9.637167846e-22
9.96328244e-22
9.722667353e-22
9.803778652e-22
9.694029963e-22
9.419748953e-22
8.96663908e-22
9.147605454e-23
8.3645046e-23
5.843360579e-23
5.341666803e-23
4.422769417e-23
3.299236821e-23
2.236584283e-23
2.24176533e-23
1.204590098e-23
9.533833242e-24
8.545696145e-24
6.938678612e-24
4.98523028e-24
4.093293561e-24
2.460787079e-24
1.664639312e-24
3.406936554e-24
2.119938249e-24
1.214046959e-24
7.05601811e-25
4.615952128e-25
3.796695122e-25
2.962429672e-25
2.085922556e-25
1.564400103e-25
1.261906375e-25
7.979228544e-26
6.826661152e-26
4.904295612e-26
4.474302722e-26
4.371019404e-26
2.975039064e-26
2.265881626e-26
2.049692742e-26
1.804966341e-26
1.681703299e-26
1.265369576e-26
3.338312916e-27
1.314753002e-27
6.149416406e-27
4.12305147e-26
1.804495489e-25
2.658934824e-25
2.225011437e-25
1.438945494e-25
7.296160571e-26
4.413017876e-26
3.613845122e-26
3.528665532e-26
2.095513727e-26
1.710469445e-26
2.01341059e-26