/*--------------------------------*- C++ -*----------------------------------*\
| =========                 |                                                 |
| \\      /  F ield         | OpenFOAM: The Open Source CFD Toolbox           |
|  \\    /   O peration     | Version:  v1706                                 |
|   \\  /    A nd           | Web:      www.OpenFOAM.com                      |
|    \\/     M anipulation  |                                                 |
\*---------------------------------------------------------------------------*/
FoamFile
{
    version     2.0;
    format      ascii;
    class       volScalarField;
    location    "0.00272";
    object      O;
}
// * * * * * * * * * * * * * * * * * * * * * * * * * * * * * * * * * * * * * //

dimensions      [0 0 0 0 0 0 0];


internalField   nonuniform List<scalar> 
11682
(
3.524760254e-32
3.523582223e-32
3.525060055e-32
3.527529906e-32
3.531421385e-32
3.529987819e-32
3.53326211e-32
3.534577476e-32
3.539301142e-32
3.542305001e-32
3.5428765e-32
3.544264173e-32
3.551729213e-32
3.55453605e-32
3.554625252e-32
3.555257703e-32
3.562313571e-32
3.568218586e-32
3.568527507e-32
3.569173392e-32
3.580852905e-32
3.58375548e-32
3.58551584e-32
3.579334086e-32
3.598773983e-32
3.603383829e-32
3.602648164e-32
3.600264205e-32
3.615526014e-32
3.623489109e-32
3.621410171e-32
3.618560932e-32
3.637803937e-32
3.65178046e-32
3.649697003e-32
3.64574439e-32
3.642821803e-32
3.647283434e-32
3.684729425e-32
3.682236052e-32
3.677604418e-32
3.673504224e-32
3.668284982e-32
3.691646518e-32
3.704211539e-32
3.694753721e-32
3.724145475e-32
3.720266703e-32
3.725528271e-32
3.740742955e-32
3.73292638e-32
3.751395959e-32
3.75609348e-32
3.748477091e-32
3.777867753e-32
3.77196747e-32
3.774795703e-32
3.790287012e-32
3.786019025e-32
3.803200811e-32
3.805131773e-32
3.799440633e-32
3.83464499e-32
3.819471867e-32
3.825895203e-32
3.852633625e-32
3.840189376e-32
3.850851478e-32
3.865702695e-32
3.851710222e-32
3.884348953e-32
3.881908103e-32
3.874405261e-32
3.910354855e-32
3.894442971e-32
3.902404517e-32
3.913361101e-32
3.917503154e-32
3.930180704e-32
3.917632555e-32
3.971780108e-32
3.95618969e-32
3.93639859e-32
3.91408178e-32
3.891684759e-32
3.871480568e-32
3.855831922e-32
3.917226767e-32
3.948888784e-32
3.949559573e-32
3.939778293e-32
3.932015259e-32
3.922465646e-32
3.912815219e-32
3.903751049e-32
3.895397597e-32
3.887742003e-32
3.880771539e-32
3.87443338e-32
7.127802288e-32
7.132858027e-32
7.133159273e-32
7.134812836e-32
7.143032422e-32
7.14356229e-32
7.146753956e-32
7.14959926e-32
7.162009951e-32
7.164952016e-32
7.166058469e-32
7.168895091e-32
7.18532184e-32
7.18879882e-32
7.189058945e-32
7.19100061e-32
7.211738865e-32
7.21698811e-32
7.217708601e-32
7.219074134e-32
7.241992167e-32
7.251203383e-32
7.252065096e-32
7.253727231e-32
7.276866056e-32
7.289391427e-32
7.286457231e-32
7.282432855e-32
7.31097129e-32
7.327449451e-32
7.326331378e-32
7.322342615e-32
7.3566892e-32
7.384605082e-32
7.379659411e-32
7.374623507e-32
7.367778984e-32
7.374138468e-32
7.449182773e-32
7.448711178e-32
7.440611236e-32
7.430690305e-32
7.420250591e-32
7.475700042e-32
7.491992757e-32
7.492102603e-32
7.533182291e-32
7.525361662e-32
7.535173856e-32
7.564966499e-32
7.557922304e-32
7.590055363e-32
7.600252382e-32
7.583946537e-32
7.640262264e-32
7.631360666e-32
7.636336258e-32
7.679177786e-32
7.66090502e-32
7.69190465e-32
7.712324564e-32
7.689950509e-32
7.753897467e-32
7.751436052e-32
7.743422803e-32
7.792028919e-32
7.7727485e-32
7.806341349e-32
7.825769696e-32
7.798124611e-32
7.864643989e-32
7.858908042e-32
7.844137268e-32
7.910377532e-32
7.887384468e-32
7.89980434e-32
7.924025548e-32
7.935870588e-32
7.956743769e-32
7.94023584e-32
8.03078909e-32
8.019893155e-32
7.978744855e-32
7.935710542e-32
7.895238209e-32
7.857857227e-32
7.821037505e-32
7.920275399e-32
7.981577388e-32
7.997565192e-32
7.991937279e-32
7.974879853e-32
7.956139447e-32
7.937605917e-32
7.920207761e-32
7.904055958e-32
7.889112872e-32
7.875372035e-32
7.862621281e-32
1.07352716e-31
1.073630496e-31
1.073888053e-31
1.074283133e-31
1.075452098e-31
1.075662008e-31
1.076031889e-31
1.07651228e-31
1.078558842e-31
1.078736001e-31
1.078920247e-31
1.079350909e-31
1.081756951e-31
1.08224569e-31
1.082487276e-31
1.082544872e-31
1.085556085e-31
1.086550185e-31
1.086685776e-31
1.08689719e-31
1.090265136e-31
1.09172517e-31
1.091785255e-31
1.092030982e-31
1.095803912e-31
1.097272292e-31
1.097058437e-31
1.09700373e-31
1.100751132e-31
1.103129335e-31
1.102965725e-31
1.102550984e-31
1.107419976e-31
1.111483698e-31
1.111265387e-31
1.11035087e-31
1.109382344e-31
1.110542712e-31
1.121050702e-31
1.121572334e-31
1.120211904e-31
1.118501312e-31
1.117189514e-31
1.124951035e-31
1.127769013e-31
1.127547355e-31
1.133789824e-31
1.132946872e-31
1.134324696e-31
1.138636993e-31
1.137590966e-31
1.142266188e-31
1.14415194e-31
1.141865348e-31
1.149877677e-31
1.148856832e-31
1.149557526e-31
1.155203186e-31
1.153396371e-31
1.157766528e-31
1.160775681e-31
1.158157647e-31
1.167033282e-31
1.166486808e-31
1.165768409e-31
1.172588605e-31
1.170311267e-31
1.174339495e-31
1.17775754e-31
1.17427831e-31
1.183480581e-31
1.183051311e-31
1.181113925e-31
1.190283439e-31
1.187703609e-31
1.189302669e-31
1.192702055e-31
1.194472408e-31
1.197508567e-31
1.195272876e-31
1.207669007e-31
1.206870865e-31
1.201855845e-31
1.195658196e-31
1.189756714e-31
1.184042624e-31
1.178799927e-31
1.190249225e-31
1.199182404e-31
1.202373575e-31
1.202254491e-31
1.200633392e-31
1.198456564e-31
1.1959804e-31
1.19352229e-31
1.191078551e-31
1.188956584e-31
1.186961581e-31
1.185123803e-31
1.433861627e-31
1.434270866e-31
1.434571441e-31
1.435039423e-31
1.436644642e-31
1.437095031e-31
1.437390669e-31
1.438098956e-31
1.440528209e-31
1.440995219e-31
1.441166512e-31
1.441808522e-31
1.445239726e-31
1.446042891e-31
1.44586923e-31
1.446320912e-31
1.450299646e-31
1.451408931e-31
1.451595212e-31
1.451885788e-31
1.456227464e-31
1.458184846e-31
1.458354892e-31
1.458621952e-31
1.463480973e-31
1.465967669e-31
1.465470451e-31
1.46519701e-31
1.470187965e-31
1.473611286e-31
1.47348093e-31
1.472748596e-31
1.479002339e-31
1.48458847e-31
1.484574792e-31
1.483371654e-31
1.481820652e-31
1.483529149e-31
1.496509224e-31
1.498024391e-31
1.496506215e-31
1.494581901e-31
1.492215872e-31
1.50219458e-31
1.506036487e-31
1.50595548e-31
1.513941635e-31
1.513251794e-31
1.514971764e-31
1.520465581e-31
1.519487809e-31
1.525379566e-31
1.527892871e-31
1.525248746e-31
1.535257082e-31
1.534600278e-31
1.535333431e-31
1.54193614e-31
1.540511281e-31
1.545966673e-31
1.549893348e-31
1.546935054e-31
1.557836571e-31
1.557597862e-31
1.556666717e-31
1.565366705e-31
1.563048959e-31
1.567908318e-31
1.572583633e-31
1.568459827e-31
1.579549394e-31
1.579659335e-31
1.577499399e-31
1.588682145e-31
1.585981966e-31
1.588002678e-31
1.592233088e-31
1.594671274e-31
1.59856162e-31
1.595744692e-31
1.610505263e-31
1.610764623e-31
1.605186946e-31
1.59748467e-31
1.589757753e-31
1.582142624e-31
1.575409509e-31
1.587345374e-31
1.598153378e-31
1.602943327e-31
1.604140882e-31
1.602847679e-31
1.600639967e-31
1.597599603e-31
1.594734007e-31
1.592009147e-31
1.588984977e-31
1.586429863e-31
1.584034624e-31
1.794236608e-31
1.794781253e-31
1.795041593e-31
1.795952121e-31
1.797565298e-31
1.798240021e-31
1.798628145e-31
1.799675886e-31
1.802811476e-31
1.803219307e-31
1.803555746e-31
1.80409117e-31
1.808284927e-31
1.809440389e-31
1.809466136e-31
1.80994683e-31
1.814741586e-31
1.816233123e-31
1.816455958e-31
1.816869316e-31
1.822243062e-31
1.82466407e-31
1.825113361e-31
1.825405139e-31
1.831145517e-31
1.834347881e-31
1.833840822e-31
1.833437881e-31
1.839433007e-31
1.843885001e-31
1.843840897e-31
1.842936633e-31
1.850443408e-31
1.857460404e-31
1.857610627e-31
1.856196643e-31
1.854442984e-31
1.85617875e-31
1.872607583e-31
1.874317188e-31
1.87261883e-31
1.870204519e-31
1.867548308e-31
1.879083881e-31
1.88436315e-31
1.884362824e-31
1.893763114e-31
1.893427155e-31
1.895482759e-31
1.902293308e-31
1.901266456e-31
1.908290018e-31
1.911365858e-31
1.908446554e-31
1.920016595e-31
1.919864328e-31
1.920901385e-31
1.929436488e-31
1.927418591e-31
1.933787883e-31
1.938654246e-31
1.935382346e-31
1.948104997e-31
1.94831115e-31
1.947909195e-31
1.957631408e-31
1.955302282e-31
1.96104235e-31
1.9667516e-31
1.962444777e-31
1.974990501e-31
1.975949254e-31
1.973505528e-31
1.986167457e-31
1.984114531e-31
1.986184041e-31
1.99111892e-31
1.994263466e-31
1.998949238e-31
1.996476747e-31
2.012577014e-31
2.013933799e-31
2.008304828e-31
1.9996776e-31
1.990497664e-31
1.981620327e-31
1.973415178e-31
1.985216942e-31
1.997719689e-31
2.004075288e-31
2.006192002e-31
2.005775816e-31
2.003927901e-31
2.001133828e-31
1.997876106e-31
1.994830647e-31
1.991643567e-31
1.988615405e-31
1.985785061e-31
2.154811816e-31
2.155296955e-31
2.155685367e-31
2.156645878e-31
2.159094967e-31
2.1594579e-31
2.1600029e-31
2.16124075e-31
2.164913352e-31
2.16536853e-31
2.165879618e-31
2.166768986e-31
2.171805575e-31
2.172837059e-31
2.172949681e-31
2.17349948e-31
2.179463403e-31
2.180967649e-31
2.18137085e-31
2.181852074e-31
2.188100787e-31
2.19114424e-31
2.191786821e-31
2.192085519e-31
2.198939083e-31
2.202602006e-31
2.202209274e-31
2.201679535e-31
2.208646108e-31
2.213981735e-31
2.214146441e-31
2.213160465e-31
2.221977928e-31
2.230274431e-31
2.230621037e-31
2.229014889e-31
2.226956543e-31
2.22894433e-31
2.24758706e-31
2.250409158e-31
2.248674081e-31
2.24583664e-31
2.242798068e-31
2.255834044e-31
2.262358329e-31
2.262580124e-31
2.273480217e-31
2.273460783e-31
2.275777165e-31
2.283612397e-31
2.282761866e-31
2.290760543e-31
2.29475142e-31
2.291738353e-31
2.3047989e-31
2.30475428e-31
2.306165979e-31
2.315746105e-31
2.314260348e-31
2.321283409e-31
2.327097731e-31
2.324018677e-31
2.337823865e-31
2.338852933e-31
2.338474776e-31
2.349291351e-31
2.347582839e-31
2.353783827e-31
2.360237861e-31
2.355961404e-31
2.36987312e-31
2.371644284e-31
2.369232994e-31
2.383492678e-31
2.381940414e-31
2.384839794e-31
2.391262417e-31
2.396697514e-31
2.404218265e-31
2.404433266e-31
2.426227071e-31
2.434335341e-31
2.435053311e-31
2.432975845e-31
2.429803344e-31
2.426087353e-31
2.422637265e-31
2.439439757e-31
2.458589153e-31
2.471942031e-31
2.481324655e-31
2.486710267e-31
2.490594306e-31
2.49261445e-31
2.494111108e-31
2.494171142e-31
2.493314093e-31
2.493051198e-31
2.493175374e-31
2.515876516e-31
2.516164687e-31
2.516725522e-31
2.518004414e-31
2.520487809e-31
2.520930295e-31
2.521444437e-31
2.522951182e-31
2.527151979e-31
2.527922055e-31
2.528239591e-31
2.529171317e-31
2.535005614e-31
2.536236262e-31
2.536350783e-31
2.537125513e-31
2.543738219e-31
2.545951925e-31
2.546344525e-31
2.546845261e-31
2.554031586e-31
2.557527885e-31
2.558383516e-31
2.558709511e-31
2.566524523e-31
2.570783882e-31
2.570584813e-31
2.570040192e-31
2.578057136e-31
2.584207191e-31
2.584425098e-31
2.583396661e-31
2.593130695e-31
2.602724548e-31
2.603542188e-31
2.601824121e-31
2.599428219e-31
2.601611381e-31
2.622400633e-31
2.626424275e-31
2.624716148e-31
2.621307152e-31
2.61791179e-31
2.632378349e-31
2.640096238e-31
2.640896481e-31
2.652876197e-31
2.653353081e-31
2.655927927e-31
2.66482281e-31
2.664528822e-31
2.672969768e-31
2.677918793e-31
2.674726102e-31
2.689010021e-31
2.690017219e-31
2.691372053e-31
2.701754381e-31
2.700652655e-31
2.708459286e-31
2.715222497e-31
2.712168169e-31
2.727270231e-31
2.729136672e-31
2.728764033e-31
2.740637617e-31
2.739516452e-31
2.746343118e-31
2.754205032e-31
2.750525317e-31
2.766432701e-31
2.770814879e-31
2.77153717e-31
2.792424505e-31
2.80041786e-31
2.824137439e-31
2.865609965e-31
2.928036497e-31
3.025064134e-31
3.143921389e-31
3.329649865e-31
3.554678891e-31
3.804566644e-31
4.054771939e-31
4.304695082e-31
4.549582931e-31
4.746692902e-31
4.964658171e-31
5.201896831e-31
5.403839406e-31
5.629389379e-31
5.815336067e-31
5.974772724e-31
6.092142779e-31
6.282649777e-31
6.400998264e-31
6.532858882e-31
6.642736224e-31
6.725112369e-31
2.896356444e-31
2.895127712e-31
2.894142425e-31
2.89228968e-31
2.893828021e-31
2.892375386e-31
2.891596158e-31
2.891290409e-31
2.894262421e-31
2.894156832e-31
2.89408888e-31
2.894569876e-31
2.900346277e-31
2.901606307e-31
2.901594463e-31
2.901935881e-31
2.909276715e-31
2.911534317e-31
2.911932707e-31
2.912320348e-31
2.920255307e-31
2.924335554e-31
2.925247943e-31
2.925529618e-31
2.934207592e-31
2.93914877e-31
2.939051199e-31
2.938464002e-31
2.947282071e-31
2.954269786e-31
2.954733854e-31
2.953671864e-31
2.964507206e-31
2.975449917e-31
2.976532687e-31
2.974529038e-31
2.972027058e-31
2.974120227e-31
2.997377736e-31
3.002390438e-31
3.00061307e-31
2.997310448e-31
2.993218657e-31
3.008698941e-31
3.01771623e-31
3.019072176e-31
3.032107578e-31
3.033115004e-31
3.036311578e-31
3.045786249e-31
3.045807277e-31
3.055428469e-31
3.060883533e-31
3.05771713e-31
3.073001982e-31
3.074710193e-31
3.076512264e-31
3.087841578e-31
3.087334775e-31
3.095771914e-31
3.103758983e-31
3.101269116e-31
3.118085865e-31
3.121413971e-31
3.122477254e-31
3.137408623e-31
3.140401367e-31
3.154643816e-31
3.175405614e-31
3.19466361e-31
3.254185315e-31
3.33140054e-31
3.456697687e-31
3.692706521e-31
4.11191027e-31
4.894609945e-31
6.275010363e-31
8.580098991e-31
1.206563079e-30
1.664100375e-30
2.299756223e-30
3.131906489e-30
4.088354453e-30
5.04219414e-30
5.977456992e-30
6.854948313e-30
7.548742019e-30
8.226243959e-30
9.006127714e-30
9.785547781e-30
1.043830694e-29
1.104478165e-29
1.155217892e-29
1.198567942e-29
1.255847771e-29
1.302986575e-29
1.346036742e-29
1.379854392e-29
1.407934535e-29
4.153051389e-31
4.055344365e-31
3.980121277e-31
3.850347503e-31
3.789202075e-31
3.702732803e-31
3.627931601e-31
3.550852239e-31
3.480474227e-31
3.439643029e-31
3.413372646e-31
3.385781638e-31
3.36131645e-31
3.349404945e-31
3.333226033e-31
3.318152948e-31
3.317255964e-31
3.312883388e-31
3.30555641e-31
3.298880684e-31
3.303094187e-31
3.30563515e-31
3.304085163e-31
3.301913353e-31
3.309004919e-31
3.31363584e-31
3.312533815e-31
3.310766964e-31
3.319809734e-31
3.327242265e-31
3.327634103e-31
3.326074516e-31
3.337474166e-31
3.349495602e-31
3.35095884e-31
3.348996417e-31
3.346079346e-31
3.348129834e-31
3.372869478e-31
3.379091003e-31
3.377681452e-31
3.37393805e-31
3.369474438e-31
3.386029926e-31
3.396173772e-31
3.39814136e-31
3.412369609e-31
3.414002545e-31
3.417710676e-31
3.428543358e-31
3.428931581e-31
3.439531535e-31
3.446316938e-31
3.443898515e-31
3.46110238e-31
3.464969267e-31
3.469364218e-31
3.484915453e-31
3.48924599e-31
3.505229363e-31
3.524846851e-31
3.537584017e-31
3.580230026e-31
3.620810748e-31
3.673222397e-31
3.771957743e-31
3.932212016e-31
4.227886184e-31
4.731776947e-31
5.683959458e-31
7.480722855e-31
1.056435855e-30
1.549777481e-30
2.428075138e-30
4.065914822e-30
7.130075547e-30
1.24489412e-29
2.144507236e-29
3.48595871e-29
5.217751226e-29
7.595867568e-29
1.075344183e-28
1.432065804e-28
1.809718056e-28
2.111793694e-28
2.421699627e-28
2.639432384e-28
2.841825076e-28
3.10816135e-28
3.391673018e-28
3.624547233e-28
3.821571764e-28
3.976006038e-28
4.081829552e-28
4.279465369e-28
4.44303503e-28
4.601818086e-28
4.693071364e-28
4.790559115e-28
4.429183505e-30
3.932656404e-30
3.705059393e-30
3.115813117e-30
2.779754509e-30
2.392666821e-30
2.036368846e-30
1.698417996e-30
1.369643293e-30
1.202185327e-30
1.071271814e-30
9.45024663e-31
8.111565644e-31
7.459235868e-31
6.763234576e-31
5.990486905e-31
5.617165849e-31
5.269593145e-31
4.93536018e-31
4.617099583e-31
4.430400772e-31
4.33127438e-31
4.2262296e-31
4.096547605e-31
4.012163825e-31
3.959567813e-31
3.909967399e-31
3.863339541e-31
3.842800044e-31
3.833671659e-31
3.816829851e-31
3.796656416e-31
3.792695442e-31
3.797683721e-31
3.796960912e-31
3.791904971e-31
3.782508774e-31
3.775716597e-31
3.797508143e-31
3.803612232e-31
3.804166341e-31
3.800032844e-31
3.794061561e-31
3.809391029e-31
3.821282492e-31
3.826795074e-31
3.845940009e-31
3.851831291e-31
3.860965154e-31
3.880257281e-31
3.890521958e-31
3.917506762e-31
3.95042412e-31
3.97702214e-31
4.041057512e-31
4.109339009e-31
4.208718083e-31
4.361634079e-31
4.55694451e-31
4.863925233e-31
5.346324936e-31
5.991864044e-31
7.073578892e-31
8.655490786e-31
1.083160263e-30
1.418665171e-30
2.094330416e-30
3.281090275e-30
5.551035622e-30
9.246832324e-30
1.656756542e-29
2.901569347e-29
4.840892828e-29
8.448934923e-29
1.468466093e-28
2.666418726e-28
4.698131236e-28
8.234641519e-28
1.350517881e-27
1.988694797e-27
2.920403566e-27
4.107713344e-27
5.458674374e-27
6.832789922e-27
8.021055346e-27
8.981434462e-27
9.698207233e-27
1.043894349e-26
1.139644244e-26
1.219295845e-26
1.294673757e-26
1.357175764e-26
1.406603111e-26
1.425053534e-26
1.500163113e-26
1.552916443e-26
1.60704963e-26
1.646649903e-26
1.669852663e-26
1.827654508e-28
1.59588918e-28
1.483777033e-28
1.217841973e-28
1.062423265e-28
8.973004421e-29
7.344445044e-29
5.945169116e-29
4.474025141e-29
3.763834646e-29
3.195135138e-29
2.636802762e-29
2.072612334e-29
1.750763101e-29
1.424244927e-29
1.080463563e-29
9.15845541e-30
7.823340079e-30
6.113472557e-30
4.681928494e-30
3.863422587e-30
3.38176821e-30
2.912920502e-30
2.339886243e-30
1.950112905e-30
1.67691842e-30
1.440608783e-30
1.243905402e-30
1.100653653e-30
1.026009867e-30
9.447036408e-31
8.552341634e-31
7.801884936e-31
7.571555849e-31
7.390699021e-31
7.298005882e-31
6.943582824e-31
6.551893393e-31
6.371310894e-31
6.38054825e-31
6.420959695e-31
6.375534266e-31
6.348746989e-31
6.288079747e-31
6.340460286e-31
6.442335188e-31
6.624076718e-31
6.784893436e-31
7.00091337e-31
7.362255837e-31
7.766138887e-31
8.522199477e-31
9.625657721e-31
1.091146738e-30
1.293364185e-30
1.577636453e-30
1.997447407e-30
2.57818451e-30
3.422807174e-30
4.671178124e-30
6.683263635e-30
9.394264128e-30
1.398723525e-29
2.047489744e-29
2.946881735e-29
4.471107051e-29
7.112076203e-29
1.217051159e-28
2.15382316e-28
3.658040038e-28
6.612523466e-28
1.169443579e-27
1.933209059e-27
3.356818331e-27
5.857828914e-27
1.038652897e-26
1.876454491e-26
3.229471433e-26
5.26327709e-26
7.659801666e-26
1.116191179e-25
1.558063257e-25
2.087776736e-25
2.557347456e-25
3.004496987e-25
3.353052586e-25
3.538175121e-25
3.832086017e-25
4.119367037e-25
4.372523554e-25
4.615823126e-25
4.819782906e-25
4.938995045e-25
5.16094256e-25
5.352457797e-25
5.519302235e-25
5.659181498e-25
5.76189494e-25
5.817661676e-25
8.169079952e-27
7.225891055e-27
6.520841229e-27
5.285122396e-27
4.650741096e-27
3.93373194e-27
3.219679931e-27
2.630148696e-27
1.941590483e-27
1.63851407e-27
1.405023146e-27
1.147467867e-27
9.101885435e-28
7.604718357e-28
6.103685375e-28
4.670995318e-28
3.878520526e-28
3.253192028e-28
2.534774843e-28
1.865537318e-28
1.535075998e-28
1.320800189e-28
1.10851012e-28
8.545236626e-29
6.889701502e-29
5.718496984e-29
4.623046309e-29
3.744344258e-29
3.120323911e-29
2.782246733e-29
2.420064399e-29
2.01253278e-29
1.709993799e-29
1.583125814e-29
1.495041276e-29
1.456778135e-29
1.304250817e-29
1.117707476e-29
1.043475388e-29
1.058686669e-29
1.05589485e-29
1.046560599e-29
1.026965804e-29
9.879623438e-30
1.015043822e-29
1.055134112e-29
1.122022631e-29
1.187753055e-29
1.276169348e-29
1.437227482e-29
1.599933918e-29
1.921590004e-29
2.394791762e-29
2.933171844e-29
3.823949656e-29
5.018743399e-29
6.828331218e-29
9.524987148e-29
1.292152934e-28
1.809495314e-28
2.680160684e-28
3.783141446e-28
5.77003327e-28
8.538915964e-28
1.202876114e-27
1.840350705e-27
2.940123921e-27
5.053433722e-27
8.945429746e-27
1.504685139e-26
2.702943227e-26
4.760538271e-26
7.730203057e-26
1.341546557e-25
2.298335591e-25
4.111065887e-25
7.35825632e-25
1.25232747e-24
2.027104057e-24
3.00633975e-24
4.280000707e-24
6.024402092e-24
7.892950294e-24
9.774820389e-24
1.117744163e-23
1.236206939e-23
1.313749045e-23
1.389020048e-23
1.47882698e-23
1.555087201e-23
1.63862577e-23
1.711521586e-23
1.740980835e-23
1.811443062e-23
1.876052214e-23
1.93675974e-23
1.989898932e-23
2.019563973e-23
2.027483412e-23
3.58671756e-25
3.243404205e-25
2.868170026e-25
2.330358242e-25
2.052868115e-25
1.756334961e-25
1.421592035e-25
1.175101686e-25
8.577100089e-26
7.222342454e-26
6.175484788e-26
5.059080317e-26
4.061358653e-26
3.381962255e-26
2.685840166e-26
2.060890648e-26
1.703333161e-26
1.431851039e-26
1.112418405e-26
8.440367491e-27
6.76565939e-27
5.826278408e-27
4.858775203e-27
3.707004123e-27
3.03470357e-27
2.527876485e-27
2.031690427e-27
1.629654976e-27
1.352180626e-27
1.20579217e-27
1.053646906e-27
8.637926613e-28
7.27294086e-28
6.806453806e-28
6.459020028e-28
6.186323228e-28
5.555369091e-28
4.69307258e-28
4.392423243e-28
4.514644884e-28
4.569017742e-28
4.41775313e-28
4.396884709e-28
4.291006793e-28
4.323724789e-28
4.46645029e-28
4.730463539e-28
4.971376655e-28
5.410115398e-28
6.067720152e-28
6.695016431e-28
8.13882282e-28
1.026863777e-27
1.219605153e-27
1.63176491e-27
2.168644548e-27
2.885207404e-27
4.073400504e-27
5.479775337e-27
7.690010683e-27
1.142822457e-26
1.644519099e-26
2.473793628e-26
3.614934632e-26
5.073341872e-26
7.648989033e-26
1.245235977e-25
2.130108004e-25
3.69446595e-25
6.158365724e-25
1.118619634e-24
1.941700815e-24
3.066385942e-24
5.342923466e-24
9.288658652e-24
1.678815211e-23
2.890504684e-23
4.900541885e-23
7.945263073e-23
1.160270988e-22
1.674895523e-22
2.307823886e-22
2.978665061e-22
3.65395101e-22
4.074288364e-22
4.527892508e-22
4.796255429e-22
5.008891661e-22
5.301411257e-22
5.528052846e-22
5.818074578e-22
6.076431626e-22
6.231333358e-22
6.448212794e-22
6.630587569e-22
6.837299112e-22
6.987881078e-22
7.063485163e-22
7.042527816e-22
1.618541039e-23
1.427241722e-23
1.259710609e-23
1.069574773e-23
9.047954807e-24
7.760006953e-24
6.308354088e-24
5.194750531e-24
3.833101857e-24
3.208366003e-24
2.722971226e-24
2.240872721e-24
1.800478232e-24
1.503033855e-24
1.183084923e-24
9.113597523e-25
7.456143381e-25
6.42228281e-25
4.858605334e-25
3.750225072e-25
2.989708577e-25
2.58008831e-25
2.159232641e-25
1.653115087e-25
1.344131113e-25
1.112101202e-25
8.889801603e-26
7.267347834e-26
5.945436991e-26
5.313181513e-26
4.688171098e-26
3.824918922e-26
3.18899361e-26
3.021341833e-26
2.851182252e-26
2.719642811e-26
2.481214902e-26
2.072615008e-26
1.941403268e-26
2.013834579e-26
2.028640952e-26
1.975200091e-26
1.945820222e-26
1.891075531e-26
1.906546906e-26
1.958765729e-26
2.076334301e-26
2.160941618e-26
2.381941475e-26
2.635641872e-26
2.929212838e-26
3.536122348e-26
4.404859418e-26
5.425892789e-26
7.121813565e-26
9.379247813e-26
1.259635823e-25
1.75805e-25
2.300061062e-25
3.288984144e-25
4.885071527e-25
6.9596265e-25
1.05504348e-24
1.546691164e-24
2.112943743e-24
3.18958434e-24
5.192272465e-24
8.88336036e-24
1.518730814e-23
2.49553961e-23
4.581949538e-23
8.051334845e-23
1.234986656e-22
2.162379175e-22
3.735535899e-22
6.657215746e-22
1.141117651e-21
1.928469595e-21
3.068807042e-21
4.419070014e-21
6.452588163e-21
8.828623777e-21
1.112515781e-20
1.362814764e-20
1.529181068e-20
1.661311477e-20
1.745547709e-20
1.782664804e-20
1.894352308e-20
1.975179523e-20
2.067721548e-20
2.159169119e-20
2.213048353e-20
2.27494927e-20
2.297451543e-20
2.375863855e-20
2.431303677e-20
2.457684683e-20
2.438069908e-20
7.080191741e-22
6.346397609e-22
5.611946546e-22
4.758227302e-22
4.017498987e-22
3.437251001e-22
2.836910808e-22
2.309029783e-22
1.702054687e-22
1.427691314e-22
1.21349837e-22
9.809079299e-23
7.87556145e-23
6.668592803e-23
5.213241124e-23
4.069244401e-23
3.272167462e-23
2.830693638e-23
2.133111356e-23
1.672282374e-23
1.327156363e-23
1.14120115e-23
9.48539064e-24
7.239023577e-24
5.924930531e-24
4.917608221e-24
3.973361564e-24
3.223025612e-24
2.615710793e-24
2.346501383e-24
2.075337943e-24
1.704482536e-24
1.400155477e-24
1.334250415e-24
1.271716435e-24
1.213256447e-24
1.096356219e-24
9.09499223e-25
8.628542116e-25
9.016966725e-25
9.018344769e-25
8.747456421e-25
8.562769789e-25
8.33193656e-25
8.400559275e-25
8.557449054e-25
9.126506515e-25
9.605571796e-25
1.045423184e-24
1.140847596e-24
1.279337138e-24
1.544482489e-24
1.955003505e-24
2.320705393e-24
3.066678148e-24
4.060954801e-24
5.528423578e-24
7.629195636e-24
1.018316222e-23
1.413020116e-23
2.075829167e-23
2.963882073e-23
4.472085004e-23
6.450358687e-23
8.828294015e-23
1.331499763e-22
2.158349967e-22
3.696161943e-22
6.424567807e-22
1.026710665e-21
1.879001474e-21
3.291486684e-21
5.107054895e-21
8.642699773e-21
1.483129992e-20
2.646699841e-20
4.504211653e-20
7.542507957e-20
1.175602795e-19
1.660029148e-19
2.469533473e-19
3.368882148e-19
4.304722299e-19
5.111598273e-19
5.729996233e-19
6.116863567e-19
6.359504347e-19
6.541227173e-19
6.781556516e-19
7.002313311e-19
7.314181184e-19
7.644441754e-19
7.84526673e-19
8.039087033e-19
8.127049617e-19
8.306954422e-19
8.447801867e-19
8.511646926e-19
8.48127578e-19
3.125659301e-20
2.800031579e-20
2.469453759e-20
2.099954145e-20
1.757448772e-20
1.527825153e-20
1.274858195e-20
1.026321987e-20
7.601052342e-21
6.357564989e-21
5.410108245e-21
4.304915595e-21
3.510053335e-21
2.958070398e-21
2.288726482e-21
1.819177794e-21
1.485318986e-21
1.287668051e-21
9.532097653e-22
7.434190684e-22
5.841167764e-22
5.088537216e-22
4.231487783e-22
3.209311916e-22
2.627156018e-22
2.204959075e-22
1.760173978e-22
1.426525705e-22
1.155260364e-22
1.029089332e-22
9.152984736e-23
7.529974945e-23
6.189128919e-23
5.884127779e-23
5.682831084e-23
5.372624743e-23
4.878904746e-23
4.072007389e-23
3.81421399e-23
4.030140295e-23
4.006286659e-23
3.8280237e-23
3.792900916e-23
3.66427903e-23
3.698206124e-23
3.711770917e-23
4.014387042e-23
4.227938915e-23
4.575967223e-23
4.9767153e-23
5.596935841e-23
6.725861174e-23
8.56235954e-23
1.010511221e-22
1.314223491e-22
1.772787935e-22
2.387047094e-22
3.305491624e-22
4.34501447e-22
6.119813703e-22
8.824078681e-22
1.251669895e-21
1.892432706e-21
2.808343797e-21
3.71364203e-21
5.567816419e-21
9.020753507e-21
1.532323436e-20
2.680608715e-20
4.115747374e-20
7.708803553e-20
1.335100951e-19
2.048375674e-19
3.497663122e-19
5.874373159e-19
1.053059509e-18
1.768788435e-18
2.980530269e-18
4.797222134e-18
6.387645897e-18
9.46443577e-18
1.284117983e-17
1.649075264e-17
1.901750997e-17
2.122101857e-17
2.22784049e-17
2.310985297e-17
2.354755198e-17
2.414578206e-17
2.472673067e-17
2.592179787e-17
2.700637774e-17
2.786467073e-17
2.832516851e-17
2.852453009e-17
2.907242503e-17
2.939982787e-17
2.931593548e-17
2.925626057e-17
1.417000503e-18
1.227485376e-18
1.083724808e-18
9.201679989e-19
8.000489723e-19
6.745285659e-19
5.679026528e-19
4.564284889e-19
3.389089146e-19
2.829039703e-19
2.398072035e-19
1.935025347e-19
1.55514945e-19
1.312705253e-19
1.014791863e-19
8.113887063e-20
6.548608994e-20
5.700106829e-20
4.389200185e-20
3.34758396e-20
2.578459642e-20
2.241287732e-20
1.878383967e-20
1.446750468e-20
1.173395967e-20
9.832899004e-21
7.755100322e-21
6.29529635e-21
5.158576465e-21
4.503010555e-21
4.105408671e-21
3.322646014e-21
2.78765856e-21
2.597865752e-21
2.499987942e-21
2.383988156e-21
2.16406785e-21
1.790518834e-21
1.708965492e-21
1.78395488e-21
1.779762325e-21
1.730966959e-21
1.6702851e-21
1.600827733e-21
1.624557683e-21
1.630487063e-21
1.769159316e-21
1.875664293e-21
2.003367786e-21
2.162904888e-21
2.462750004e-21
2.900109815e-21
3.764460958e-21
4.416281847e-21
5.662507028e-21
7.663333869e-21
1.036115417e-20
1.424999549e-20
1.840715607e-20
2.645961707e-20
3.80595173e-20
5.285818972e-20
7.963911878e-20
1.188290379e-19
1.552354515e-19
2.332189494e-19
3.752483613e-19
6.330725489e-19
1.119969799e-18
1.703827403e-18
3.145494909e-18
5.502873546e-18
8.248112859e-18
1.402348987e-17
2.352495604e-17
4.192614799e-17
6.924626831e-17
1.1722329e-16
1.890667801e-16
2.46047335e-16
3.649316237e-16
4.863577831e-16
6.291031815e-16
7.175401859e-16
7.877922772e-16
8.002143449e-16
8.363005032e-16
8.501709695e-16
8.59012091e-16
8.759127336e-16
9.207536956e-16
9.55335445e-16
9.843047809e-16
1.003006391e-15
9.803903995e-16
1.006859491e-15
1.015878828e-15
1.014894067e-15
1.003239962e-15
6.287384137e-17
5.657720708e-17
4.739313958e-17
4.053178445e-17
3.577663084e-17
2.981784487e-17
2.491886609e-17
2.036019683e-17
1.511426188e-17
1.251100294e-17
1.052834826e-17
8.606923882e-18
6.930603855e-18
5.834620307e-18
4.53107622e-18
3.606947112e-18
2.962274761e-18
2.500701076e-18
1.971935968e-18
1.48199107e-18
1.146822805e-18
9.8098599e-19
8.350894809e-19
6.44104277e-19
5.160399918e-19
4.359218221e-19
3.400732888e-19
2.764650233e-19
2.276064431e-19
1.975262493e-19
1.844821923e-19
1.467088664e-19
1.23950121e-19
1.156942074e-19
1.107322812e-19
1.05820839e-19
9.568663195e-20
7.843327064e-20
7.812613938e-20
8.077268599e-20
7.931111376e-20
7.661046437e-20
7.346256169e-20
6.836455002e-20
7.128330785e-20
6.933314414e-20
7.776843121e-20
8.24486381e-20
8.71644876e-20
9.569368121e-20
1.09435918e-19
1.29145559e-19
1.636945696e-19
1.923514804e-19
2.488519273e-19
3.305869563e-19
4.500234684e-19
6.330027573e-19
8.173827141e-19
1.141381771e-18
1.627163858e-18
2.225259596e-18
3.446447242e-18
5.013293349e-18
6.45684407e-18
9.796229357e-18
1.553181722e-17
2.607689533e-17
4.681190703e-17
7.049821297e-17
1.294245423e-16
2.281331891e-16
3.27943552e-16
5.671457546e-16
9.269314485e-16
1.661132675e-15
2.770180422e-15
4.541530836e-15
7.670464507e-15
9.411932321e-15
1.42397464e-14
1.882839663e-14
2.356323137e-14
2.708252894e-14
2.957141328e-14
2.935698297e-14
3.015817996e-14
3.092197505e-14
3.03297807e-14
3.14842052e-14
3.254171565e-14
3.36470789e-14
3.452685122e-14
3.523332814e-14
3.530001392e-14
3.549068933e-14
3.53684071e-14
3.500323635e-14
3.427792309e-14
2.790625736e-15
2.59973986e-15
2.122276969e-15
1.825086907e-15
1.589675394e-15
1.338113505e-15
1.069418906e-15
9.119995563e-16
6.734216187e-16
5.609644607e-16
4.788004434e-16
3.83000437e-16
3.060164218e-16
2.591380654e-16
1.998069298e-16
1.599943766e-16
1.316606989e-16
1.109854564e-16
8.827589135e-17
6.53268637e-17
5.129969759e-17
4.388310862e-17
3.713285273e-17
2.856302663e-17
2.317381501e-17
1.945599848e-17
1.491633368e-17
1.233434472e-17
9.963206445e-18
8.921034069e-18
8.161805918e-18
6.471043854e-18
5.492882216e-18
5.166959262e-18
4.911585468e-18
4.691698301e-18
4.247878475e-18
3.423358798e-18
3.500906862e-18
3.583677318e-18
3.562125967e-18
3.456208686e-18
3.230956988e-18
3.007576195e-18
3.133077399e-18
3.147453957e-18
3.419259415e-18
3.610286696e-18
3.899811158e-18
4.219124949e-18
4.812986921e-18
5.646408006e-18
7.285115219e-18