/*--------------------------------*- C++ -*----------------------------------*\
| =========                 |                                                 |
| \\      /  F ield         | OpenFOAM: The Open Source CFD Toolbox           |
|  \\    /   O peration     | Version:  v1706                                 |
|   \\  /    A nd           | Web:      www.OpenFOAM.com                      |
|    \\/     M anipulation  |                                                 |
\*---------------------------------------------------------------------------*/
FoamFile
{
    version     2.0;
    format      ascii;
    class       volScalarField;
    location    "0.00272";
    object      O+;
}
// * * * * * * * * * * * * * * * * * * * * * * * * * * * * * * * * * * * * * //

dimensions      [0 0 0 0 0 0 0];


internalField   nonuniform List<scalar> 
11682
(
1.220785286e-60
8.940081537e-61
9.016697728e-61
7.469965945e-61
6.313357417e-61
4.78771715e-61
4.206285382e-61
3.397145014e-61
1.895775962e-61
1.566656549e-61
1.335067403e-61
1.119597995e-61
7.603524202e-62
6.372060813e-62
4.809967551e-62
3.484542214e-62
3.356513645e-62
3.54012105e-62
2.502447684e-62
1.671443827e-62
1.116077215e-62
7.531709199e-63
6.300564108e-63
3.468336994e-63
3.246219128e-63
2.36170472e-63
1.764022988e-63
1.382623859e-63
1.096933268e-63
9.324669962e-64
7.451287631e-64
6.004213176e-64
5.103460718e-64
4.060383339e-64
3.64685266e-64
3.624202634e-64
3.314319988e-64
3.723873283e-64
8.582941173e-64
2.941520186e-63
9.376588856e-63
1.931294662e-62
1.858820519e-62
1.007926892e-62
6.425146339e-63
2.202804453e-63
1.338662838e-63
8.911575706e-64
7.582595072e-64
7.301980186e-64
6.170036489e-64
6.302339023e-64
7.313015197e-64
1.059809496e-63
1.438455224e-63
2.146983096e-63
3.145237738e-63
4.035427023e-63
7.558089527e-63
1.219082329e-62
1.724849775e-62
3.435586321e-62
5.917204229e-62
7.260503691e-62
1.586017312e-61
2.692289538e-61
4.884533909e-61
8.168401792e-61
2.00713918e-60
4.951730375e-60
1.034831514e-59
2.548040852e-59
5.463328922e-59
1.05367673e-58
2.043695451e-58
4.580452984e-58
9.560557683e-58
1.856716422e-57
3.621588966e-57
5.915808979e-57
1.030740853e-56
1.525722739e-56
2.513653522e-56
3.565141339e-56
4.50704707e-56
5.400981166e-56
6.877995415e-56
8.091102804e-56
9.224005258e-56
1.034599878e-55
1.083487469e-55
1.263501685e-55
1.386856158e-55
1.487587215e-55
1.595225418e-55
1.694321723e-55
1.786375928e-55
1.873893476e-55
1.937657635e-55
1.482997761e-58
1.206465766e-58
1.196972012e-58
9.590730275e-59
8.281288165e-59
6.636207152e-59
5.269313156e-59
4.432420877e-59
2.539742954e-59
1.964976643e-59
1.682985796e-59
1.412386869e-59
9.900449292e-60
7.729774914e-60
5.935573725e-60
4.300107038e-60
4.88001839e-60
4.618519214e-60
3.14649981e-60
2.081734417e-60
1.396604978e-60
1.002028025e-60
7.877445986e-61
5.609848139e-61
4.015715477e-61
3.011573249e-61
2.226137829e-61
1.722723373e-61
1.377075802e-61
1.178614673e-61
9.577773536e-62
8.180179242e-62
6.517676336e-62
5.103514191e-62
4.49315455e-62
4.621441261e-62
3.992915847e-62
4.131528587e-62
1.032148479e-61
4.034914139e-61
1.324988396e-60
2.722605915e-60
2.660691366e-60
1.736520862e-60
9.3101981e-61
4.206792334e-61
1.938981997e-61
1.177536841e-61
9.588648207e-62
9.159330599e-62
8.247275229e-62
8.200608847e-62
9.340875458e-62
1.315833557e-61
1.85160524e-61
2.642045634e-61
3.847471384e-61
5.766951777e-61
9.295326812e-61
1.502334567e-60
2.663667092e-60
4.281916876e-60
7.23215016e-60
1.215155864e-59
1.888101763e-59
3.183151259e-59
5.780978036e-59
1.157196889e-58
2.445564844e-58
5.78972051e-58
1.366414085e-57
2.96595629e-57
6.403647269e-57
1.195077646e-56
2.33278591e-56
5.098626614e-56
1.112873318e-55
2.157008606e-55
4.05894626e-55
6.786020018e-55
1.099301051e-54
1.818208599e-54
2.720846131e-54
3.809031256e-54
5.002021278e-54
6.102152129e-54
7.290396998e-54
8.421425019e-54
9.228349448e-54
1.08468578e-53
1.195749198e-53
1.306185665e-53
1.412842017e-53
1.507367178e-53
1.612051429e-53
1.699731523e-53
1.784925647e-53
1.872007351e-53
1.939776709e-53
1.96118392e-56
1.473810585e-56
1.468027597e-56
1.20708854e-56
1.075125691e-56
8.200126797e-57
6.464890552e-57
5.570310566e-57
3.179243823e-57
2.441708547e-57
2.08432662e-57
1.731629213e-57
1.192557401e-57
9.268462454e-58
7.380667559e-58
5.26262527e-58
6.304461432e-58
5.9176662e-58
3.889409793e-58
2.54911929e-58
1.698791107e-58
1.258359875e-58
9.818923714e-59
6.89865188e-59
5.234915592e-59
3.643819264e-59
2.781312767e-59
2.284299737e-59
1.754239219e-59
1.474910319e-59
1.177480151e-59
1.032973137e-59
8.16690942e-60
6.350441629e-60
5.893097759e-60
5.646637128e-60
4.870572991e-60
4.967968293e-60
1.191232748e-59
5.237641335e-59
1.762635309e-58
3.606213743e-58
3.659803036e-58
2.35460578e-58
1.269566062e-58
5.886643721e-59
2.588710365e-59
1.523862644e-59
1.190313335e-59
1.124815046e-59
1.000848869e-59
9.760624004e-60
1.164919476e-59
1.607697177e-59
2.255002975e-59
3.117718647e-59
4.667163437e-59
6.734313369e-59
1.118708326e-58
1.852198983e-58
3.219354069e-58
5.356697121e-58
9.063087589e-58
1.424941275e-57
2.133336743e-57
3.724362776e-57
6.684101661e-57
1.358200144e-56
2.825536078e-56
6.64904456e-56
1.575808826e-55
3.391653798e-55
7.389705107e-55
1.353211187e-54
2.61409546e-54
5.785461338e-54
1.229535378e-53
2.351723322e-53
4.448476146e-53
7.204141912e-53
1.239830606e-52
2.010626128e-52
2.890202715e-52
4.037189906e-52
5.217479456e-52
6.279806786e-52
7.505148655e-52
8.498957683e-52
9.441418238e-52
1.086058202e-51
1.17026017e-51
1.285214733e-51
1.408228259e-51
1.506144893e-51
1.607582795e-51
1.64614477e-51
1.743455071e-51
1.821711768e-51
1.895092516e-51
2.45739203e-54
1.890083699e-54
1.874019731e-54
1.51654774e-54
1.385307194e-54
1.077593491e-54
7.888101343e-55
7.006665256e-55
3.94982125e-55
3.042333667e-55
2.615749208e-55
2.091107653e-55
1.495198295e-55
1.236184139e-55
8.992317155e-56
6.930435796e-56
8.652300615e-56
7.54520906e-56
4.839009964e-56
3.131736681e-56
2.045423816e-56
1.597539371e-56
1.25392742e-56
8.355335594e-57
6.42814393e-57
4.822433476e-57
3.525554887e-57
2.803204236e-57
2.178338918e-57
1.892153906e-57
1.547885566e-57
1.322412954e-57
1.028408931e-57
8.206314277e-58
7.698789675e-58
7.168860276e-58
5.870051249e-58
5.802176671e-58
1.268833335e-57
6.459905274e-57
2.357167635e-56
5.389847861e-56
4.958852185e-56
3.335573987e-56
1.717868986e-56
7.875109853e-57
3.399054913e-57
1.967818169e-57
1.477233129e-57
1.348378627e-57
1.202743342e-57
1.187953769e-57
1.433136698e-57
1.960154125e-57
2.729649883e-57
3.847286123e-57
5.733761509e-57
7.491285589e-57
1.340374921e-56
2.246477646e-56
3.893508083e-56
6.473801012e-56
1.077170728e-55
1.661238138e-55
2.386380408e-55
4.272435983e-55
7.609879799e-55
1.57892942e-54
3.384589339e-54
7.574371147e-54
1.828737483e-53
3.980059605e-53
8.472953369e-53
1.508897984e-52
2.853278269e-52
6.49016758e-52
1.355035431e-51
2.579680428e-51
4.848507305e-51
7.661240285e-51
1.349317295e-50
2.16433649e-50
3.033455325e-50
4.214746289e-50
5.394680642e-50
6.264278334e-50
7.71920477e-50
8.52912703e-50
9.608644101e-50
1.058255734e-49
1.205830592e-49
1.304353416e-49
1.404542306e-49
1.494446345e-49
1.582683803e-49
1.662945377e-49
1.72947538e-49
1.786934565e-49
1.845824049e-49
3.015526773e-52
2.39163937e-52
2.402007817e-52
1.965726559e-52
1.657346833e-52
1.388240956e-52
9.67948608e-53
8.812849278e-53
5.211867284e-53
3.739796814e-53
3.39233847e-53
2.560640119e-53
1.751008523e-53
1.526564032e-53
1.144687449e-53
8.602592339e-54
1.051851777e-53
9.477257296e-54
6.101059651e-54
3.870910929e-54
2.563536188e-54
2.043775184e-54
1.617046976e-54
1.061603943e-54
7.815870397e-55
5.930079775e-55
4.480068419e-55
3.417479526e-55
2.733493303e-55
2.375045765e-55
1.973814507e-55
1.679233404e-55
1.281924205e-55
1.011471529e-55
9.681312509e-56
8.939122693e-56
7.411443179e-56
6.631588093e-56
1.61293387e-55
7.666139594e-55
2.989431147e-54
6.981214759e-54
7.022064021e-54
4.661694096e-54
2.386485012e-54
1.031887005e-54
4.446165153e-55
2.524643131e-55
1.830120017e-55
1.673829949e-55
1.442000244e-55
1.485100637e-55
1.783540567e-55
2.35965064e-55
3.302012092e-55
4.655483693e-55
7.018605758e-55
1.039903411e-54
1.597150201e-54
2.718058136e-54
4.707700389e-54
7.642786478e-54
1.287109588e-53
1.903910017e-53
3.006657172e-53
4.944310346e-53
8.667630632e-53
1.819496773e-52
3.884569584e-52
8.739146306e-52
2.119605995e-51
4.798475045e-51
9.759578273e-51
1.681974865e-50
3.328714575e-50
7.236664483e-50
1.49023195e-49
2.773262875e-49
5.264296307e-49
8.9036313e-49
1.468747517e-48
2.336455003e-48
3.198162539e-48
4.424085732e-48
5.479248352e-48
6.485120283e-48
7.912164029e-48
8.61594262e-48
9.996502897e-48
1.102044731e-47
1.202110139e-47
1.295521694e-47
1.397401548e-47
1.486801023e-47
1.518814242e-47
1.630775205e-47
1.681515362e-47
1.737434093e-47
1.79752811e-47
3.868512638e-50
3.07351845e-50
3.218543564e-50
2.409572089e-50
2.301926407e-50
1.773634893e-50
1.253548881e-50
1.103357513e-50
6.46787996e-51
4.519281822e-51
4.295771716e-51
3.348808927e-51
2.297857483e-51
1.913658627e-51
1.41723439e-51
1.053948217e-51
1.395430344e-51
1.182511157e-51
7.704910305e-52
4.800730204e-52
3.229802914e-52
2.587420152e-52
2.031243506e-52
1.325990002e-52
9.745454349e-53
7.349005269e-53
5.643733336e-53
4.191930386e-53
3.449291843e-53
2.95864434e-53
2.50265875e-53
2.100140263e-53
1.640613646e-53
1.280821925e-53
1.214034724e-53
1.112428789e-53
9.082547825e-54
7.695465944e-54
1.782412577e-53
8.795253658e-53
3.598724403e-52
8.748657656e-52
9.237970848e-52
6.307027288e-52
3.115714095e-52
1.299717423e-52
5.867505817e-53
3.237376485e-53
2.270884906e-53
2.030315301e-53
1.711650337e-53
1.821551705e-53
2.261506401e-53
2.950633917e-53
4.301516347e-53
5.547079824e-53
8.674330771e-53
1.27270986e-52
1.957833542e-52
3.266835633e-52
5.672408304e-52
9.681608711e-52
1.580397073e-51
2.300041645e-51
3.529805367e-51
5.737467019e-51
1.057625537e-50
2.103022086e-50
4.293833315e-50
9.879126697e-50
2.414390357e-49
5.521271205e-49
1.119337092e-48
1.966639419e-48
3.67587563e-48
8.050777087e-48
1.638329549e-47
3.087836502e-47
5.809956337e-47
9.378757446e-47
1.582566081e-46
2.513912471e-46
3.482278733e-46
4.660700333e-46
5.846057754e-46
6.925033857e-46
8.167206438e-46
8.92311722e-46
1.005806514e-45
1.098875567e-45
1.209875751e-45
1.286650003e-45
1.383028725e-45
1.457869071e-45
1.543625465e-45
1.59804999e-45
1.622395596e-45
1.676898833e-45
1.753499886e-45
5.098914339e-48
3.95374076e-48
4.040921181e-48
3.235005699e-48
3.005087053e-48
2.21807207e-48
1.605527504e-48
1.374712578e-48
8.125521827e-49
5.853789966e-49
5.40646626e-49
4.146810319e-49
2.845687281e-49
2.429537945e-49
1.724570554e-49
1.314905457e-49
1.753679986e-49
1.547273428e-49
9.604169697e-50
5.923096685e-50
4.076869291e-50
3.238105188e-50
2.555677944e-50
1.648923558e-50
1.198458019e-50
9.214215734e-51
7.05046418e-51
5.210203146e-51
4.407439122e-51
3.80265557e-51
3.16322587e-51
2.620876905e-51
1.997375876e-51
1.586882243e-51
1.525211036e-51
1.373767232e-51
1.091127896e-51
8.647642599e-52
1.921583701e-51
1.003433042e-50
4.203420564e-50
1.014223224e-49
1.137689537e-49
7.89583452e-50
3.941610496e-50
1.699234688e-50
7.562047596e-51
4.116311758e-51
2.885084768e-51
2.514282594e-51
2.192937324e-51
2.179168085e-51
2.805390455e-51
3.606548843e-51
5.254715515e-51
7.407114548e-51
1.089859081e-50
1.586681435e-50
2.346034279e-50
3.897165515e-50
6.843671906e-50
1.164209276e-49
1.994584339e-49
2.928807759e-49
4.20414006e-49
6.742141109e-49
1.239186151e-48
2.413669943e-48
4.970269952e-48
1.146072922e-47
2.732218811e-47
6.247262107e-47
1.281865128e-46
2.26369741e-46
3.891539921e-46
8.901263078e-46
1.795998117e-45
3.411828458e-45
6.340908875e-45
1.052403095e-44
1.705426814e-44
2.679575262e-44
3.857426588e-44
4.945059388e-44
6.106569666e-44
7.359287406e-44
8.331544238e-44
9.231535402e-44
1.026281588e-43
1.092250943e-43
1.210976948e-43
1.296039596e-43
1.365199742e-43
1.386855511e-43
1.513294731e-43
1.562771023e-43
1.640807746e-43
1.702836189e-43
1.745516655e-43
6.52494235e-46
5.311031106e-46
5.206720306e-46
4.102517964e-46
3.778341386e-46
2.76470391e-46
2.199885804e-46
1.710530497e-46
1.018236444e-46
7.336719919e-47
6.737759739e-47
5.448350401e-47
3.611980424e-47
3.113652541e-47
2.287637464e-47
1.639067198e-47
2.387808123e-47
1.9435277e-47
1.198559469e-47
7.274187729e-48
5.004737067e-48
4.182797603e-48
3.19459876e-48
2.074439183e-48
1.481608299e-48
1.169213658e-48
8.824891389e-49
6.428167736e-49
5.476615762e-49
4.771546526e-49
3.980572114e-49
3.260603227e-49
2.543388076e-49
2.080419398e-49
1.927892621e-49
1.717264127e-49
1.371055081e-49
9.653448259e-50
2.160427578e-49
1.125379224e-48
4.894479168e-48
1.272913549e-47
1.402446183e-47
9.442009976e-48
4.860600876e-48
2.153612901e-48
9.582684294e-49
5.145165504e-49
3.803095726e-49
3.061065169e-49
2.668903793e-49
2.799011186e-49
3.469565511e-49
4.45367208e-49
6.406359648e-49
9.018382983e-49
1.308641984e-48
1.969835938e-48
2.885873974e-48
4.669040872e-48
8.27741751e-48
1.396127103e-47
2.453567287e-47
3.675098238e-47
5.070686167e-47
7.975236014e-47
1.459559443e-46
2.871513424e-46
5.681166918e-46
1.296121279e-45
3.0765583e-45
6.968824617e-45
1.471656532e-44
2.546978882e-44
4.847323866e-44
9.850140002e-44
1.959182131e-43
3.791175889e-43
6.913947447e-43
1.128266711e-42
1.815854565e-42
2.842885772e-42
4.095094809e-42
5.23441196e-42
6.40328125e-42
7.574712057e-42
8.415074083e-42
9.190518855e-42
1.025902135e-41
1.124683129e-41
1.207108274e-41
1.284607498e-41
1.337930654e-41
1.376073833e-41
1.468967172e-41
1.541888266e-41
1.610846075e-41
1.658563175e-41
1.701030821e-41
8.45964784e-44
6.679474929e-44
6.549268321e-44
5.088120425e-44
4.646334307e-44
3.469496848e-44
2.75759458e-44
2.11217793e-44
1.280760469e-44
9.476275587e-45
8.388553838e-45
7.175852888e-45
4.627045259e-45
4.000047376e-45
2.935729392e-45
2.016028928e-45
3.070844106e-45
2.407390208e-45
1.492658877e-45
8.968115116e-46
6.190508423e-46
5.299981636e-46
3.904553051e-46
2.680929311e-46
1.80805736e-46
1.464788985e-46
1.108380198e-46
7.919757946e-47
6.837021951e-47
6.028839771e-47
5.02322151e-47
4.0233359e-47
3.145893995e-47
2.602298724e-47
2.364608367e-47
2.243028555e-47
1.767651199e-47
1.159537881e-47
2.249852758e-47
1.192711917e-46
5.732881185e-46
1.458032071e-45
1.625032647e-45
1.108921009e-45
5.766422326e-46
2.594868856e-46
1.161448875e-46
6.335550128e-47
4.73500711e-47
3.969844793e-47
3.28046718e-47
3.428054226e-47
4.283325947e-47
5.499702114e-47
7.839140216e-47
1.063418108e-46
1.540771986e-46
2.351936754e-46
3.454240755e-46
5.726683803e-46
1.001330655e-45
1.682513042e-45
2.960593176e-45
4.515974417e-45
6.093115904e-45
9.163824442e-45
1.714487713e-44
3.366233505e-44
6.272189185e-44
1.462947578e-43
3.492008477e-43
8.169832388e-43
1.678267717e-42
2.852466421e-42
5.304447486e-42
1.076753226e-41
2.116928256e-41
4.134497106e-41
7.517729793e-41
1.210007206e-40
1.926065787e-40
3.031447781e-40
4.36213671e-40
5.813461001e-40
6.68496075e-40
7.852708104e-40
8.499210957e-40
8.979929537e-40
9.982917859e-40
1.121485048e-39
1.210319359e-39
1.278312236e-39
1.315295042e-39
1.315166808e-39
1.412848656e-39
1.490441391e-39
1.572167716e-39
1.599028889e-39
1.648459743e-39
1.083384743e-41
8.148061056e-42
8.761018285e-42
6.798645151e-42
5.865760802e-42
4.38153881e-42
3.353938215e-42
2.600395888e-42
1.585612361e-42
1.242908125e-42
1.05486555e-42
9.1480535e-43
6.073701629e-43
5.111055836e-43
3.862025715e-43
2.468629587e-43
3.952715376e-43
2.888059086e-43
1.847546844e-43
1.11848465e-43
7.888269922e-44
6.631944178e-44
5.115197626e-44
3.423357632e-44
2.339772858e-44
1.800402317e-44
1.395427621e-44
1.043592231e-44
8.554607967e-45
7.654188244e-45
6.361087621e-45
5.082307969e-45
3.879293656e-45
3.241422586e-45
3.026476691e-45
2.803701927e-45
2.166990932e-45
1.330853364e-45
2.251918329e-45
1.233459274e-44
6.206984755e-44
1.599588734e-43
1.81469963e-43
1.240997459e-43
6.577714016e-44
3.031521402e-44
1.373795877e-44
7.675349846e-45
5.91103003e-45
4.812852905e-45
3.932559281e-45
4.07046263e-45
5.277870306e-45
6.834101763e-45
9.735266697e-45
1.328032264e-44
1.901584468e-44
2.777107858e-44
4.137560878e-44
6.837626433e-44
1.20264281e-43
2.023242665e-43
3.520915322e-43
5.420448603e-43
7.212610621e-43
1.022389019e-42
1.990586822e-42
3.897340966e-42
8.258659011e-42
1.68496758e-41
4.072057286e-41
9.449129794e-41
1.910812238e-40
3.33062216e-40
5.752157123e-40
1.165681008e-39
2.234044027e-39
4.476540102e-39
8.232634152e-39
1.289996549e-38
2.108137562e-38
3.289709514e-38
4.764719525e-38
6.225536787e-38
7.423132735e-38
8.257141236e-38
8.818515595e-38
9.439816395e-38
1.055697583e-37
1.1346378e-37
1.211846316e-37
1.268270586e-37
1.299778946e-37
1.254531486e-37
1.376361331e-37
1.448477453e-37
1.529512159e-37
1.585929399e-37
1.612465796e-37
1.426011038e-39
1.052544544e-39
1.107117659e-39
8.475569235e-40
7.14981914e-40
5.422653969e-40
4.047308019e-40
3.259271636e-40
1.96168572e-40
1.570327494e-40
1.348374449e-40
1.173569534e-40
8.196881731e-41
6.60132972e-41
4.828587743e-41
3.048451393e-41
5.079970419e-41
3.974177408e-41
2.301565534e-41
1.372531483e-41
1.002821007e-41
8.28051334e-42
6.39152326e-42
4.309845617e-42
3.101967799e-42
2.340004944e-42
1.752360952e-42
1.347982804e-42
1.070398738e-42
9.693565029e-43
7.987915778e-43
6.210109528e-43
4.574791707e-43
4.201517661e-43
3.753253208e-43
3.610921414e-43
2.598983996e-43
1.496733386e-43
2.123189162e-43
1.220836816e-42
6.244770005e-42
1.62789738e-41
1.943108393e-41
1.368559282e-41
7.473105286e-42
3.40533292e-42
1.576762636e-42
9.164446444e-43
7.216657653e-43
5.881632429e-43
4.733086997e-43
5.057777733e-43
6.468723257e-43
8.467693159e-43
1.192560946e-42
1.64001747e-42
2.350141345e-42
3.308146087e-42
5.011302184e-42
8.163178539e-42
1.443827837e-41
2.402047989e-41
4.306262785e-41
6.479710368e-41
8.421933486e-41
1.317149139e-40
2.314997671e-40
4.70495248e-40
9.778370873e-40
1.957486983e-39
4.62459548e-39
1.088262452e-38
2.162976042e-38
3.713552706e-38
6.466716887e-38
1.242887176e-37
2.550827771e-37
4.916276615e-37
8.954474071e-37
1.383648482e-36
2.235218959e-36
3.472038284e-36
5.194381239e-36
6.491773814e-36
7.883079557e-36
8.817751363e-36
8.952376314e-36
9.895756908e-36
1.071781768e-35
1.136666716e-35
1.206394134e-35
1.257840618e-35
1.254902215e-35
1.338522476e-35
1.410912602e-35
1.473649065e-35
1.525896142e-35
1.561341699e-35
1.57553364e-35
1.868819479e-37
1.435433079e-37
1.380267448e-37
1.017709534e-37
8.805858991e-38
6.737436203e-38
5.033935533e-38
4.184365814e-38
2.391328191e-38
1.940453693e-38
1.726443597e-38
1.467617359e-38
1.065097937e-38
8.393497249e-39
5.992783925e-39
3.956341535e-39
6.515820785e-39
4.848242353e-39
2.888166572e-39
1.633647392e-39
1.255151098e-39
1.033181785e-39
7.858409463e-40
5.284828005e-40
3.901583645e-40
3.007040781e-40
2.19710783e-40
1.680063663e-40
1.348134338e-40
1.213492656e-40
9.967928886e-41
7.635195537e-41
5.946578133e-41
5.270294662e-41
4.634921758e-41
4.481860152e-41
3.225736248e-41
1.67802878e-41
1.978262727e-41
1.163279458e-40
5.832062581e-40
1.646238807e-39
1.971380032e-39
1.397843656e-39
7.948186885e-40
3.693083533e-40
1.763981948e-40
1.083849317e-40
8.812552067e-41
7.282867224e-41
5.692575687e-41
6.110806611e-41
7.844805234e-41
1.016487049e-40
1.466703356e-40
1.980851246e-40
2.843601891e-40
4.279991303e-40
6.04736379e-40
9.686614668e-40
1.747423332e-39
2.806611736e-39
5.2156471e-39
7.862548973e-39
9.581676067e-39
1.524480222e-38
2.707422273e-38
5.537055444e-38
1.151327965e-37
2.256012008e-37
5.2629376e-37
1.242296794e-36
2.421682193e-36
4.128831908e-36
6.866993164e-36
1.354403299e-35
2.789365018e-35
5.219263639e-35
9.399187974e-35
1.554249145e-34
2.401312492e-34
3.855159529e-34
5.505964934e-34
7.195769325e-34
8.208420822e-34
9.108298555e-34
9.572559891e-34
1.002274363e-33
1.068338882e-33
1.115105101e-33
1.186833134e-33
1.249175466e-33
1.227105378e-33
1.301855567e-33
1.373876386e-33
1.448591692e-33
1.517942927e-33
1.547211207e-33
1.54355363e-33
2.30328179e-35
1.891267492e-35
1.70995257e-35
1.266853751e-35
1.098205306e-35
8.711580077e-36
6.287252724e-36
5.414269758e-36
2.986172424e-36
2.411847334e-36
2.12671962e-36
1.824875289e-36
1.370647843e-36
1.07055764e-36
7.410552831e-37
4.894059841e-37
8.204313684e-37
6.020292133e-37
3.540599679e-37
2.198780627e-37
1.566906445e-37
1.293647461e-37
9.652522293e-38
6.344068801e-38
4.913334402e-38
3.839278454e-38
2.78099588e-38
2.084310532e-38
1.661522835e-38
1.500095631e-38
1.258255866e-38
9.362602999e-39
7.191773491e-39
6.595045961e-39
5.907864234e-39
5.447316497e-39
3.985323638e-39
1.89424899e-39
1.744647635e-39
9.925196715e-39
5.47630046e-38
1.530260514e-37
1.977473171e-37
1.499021422e-37
8.269885479e-38
3.895564994e-38
1.932960614e-38
1.252758738e-38
1.100201443e-38
8.836735734e-39
6.629568684e-39
7.340911053e-39
9.719509567e-39
1.148984129e-38
1.778677782e-38
2.469752604e-38
3.315857571e-38
5.157203485e-38
7.110026022e-38
1.154283508e-37
2.10009812e-37
3.61374076e-37
6.463028396e-37
9.468906838e-37
1.142905197e-36
1.762598276e-36
3.341667985e-36
6.725144149e-36
1.322851376e-35
2.556428768e-35
6.186329616e-35
1.419617898e-34
2.655874595e-34
4.521592807e-34
7.9240826e-34
1.630695733e-33
3.048134973e-33
5.676680442e-33
1.03691113e-32
1.66806462e-32
2.729632669e-32
4.167564682e-32
5.787536029e-32
7.486082484e-32
8.070490077e-32
9.243986547e-32
9.783966607e-32
1.002043814e-31
1.062820208e-31
1.09527132e-31
1.16934278e-31
1.241337709e-31
1.257773449e-31
1.321591071e-31
1.374334436e-31
1.452142596e-31
1.506887832e-31
1.527483898e-31
1.502331749e-31
3.077242375e-33
2.345821221e-33
2.107397452e-33
1.779027556e-33
1.361893147e-33
1.091380483e-33
7.970962214e-34
6.778772295e-34
3.853313015e-34
3.062137954e-34
2.639557419e-34
2.294466106e-34
1.725411907e-34
1.358534961e-34
9.157777373e-35
6.06024016e-35
1.018534488e-34
7.849724492e-35
4.253411302e-35
2.787450927e-35
1.9525627e-35
1.621226389e-35
1.218858016e-35
8.126374957e-36
6.16641739e-36
4.722821537e-36
3.378942013e-36
2.683868809e-36
2.050359076e-36
1.858995019e-36
1.604440463e-36
1.183278029e-36
8.815976501e-37
8.354177727e-37
7.356480589e-37
6.705988436e-37
5.1362553e-37
2.227306444e-37
1.539674951e-37
8.000013752e-37
4.640635355e-36
1.41467286e-35
1.846431027e-35
1.41194502e-35
7.975095664e-36
3.878015078e-36
2.073249803e-36
1.443642465e-36
1.387739805e-36
1.062866284e-36
8.064067388e-37
8.877033811e-37
1.140411724e-36
1.516337889e-36
2.22443616e-36
3.009905932e-36
4.171691679e-36
6.297636539e-36
7.988906122e-36
1.390843311e-35
2.523599796e-35
4.292732855e-35
7.846607337e-35
1.171097721e-34
1.309571783e-34
2.051140214e-34
3.937442419e-34
7.930775435e-34
1.494291445e-33
2.817127046e-33
7.038538646e-33
1.695118037e-32
3.062754435e-32
5.159782764e-32
8.97334639e-32
1.808346879e-31
3.383597854e-31
6.224370147e-31
1.089544034e-30
1.738525578e-30
2.965855842e-30
4.489765546e-30
5.895972682e-30
7.765371526e-30
8.627795964e-30
9.445957635e-30
9.928302929e-30
9.658479084e-30
1.049648905e-29
1.090263861e-29
1.161822764e-29
1.239755784e-29
1.263109671e-29
1.309732552e-29
1.299001903e-29
1.393383962e-29
1.460030517e-29
1.488757702e-29
1.451510966e-29
3.74990557e-31
2.994446916e-31
2.703185911e-31
2.272429084e-31
1.723840433e-31
1.375323942e-31
1.050719262e-31
8.613976727e-32
4.877997612e-32
3.904259664e-32
3.377717971e-32
2.785721671e-32
2.086452678e-32
1.714571818e-32
1.130533574e-32
7.70410388e-33
1.273118086e-32
9.709339374e-33
5.165951247e-33
3.564041154e-33
2.462261482e-33
2.021399345e-33
1.48688709e-33
9.854653474e-34
7.612296413e-34
5.881758669e-34
4.358179751e-34
3.394523114e-34
2.52864847e-34
2.313561737e-34
2.010058724e-34
1.519172537e-34
1.08118963e-34
1.038622262e-34
9.409629951e-35
8.595041705e-35
6.391702377e-35
2.548104167e-35
1.380862392e-35
6.148997662e-35
3.676949913e-34
1.216978368e-33
1.598171817e-33
1.258003534e-33
7.304611449e-34
3.689418186e-34
2.198040871e-34
1.771802019e-34
1.734610609e-34
1.258134134e-34
9.711093969e-35
1.087854803e-34
1.473161669e-34
1.781328793e-34
2.669549264e-34
3.684738134e-34
5.313105616e-34
7.838497757e-34
1.047318883e-33
1.692682409e-33
2.976284667e-33
5.164663079e-33
9.390591978e-33
1.339238083e-32
1.505550362e-32
2.389842164e-32
4.595642256e-32
9.270718119e-32
1.832699357e-31
3.251824941e-31
8.010573909e-31
1.93075022e-30
3.864516305e-30
5.651211018e-30
9.788514636e-30
2.019959378e-29
3.732723106e-29
6.768268629e-29
1.113574155e-28
1.735892126e-28
3.157628805e-28
4.803935652e-28
6.665135453e-28
8.146142841e-28
9.263688529e-28
9.786864972e-28
1.014049405e-27
1.020636787e-27
1.044984367e-27
1.065725294e-27
1.139155797e-27
1.226445617e-27
1.262904777e-27
1.306355973e-27
1.306809939e-27
1.362316058e-27
1.411565696e-27
1.434512913e-27
1.426590007e-27
4.665876663e-29
3.731559894e-29
3.345547774e-29
2.82883703e-29
2.088128272e-29
1.747896309e-29
1.380637013e-29
1.093328053e-29
6.272071389e-30
4.983156404e-30
4.325065263e-30
3.401824691e-30
2.659223705e-30
2.158073862e-30
1.380784164e-30
9.795943256e-31
1.761735328e-30
1.316129158e-30
6.599567654e-31
4.513787716e-31
3.023520369e-31
2.576429663e-31
1.893829466e-31
1.23885582e-31
9.554367284e-32
7.624844448e-32
5.478476081e-32
4.263241071e-32
3.150311608e-32
2.816268591e-32
2.486534155e-32
1.898577891e-32
1.350902377e-32
1.284217027e-32
1.208267538e-32
1.077823322e-32
8.129609665e-33
3.093823377e-33
1.262585981e-33
4.590636219e-33
2.7253392e-32
9.471577646e-32
1.323579667e-31
1.062464918e-31
6.421507171e-32
3.369467256e-32
2.336701197e-32
2.134597189e-32
2.158892067e-32
1.51634925e-32
1.171298208e-32
1.322285874e-32
1.830479715e-32
2.20132956e-32
3.152926926e-32
4.59438515e-32
6.463515529e-32
9.573072158e-32
1.244776048e-31
2.103996662e-31
3.513554701e-31
6.086608244e-31
1.117300811e-30
1.735026887e-30
1.758604506e-30
2.794280877e-30
5.444896794e-30
1.072836799e-29
2.15943816e-29
3.480437799e-29
9.126986239e-29
2.1391149e-28
4.452796919e-28
6.401729375e-28
1.060599382e-27
2.260095734e-27
4.075786981e-27
7.55826599e-27
1.369028759e-26
1.854907903e-26
3.374272796e-26
5.132539172e-26
7.313387999e-26
8.381878849e-26
9.609020351e-26
9.85299876e-26
1.031179763e-25
1.024715764e-25
1.026080483e-25
1.032054848e-25
1.123031967e-25
1.20908305e-25
1.273219185e-25
1.294436301e-25
1.288411423e-25
1.341813661e-25
1.376008949e-25
1.364356081e-25
1.372825508e-25
6.293124525e-27
4.560678573e-27
4.103303877e-27
3.442843598e-27
2.846671948e-27
2.173039164e-27
1.76358535e-27
1.388453877e-27
8.01977395e-28
6.339864484e-28
5.438270235e-28
4.455009715e-28
3.332858204e-28
2.718633364e-28
1.734843638e-28
1.235280245e-28
2.232681879e-28
1.642389705e-28
9.212063862e-29
5.934347753e-29
3.741012787e-29
3.164931131e-29
2.374884311e-29
1.635234533e-29
1.224227763e-29
9.716107822e-30
6.767025996e-30
5.30312463e-30
4.048023543e-30
3.399697552e-30
3.22349689e-30
2.362887526e-30
1.78223503e-30
1.591126365e-30
1.479622204e-30
1.358176877e-30
1.023639233e-30
3.544714099e-31
1.226166993e-31
3.428906377e-31
1.890565561e-30
7.359045805e-30
1.02209032e-29
8.478074812e-30
5.472587789e-30
3.173376584e-30
2.5433155e-30
2.664047683e-30
2.69881952e-30
1.801485233e-30
1.431830575e-30
1.560264153e-30
2.295342854e-30
2.76234137e-30
3.772018059e-30
5.572147158e-30
7.962069038e-30
1.15756462e-29
1.435832191e-29
2.610817377e-29
4.309530608e-29
7.175172625e-29
1.316727346e-28
2.05376722e-28
2.003698108e-28
3.283440017e-28
6.37488033e-28
1.228138479e-27
2.54564545e-27
4.093395205e-27
1.022559831e-26
2.475266328e-26
5.119664233e-26
7.075674267e-26
1.189094301e-25
2.524619159e-25
4.401609592e-25
8.341677968e-25
1.5160525e-24
1.991830187e-24
3.659978148e-24
5.403263692e-24
7.911190174e-24
8.977300427e-24
1.004975493e-23
9.549453247e-24
1.039273833e-23
1.040861994e-23
1.007441465e-23
1.010482191e-23
1.117788736e-23
1.197449892e-23
1.26366321e-23
1.303273109e-23
1.194965539e-23
1.284239496e-23
1.317828786e-23
1.322433838e-23
1.302575493e-23
7.965380442e-25
6.481165579e-25
4.972647016e-25
4.253902626e-25
3.678483105e-25
2.707905091e-25
2.150754879e-25
1.778030039e-25
1.024815346e-25
7.917429885e-26
6.634550265e-26
5.655735306e-26
4.244328128e-26
3.438488007e-26
2.224580591e-26
1.539037773e-26
3.058792015e-26
1.993243254e-26
1.193912811e-26
7.421346569e-27
4.727194092e-27
3.810812855e-27
2.9881629e-27
2.078215222e-27
1.497835456e-27
1.215282573e-27
8.233096509e-28
6.49688281e-28
5.016069071e-28
4.125024982e-28
4.197923151e-28
2.943251455e-28
2.262614746e-28
2.019882032e-28
1.845144603e-28
1.711652682e-28
1.278070688e-28
3.996397772e-29
1.371597896e-29
3.189566443e-29
1.267974577e-28
5.126721285e-28
7.553883324e-28
6.27808252e-28
4.611989573e-28
2.778263711e-28
2.823610452e-28
3.283013543e-28
3.324776616e-28
2.243748868e-28
1.802731086e-28
2.026056255e-28
2.779907375e-28
3.412699455e-28
4.776872745e-28
6.725146361e-28
9.817615121e-28
1.524143357e-27
1.906855885e-27
3.212628533e-27
5.153843952e-27
8.403646125e-27
1.642661894e-26
2.44530844e-26
2.230593086e-26
3.909221082e-26
7.352439065e-26
1.398234272e-25
2.99032685e-25
4.815895104e-25
1.172338796e-24
2.880568278e-24
5.800963539e-24
7.972451995e-24
1.268753445e-23
2.79782815e-23
5.024239233e-23
8.805699168e-23
1.821646336e-22
2.108224377e-22
4.078319404e-22
5.991765394e-22
8.210192378e-22
9.645023342e-22
1.08907467e-21
9.823398233e-22
1.036968901e-21
1.083337799e-21
9.673606589e-22
1.030999739e-21
1.094862302e-21
1.170594007e-21
1.229733896e-21
1.282983759e-21
1.273321964e-21
1.295836963e-21
1.294282928e-21
1.272361385e-21
1.227107773e-21
1.004895065e-22
9.110363422e-23
6.44910872e-23
5.612461326e-23
4.653200607e-23
3.527047702e-23
2.443686252e-23
2.302877511e-23
1.305559131e-23
1.028114705e-23
8.98960835e-24
7.179845206e-24
5.252296666e-24
4.335639094e-24
2.749078375e-24
1.900700247e-24
3.979533505e-24
2.492134582e-24
1.528183149e-24
9.154326195e-25
6.06888717e-25
4.884362926e-25
3.759273256e-25
2.608627875e-25
1.945414239e-25
1.550074739e-25
1.000925653e-25
8.326377527e-26
6.068038163e-26
5.455104958e-26
5.21051919e-26
3.651144874e-26
2.83881996e-26
2.583572941e-26
2.310639907e-26
2.149030828e-26
1.614680571e-26
4.428830276e-27
1.672257534e-27
4.299478617e-27
8.512363772e-27
3.464913736e-26
5.49323952e-26
4.897687938e-26
3.992326318e-26
2.98305007e-26
3.229459969e-26
4.050384797e-26
4.467216018e-26
2.760273465e-26
2.20407707e-26