/*--------------------------------*- C++ -*----------------------------------*\
| =========                 |                                                 |
| \\      /  F ield         | OpenFOAM: The Open Source CFD Toolbox           |
|  \\    /   O peration     | Version:  v1706                                 |
|   \\  /    A nd           | Web:      www.OpenFOAM.com                      |
|    \\/     M anipulation  |                                                 |
\*---------------------------------------------------------------------------*/
FoamFile
{
    version     2.0;
    format      ascii;
    class       volScalarField;
    location    "0.00272";
    object      O2;
}
// * * * * * * * * * * * * * * * * * * * * * * * * * * * * * * * * * * * * * //

dimensions      [0 0 0 0 0 0 0];


internalField   nonuniform List<scalar> 
11682
(
0.233
0.233
0.233
0.233
0.233
0.233
0.233
0.233
0.233
0.233
0.233
0.233
0.233
0.233
0.233
0.233
0.233
0.233
0.233
0.233
0.233
0.233
0.233
0.233
0.233
0.233
0.233
0.233
0.233
0.233
0.233
0.233
0.233
0.233
0.233
0.233
0.233
0.233
0.233
0.233
0.233
0.233
0.233
0.233
0.233
0.233
0.233
0.233
0.233
0.233
0.233
0.233
0.233
0.233
0.233
0.233
0.233
0.233
0.233
0.233
0.233
0.233
0.233
0.233
0.233
0.233
0.233
0.233
0.233
0.233
0.233
0.233
0.233
0.233
0.233
0.233
0.233
0.233
0.233
0.233
0.233
0.233
0.233
0.233
0.233
0.233
0.233
0.233
0.233
0.233
0.233
0.233
0.233
0.233
0.233
0.233
0.233
0.233
0.233
0.233
0.233
0.233
0.233
0.233
0.233
0.233
0.233
0.233
0.233
0.233
0.233
0.233
0.233
0.233
0.233
0.233
0.233
0.233
0.233
0.233
0.233
0.233
0.233
0.233
0.233
0.233
0.233
0.233
0.233
0.233
0.233
0.233
0.233
0.233
0.233
0.233
0.233
0.233
0.233
0.233
0.233
0.233
0.233
0.233
0.233
0.233
0.233
0.233
0.233
0.233
0.233
0.233
0.233
0.233
0.233
0.233
0.233
0.233
0.233
0.233
0.233
0.233
0.233
0.233
0.233
0.233
0.233
0.233
0.233
0.233
0.233
0.233
0.233
0.233
0.233
0.233
0.233
0.233
0.233
0.233
0.233
0.233
0.233
0.233
0.233
0.233
0.233
0.233
0.233
0.233
0.233
0.233
0.233
0.233
0.233
0.233
0.233
0.233
0.233
0.233
0.233
0.233
0.233
0.233
0.233
0.233
0.233
0.233
0.233
0.233
0.233
0.233
0.233
0.233
0.233
0.233
0.233
0.233
0.233
0.233
0.233
0.233
0.233
0.233
0.233
0.233
0.233
0.233
0.233
0.233
0.233
0.233
0.233
0.233
0.233
0.233
0.233
0.233
0.233
0.233
0.233
0.233
0.233
0.233
0.233
0.233
0.233
0.233
0.233
0.233
0.233
0.233
0.233
0.233
0.233
0.233
0.233
0.233
0.233
0.233
0.233
0.233
0.233
0.233
0.233
0.233
0.233
0.233
0.233
0.233
0.233
0.233
0.233
0.233
0.233
0.233
0.233
0.233
0.233
0.233
0.233
0.233
0.233
0.233
0.233
0.233
0.233
0.233
0.233
0.233
0.233
0.233
0.233
0.233
0.233
0.233
0.233
0.233
0.233
0.233
0.233
0.233
0.233
0.233
0.233
0.233
0.233
0.233
0.233
0.233
0.233
0.233
0.233
0.233
0.233
0.233
0.233
0.233
0.233
0.233
0.233
0.233
0.233
0.233
0.233
0.233
0.233
0.233
0.233
0.233
0.233
0.233
0.233
0.233
0.233
0.233
0.233
0.233
0.233
0.233
0.233
0.233
0.233
0.233
0.233
0.233
0.233
0.233
0.233
0.233
0.233
0.233
0.233
0.233
0.233
0.233
0.233
0.233
0.233
0.233
0.233
0.233
0.233
0.233
0.233
0.233
0.233
0.233
0.233
0.233
0.233
0.233
0.233
0.233
0.233
0.233
0.233
0.233
0.233
0.233
0.233
0.233
0.233
0.233
0.233
0.233
0.233
0.233
0.233
0.233
0.233
0.233
0.233
0.233
0.233
0.233
0.233
0.233
0.233
0.233
0.233
0.233
0.233
0.233
0.233
0.233
0.233
0.233
0.233
0.233
0.233
0.233
0.233
0.233
0.233
0.233
0.233
0.233
0.233
0.233
0.233
0.233
0.233
0.233
0.233
0.233
0.233
0.233
0.233
0.233
0.233
0.233
0.233
0.233
0.233
0.233
0.233
0.233
0.233
0.233
0.233
0.233
0.233
0.233
0.233
0.233
0.233
0.233
0.233
0.233
0.233
0.233
0.233
0.233
0.233
0.233
0.233
0.233
0.233
0.233
0.233
0.233
0.233
0.233
0.233
0.233
0.233
0.233
0.233
0.233
0.233
0.233
0.233
0.233
0.233
0.233
0.233
0.233
0.233
0.233
0.233
0.233
0.233
0.233
0.233
0.233
0.233
0.233
0.233
0.233
0.233
0.233
0.233
0.233
0.233
0.233
0.233
0.233
0.233
0.233
0.233
0.233
0.233
0.233
0.233
0.233
0.233
0.233
0.233
0.233
0.233
0.233
0.233
0.233
0.233
0.233
0.233
0.233
0.233
0.233
0.233
0.233
0.233
0.233
0.233
0.233
0.233
0.233
0.233
0.233
0.233
0.233
0.233
0.233
0.233
0.233
0.233
0.233
0.233
0.233
0.233
0.233
0.233
0.233
0.233
0.233
0.233
0.233
0.233
0.233
0.233
0.233
0.233
0.233
0.233
0.233
0.233
0.233
0.233
0.233
0.233
0.233
0.233
0.233
0.233
0.233
0.233
0.233
0.233
0.233
0.233
0.233
0.233
0.233
0.233
0.233
0.233
0.233
0.233
0.233
0.233
0.233
0.233
0.233
0.233
0.233
0.233
0.233
0.233
0.233
0.233
0.233
0.233
0.233
0.233
0.233
0.233
0.233
0.233
0.233
0.233
0.233
0.233
0.233
0.233
0.233
0.233
0.233
0.233
0.233
0.233
0.233
0.233
0.233
0.233
0.233
0.233
0.233
0.233
0.233
0.233
0.233
0.233
0.233
0.233
0.233
0.233
0.233
0.233
0.233
0.233
0.233
0.233
0.233
0.233
0.233
0.233
0.233
0.233
0.233
0.233
0.233
0.233
0.233
0.233
0.233
0.233
0.233
0.233
0.233
0.233
0.233
0.233
0.233
0.233
0.233
0.233
0.233
0.233
0.233
0.233
0.233
0.233
0.233
0.233
0.233
0.233
0.233
0.233
0.233
0.233
0.233
0.233
0.233
0.233
0.233
0.233
0.233
0.233
0.233
0.233
0.233
0.233
0.233
0.233
0.233
0.233
0.233
0.233
0.233
0.233
0.233
0.233
0.233
0.233
0.233
0.233
0.233
0.233
0.233
0.233
0.233
0.233
0.233
0.233
0.233
0.233
0.233
0.233
0.233
0.233
0.233
0.233
0.233
0.233
0.233
0.233
0.233
0.233
0.233
0.233
0.233
0.233
0.233
0.233
0.233
0.233
0.233
0.233
0.233
0.233
0.233
0.233
0.233
0.233
0.233
0.233
0.233
0.233
0.233
0.233
0.233
0.233
0.233
0.233
0.233
0.233
0.233
0.233
0.233
0.233
0.233
0.233
0.233
0.233
0.233
0.233
0.233
0.233
0.233
0.233
0.233
0.233
0.233
0.233
0.233
0.233
0.233
0.233
0.233
0.233
0.233
0.233
0.233
0.233
0.233
0.233
0.233
0.233
0.233
0.233
0.233
0.233
0.233
0.233
0.233
0.233
0.233
0.233
0.233
0.233
0.233
0.233
0.233
0.233
0.233
0.233
0.233
0.233
0.233
0.233
0.233
0.233
0.233
0.233
0.233
0.233
0.233
0.233
0.233
0.233
0.233
0.233
0.233
0.233
0.233
0.233
0.233
0.233
0.233
0.233
0.233
0.233
0.233
0.233
0.233
0.233
0.233
0.233
0.233
0.233
0.233
0.233
0.233
0.233
0.233
0.233
0.233
0.233
0.233
0.233
0.233
0.233
0.233
0.233
0.233
0.233
0.233
0.233
0.233
0.233
0.233
0.233
0.233
0.233
0.233
0.233
0.233
0.233
0.233
0.233
0.233
0.233
0.233
0.233
0.233
0.233
0.233
0.233
0.233
0.233
0.233
0.233
0.233
0.233
0.233
0.233
0.233
0.233
0.233
0.233
0.233
0.233
0.233
0.233
0.233
0.233
0.233
0.233
0.233
0.233
0.233
0.233
0.233
0.233
0.233
0.233
0.233
0.233
0.233
0.233
0.233
0.233
0.233
0.233
0.233
0.233
0.233
0.233
0.233
0.233
0.233
0.233
0.233
0.233
0.233
0.233
0.233
0.233
0.233
0.233
0.233
0.233
0.233
0.233
0.233
0.233
0.233
0.233
0.233
0.233
0.233
0.233
0.233
0.233
0.233
0.233
0.233
0.233
0.233
0.233
0.233
0.233
0.233
0.233
0.233
0.233
0.233
0.233
0.233
0.233
0.233
0.233
0.233
0.233
0.233
0.233
0.233
0.233
0.233
0.233
0.233
0.233
0.233
0.233
0.233
0.233
0.233
0.233
0.233
0.233
0.233
0.233
0.233
0.233
0.233
0.233
0.233
0.233
0.233
0.233
0.233
0.233
0.233
0.233
0.233
0.233
0.233
0.233
0.233
0.233
0.233
0.233
0.233
0.233
0.233
0.233
0.233
0.233
0.233
0.233
0.233
0.233
0.233
0.233
0.233
0.233
0.233
0.233
0.233
0.233
0.233
0.233
0.233
0.233
0.233
0.233
0.233
0.233
0.233
0.233
0.233
0.233
0.233
0.233
0.233
0.233
0.233
0.233
0.233
0.233
0.233
0.233
0.233
0.233
0.233
0.233
0.233
0.233
0.233
0.233
0.233
0.233
0.233
0.233
0.233
0.233
0.233
0.233
0.233
0.233
0.233
0.233
0.233
0.233
0.233
0.233
0.233
0.233
0.233
0.233
0.233
0.233
0.233
0.233
0.233
0.233
0.233
0.233
0.233
0.233
0.233
0.233
0.233
0.233
0.233
0.233
0.233
0.233
0.233
0.233
0.233
0.233
0.233
0.233
0.233
0.233
0.233
0.233
0.233
0.233
0.233
0.233
0.233
0.233
0.233
0.233
0.233
0.233
0.233
0.233
0.233
0.233
0.233
0.233
0.233
0.233
0.233
0.233
0.233
0.233
0.233
0.233
0.233
0.233
0.233
0.233
0.233
0.233
0.233
0.233
0.233
0.233
0.233
0.233
0.233
0.233
0.233
0.233
0.233
0.233
0.233
0.233
0.233
0.233
0.233
0.233
0.233
0.233
0.233
0.233
0.233
0.233
0.233
0.233
0.233
0.233
0.233
0.233
0.233
0.233
0.233
0.233
0.233
0.233
0.233
0.233
0.233
0.233
0.233
0.233
0.233
0.233
0.233
0.233
0.233
0.233
0.233
0.233
0.233
0.233
0.233
0.233
0.233
0.233
0.233
0.233
0.233
0.233
0.233
0.233
0.233
0.233
0.233
0.233
0.233
0.233
0.233
0.233
0.233
0.233
0.233
0.233
0.233
0.233
0.233
0.233
0.233
0.233
0.233
0.233
0.233
0.233
0.233
0.233
0.233
0.233
0.233
0.233
0.233
0.233
0.233
0.233
0.233
0.233
0.233
0.233
0.233
0.233
0.233
0.233
0.233
0.233
0.233
0.233
0.233
0.233
0.233
0.233
0.233
0.233
0.233
0.233
0.233
0.233
0.233
0.233
0.233
0.233
0.233
0.233
0.233
0.233
0.233
0.233
0.233
0.233
0.233
0.233
0.233
0.233
0.233
0.233
0.233
0.233
0.233
0.233
0.233
0.233
0.233
0.233
0.233
0.233
0.233
0.233
0.233
0.233
0.233
0.233
0.233
0.233
0.233
0.233
0.233
0.233
0.233
0.233
0.233
0.233
0.233
0.233
0.233
0.233
0.233
0.233
0.233
0.233
0.233
0.233
0.233
0.233
0.233
0.233
0.233
0.233
0.233
0.233
0.233
0.233
0.233
0.233
0.233
0.233
0.233
0.233
0.233
0.233
0.233
0.233
0.233
0.233
0.233
0.233
0.233
0.233
0.233
0.233
0.233
0.233
0.233
0.233
0.233
0.233
0.233
0.233
0.233
0.233
0.233
0.233
0.233
0.233
0.233
0.233
0.233
0.233
0.233
0.233
0.233
0.233
0.233
0.233
0.233
0.233
0.233
0.233
0.233
0.233
0.233
0.233
0.233
0.233
0.233
0.233
0.233
0.233
0.233
0.233
0.233
0.233
0.233
0.233
0.233
0.233
0.233
0.233
0.233
0.233
0.233
0.233
0.233
0.233
0.233
0.233
0.233
0.233
0.233
0.233
0.233
0.233
0.233
0.233
0.233
0.233
0.233
0.233
0.233
0.233
0.233
0.233
0.233
0.233
0.233
0.233
0.233
0.233
0.233
0.233
0.233
0.233
0.233
0.233
0.233
0.233
0.233
0.233
0.233
0.233
0.233
0.233
0.233
0.233
0.233
0.233
0.233
0.233
0.233
0.233
0.233
0.233
0.233
0.233
0.233
0.233
0.233
0.233
0.233
0.233
0.233
0.233
0.233
0.233
0.233
0.233
0.233
0.233
0.233
0.233
0.233
0.233
0.233
0.233
0.233
0.233
0.233
0.233
0.233
0.233
0.233
0.233
0.233
0.233
0.233
0.233
0.233
0.233
0.233
0.233
0.233
0.233
0.233
0.233
0.233
0.233
0.233
0.233
0.233
0.233
0.233
0.233
0.233
0.233
0.233
0.233
0.233
0.233
0.233
0.233
0.233
0.233
0.233
0.233
0.233
0.233
0.233
0.233
0.233
0.233
0.233
0.233
0.233
0.233
0.233
0.233
0.233
0.233
0.233
0.233
0.233
0.233
0.233
0.233
0.233
0.233
0.233
0.233
0.233
0.233
0.233
0.233
0.233
0.233
0.233
0.233
0.233
0.233
0.233
0.233
0.233
0.233
0.233
0.233
0.233
0.233
0.233
0.233
0.233
0.233
0.233
0.233
0.233
0.233
0.233
0.233
0.233
0.233
0.233
0.233
0.233
0.233
0.233
0.233
0.233
0.233
0.233
0.233
0.233
0.233
0.233
0.233
0.233
0.233
0.233
0.233
0.233
0.233
0.233
0.233
0.233
0.233
0.233
0.233
0.233
0.233
0.233
0.233
0.233
0.233
0.233
0.233
0.233
0.233
0.233
0.233
0.233
0.233
0.233
0.233
0.233
0.233
0.233
0.233
0.233
0.233
0.233
0.233
0.233
0.233
0.233
0.233
0.233
0.233
0.233
0.233
0.233
0.233
0.233
0.233
0.233
0.233
0.233
0.233
0.233
0.233
0.233
0.233
0.233
0.233
0.233
0.233
0.233
0.233
0.233
0.233
0.233
0.233
0.233
0.233
0.233
0.233
0.233
0.233
0.233
0.233
0.233
0.233
0.233
0.233
0.233
0.233
0.233
0.233
0.233
0.233
0.233
0.233
0.233
0.233
0.233
0.233
0.233
0.233
0.233
0.233
0.233
0.233
0.233
0.233
0.233
0.233
0.233
0.233
0.233
0.233
0.233
0.233
0.233
0.233
0.233
0.233
0.233
0.233
0.233
0.233
0.233
0.233
0.233
0.233
0.233
0.233
0.233
0.233
0.233
0.233
0.233
0.233
0.233
0.233
0.233
0.233
0.233
0.233
0.233
0.233
0.233
0.233
0.233
0.233
0.233
0.233
0.233
0.233
0.233
0.233
0.233
0.233
0.233
0.233
0.233
0.233
0.233
0.233
0.233
0.233
0.233
0.233
0.233
0.233
0.233
0.233
0.233
0.233
0.233
0.233
0.233
0.233
0.233
0.233
0.233
0.233
0.233
0.233
0.233
0.233
0.233
0.233
0.233
0.233
0.233
0.233
0.233
0.233
0.233
0.233
0.233
0.233
0.233
0.233
0.233
0.233
0.233
0.233
0.233
0.233
0.233
0.233
0.233
0.233
0.233
0.233
0.233
0.233
0.233
0.233
0.233
0.233
0.233
0.233
0.233
0.233
0.233
0.233
0.233
0.233
0.233
0.233
0.233
0.233
0.233
0.233
0.233
0.233
0.233
0.233
0.233
0.233
0.233
0.233
0.233
0.233
0.233
0.233
0.233
0.233
0.233
0.233
0.233
0.233
0.233
0.233
0.233
0.233
0.233
0.233
0.233
0.233
0.233
0.233
0.233
0.233
0.233
0.233
0.233
0.233
0.233
0.233
0.233
0.233
0.233
0.233
0.233
0.233
0.233
0.233
0.233
0.233
0.233
0.233
0.233
0.233
0.233
0.233
0.233
0.233
0.233
0.233
0.233
0.233
0.233
0.233
0.233
0.233
0.233
0.233
0.233
0.233
0.233
0.233
0.233
0.233
0.233
0.233
0.233
0.233
0.233
0.233
0.233
0.233
0.233
0.233
0.233
0.233
0.233
0.233
0.233
0.233
0.233
0.233
0.233
0.233
0.233
0.233
0.233
0.233
0.233
0.233
0.233
0.233
0.233
0.233
0.233
0.233
0.233
0.233
0.233
0.233
0.233
0.233
0.233
0.233
0.233
0.233
0.233
0.233
0.233
0.233
0.233
0.233
0.233
0.233
0.233
0.233
0.233
0.233
0.233
0.233
0.233
0.233
0.233
0.233
0.233
0.233
0.233
0.233
0.233
0.233
0.233
0.233
0.233
0.233
0.233
0.233
0.233
0.233
0.233
0.233
0.233
0.233
0.233
0.233
0.233
0.233
0.233
0.233
0.233
0.233
0.233
0.233
0.233
0.233
0.233
0.233
0.233
0.233
0.233
0.233
0.233
0.233
0.233
0.233
0.233
0.233
0.233
0.233
0.233
0.233
0.233
0.233
0.233
0.233
0.233
0.233
0.233
0.233
0.233
0.233
0.233
0.233
0.233
0.233
0.233
0.233
0.233
0.233
0.233
0.2329999999
0.2329999999
0.2329999999
0.2329999999
0.2329999999
0.2329999999
0.2329999999
0.2329999999
0.2329999999
0.2329999999
0.2329999999
0.2329999999
0.2329999999
0.2329999999
0.2329999999
0.2329999999
0.233
0.233
0.233
0.233
0.233
0.233
0.233
0.233
0.233
0.233
0.233
0.233
0.233
0.233
0.233
0.233
0.233
0.233
0.233
0.233
0.233
0.233
0.233
0.233
0.233
0.233
0.233
0.233
0.233
0.233
0.233
0.233
0.233
0.233
0.233
0.233
0.233
0.233
0.233
0.233
0.233
0.233
0.233
0.233
0.233
0.233
0.233
0.233
0.233
0.233
0.233
0.233
0.233
0.233
0.233
0.233
0.233
0.233
0.233
0.233
0.233
0.233
0.233
0.233
0.233
0.233
0.233
0.233
0.233
0.233
0.233
0.233
0.233
0.2329999999
0.2329999999
0.2329999998
0.2329999997
0.2329999996
0.2329999993
0.2329999992
0.2329999989
0.2329999986
0.2329999983
0.2329999981
0.2329999981
0.2329999981
0.2329999981
0.2329999981
0.2329999981
0.2329999981
0.2329999981
0.2329999981
0.2329999981
0.2329999981
0.2329999981
0.2329999981
0.2329999981
0.2329999982
0.2329999982
0.2329999995
0.2329999996
0.2329999996
0.2329999997
0.2329999997
0.2329999998
0.2329999998
0.2329999998
0.2329999999
0.2329999999
0.2329999999
0.2329999999
0.2329999999
0.233
0.233
0.233
0.233
0.233
0.233
0.233
0.233
0.233
0.233
0.233
0.233
0.233
0.233
0.233
0.233
0.233
0.233
0.233
0.233
0.233
0.233
0.233
0.233
0.233
0.233
0.233
0.233
0.233
0.233
0.233
0.233
0.233
0.233
0.233
0.233
0.233
0.233
0.233
0.233
0.233
0.233
0.233
0.233
0.233
0.233
0.233
0.233
0.233
0.233
0.233
0.233
0.2329999999
0.2329999999
0.2329999999
0.2329999998
0.2329999997
0.2329999994
0.232999999
0.2329999987
0.2329999978
0.2329999964
0.2329999941
0.2329999907
0.2329999854
0.2329999749
0.2329999709
0.2329999586
0.2329999493
0.232999938
0.2329999324
0.2329999309
0.2329999315
0.2329999339
0.2329999352
0.2329999349
0.2329999341
0.2329999335
0.2329999333
0.2329999334
0.232999934
0.232999935
0.2329999364
0.232999938
0.2329999398
0.2329999419
0.2329999803
0.2329999819
0.232999985
0.2329999875
0.2329999891
0.2329999905
0.2329999921
0.2329999938
0.2329999951
0.2329999959
0.2329999965
0.2329999973
0.2329999978
0.2329999982
0.2329999985
0.2329999988
0.232999999
0.2329999992
0.2329999994
0.2329999995
0.2329999996
0.2329999997
0.2329999997
0.2329999998
0.2329999998
0.2329999999
0.2329999999
0.2329999999
0.2329999999
0.2329999999
0.2329999999
0.233
0.233
0.233
0.233
0.233
0.233
0.233
0.233
0.233
0.233
0.233
0.233
0.233
0.233
0.233
0.233
0.233
0.233
0.233
0.233
0.233
0.233
0.2329999999
0.2329999999
0.2329999999
0.2329999999
0.2329999998
0.2329999998
0.2329999997
0.2329999996
0.2329999995
0.2329999992
0.2329999989
0.2329999987
0.232999998
0.2329999969
0.2329999949
0.232999991
0.2329999879
0.2329999769
0.2329999608
0.2329999485
0.23299991
0.2329998543
0.2329997673
0.2329996327
0.2329994222
0.2329990691
0.2329989371
0.2329985441
0.2329982439
0.2329978773
0.2329977387
0.2329976998
0.2329977446
0.232997853
0.2329979059
0.2329978961
0.2329978735
0.232997859
0.2329978594
0.2329978751
0.2329979063
0.2329979514
0.2329980072
0.2329980702
0.2329981382
0.2329982117
0.2329991791
0.2329992339
0.2329993507
0.2329994588
0.2329995252
0.2329995895
0.2329996561
0.2329997291
0.2329997861
0.232999822
0.2329998491
0.2329998826
0.2329999043
0.2329999207
0.2329999362
0.2329999504
0.2329999592
0.2329999662
0.2329999727
0.2329999799
0.2329999844
0.2329999868
0.2329999885
0.2329999913
0.2329999928
0.2329999939
0.2329999953
0.2329999962
0.2329999968
0.2329999972
0.2329999975
0.232999998
0.2329999983
0.2329999984
0.2329999984
0.2329999985
0.2329999987
0.2329999989
0.232999999
0.2329999989
0.2329999989
0.2329999989
0.232999999
0.2329999991
0.2329999991
0.2329999991
0.232999999
0.232999999
0.2329999989
0.2329999988
0.2329999987
0.2329999985
0.232999998
0.2329999979
0.2329999972
0.2329999963
0.2329999951
0.2329999934
0.2329999916
0.2329999891
0.2329999841
0.2329999796
0.2329999684
0.2329999539
0.2329999455
0.2329999158
0.2329998685
0.2329997884
0.2329996318
0.2329994993
0.2329990945
0.2329985311
0.2329980599
0.2329966202
0.2329945761
0.2329913979
0.2329865316
0.2329788533
0.2329669974
0.2329625647
0.2329491322
0.232939546
0.2329287624
0.2329244309
0.2329239824
0.2329263455
0.232930888
0.2329327773
0.2329323211
0.2329316432
0.2329313837
0.2329317219
0.232932589
0.2329339893
0.2329358364
0.2329379988
0.2329403564
0.2329428193
0.2329453934
0.2329671172
0.2329692971
0.2329739294
0.2329782341
0.2329808851
0.232983476
0.2329861464
0.2329890803
0.2329913787
0.2329928272
0.2329939097
0.2329952658
0.2329961363
0.2329968016
0.2329974257
0.2329980024
0.232998353
0.2329986351
0.2329989043
0.23299916
0.2329993244
0.2329994246
0.2329995025
0.232999621
0.2329996858
0.2329997361
0.2329997957
0.2329998362
0.2329998625
0.2329998772
0.2329998929
0.2329999143
0.2329999261
0.232999929
0.2329999313
0.2329999365
0.2329999454
0.2329999531
0.2329999544
0.2329999516
0.2329999523
0.2329999519
0.2329999589
0.2329999616
0.232999961
0.2329999612
0.2329999585
0.2329999556
0.2329999543
0.2329999491
0.2329999446
0.2329999354
0.2329999157
0.2329999084
0.2329998789
0.2329998434
0.2329997913
0.2329997186
0.2329996436
0.2329995358
0.2329993281
0.2329991688
0.2329987571
0.2329982453
0.2329978677
0.2329967251
0.2329948924
0.2329917614
0.2329859444
0.2329807769
0.2329652964
0.2329453945
0.2329274515
0.2328759978
0.2328055288
0.2327033244
0.2325587177
0.2323520544
0.2321099798
0.2320067396
0.2317880202
0.2316075552
0.2314479568
0.2313905833
0.2313978547
0.2314444619
0.2315183222
0.2315391809
0.2315220659
0.2315082391
0.2315048848
0.231513108
0.2315309173
0.2315578711
0.2315923682
0.2316323407
0.2316758629
0.2317215459
0.2317681681
0.2320665593
0.2321128151
0.2322149471
0.2323131712
0.2323802598
0.2324495512
0.2325246466
0.2326122068
0.2326880463
0.2327354152
0.2327704261
0.232818207
0.2328497813
0.2328746518
0.2328984078
0.2329207695
0.232934166
0.2329453433
0.2329560646
0.2329662935
0.2329728212
0.2329768016
0.2329800223
0.2329846327
0.2329873121
0.2329893326
0.2329917907
0.2329934093
0.2329944582
0.2329950344
0.2329956741
0.2329965629
0.2329970273
0.2329971293
0.2329972242
0.2329974381
0.2329978089
0.2329981256
0.2329981629
0.2329979695
0.232998052
0.2329979731
0.2329983411
0.2329984646
0.232998437
0.2329984468
0.2329983376
0.2329982279
0.2329981859
0.2329979677
0.2329977806
0.23299741
0.2329966456
0.2329963553
0.2329951705
0.2329937705
0.2329917043
0.232988875
0.2329859751
0.2329816819
0.2329737119
0.2329674717
0.2329514374
0.232933935
0.2329176163
0.2328754113
0.2328094905
0.2327024874
0.2325307688
0.2323906927
0.2320488427
0.2316446124
0.2313202307
0.2306689032
0.2298809526
0.2290681269
0.2280962605
0.2269541497
0.2260420274
0.2256696305
0.2248473582
0.2241864243
0.223650137
0.2234714809
0.2234976822
0.2236540287
0.2238190762
0.2238066842
0.2236621574
0.2235794778
0.2235469803
0.2235610699
0.2236118077
0.2236966792
0.2238118185
0.2239504184
0.2241048099
0.2242700501
0.2244387966
0.2261235297
0.2263048842
0.2267137339
0.2270561385
0.2273660162
0.2277090848
0.2281105455
0.2286260016
0.2292801991
0.2296082225
0.2297582701
0.2301286729
0.2304233051
0.2306842433
0.2309649192
0.2312615008
0.2314603263
0.2316416067
0.2318421586
0.2320444782
0.2321862164
0.2322786612
0.2323566398
0.2324787231
0.2325571266
0.2326185514
0.2327013597
0.2327535721
0.2327893071
0.2328091907
0.232832494
0.2328663296
0.2328833943
0.2328866561
0.2328903053
0.2328987183
0.2329135305
0.2329259554
0.2329269937
0.2329186748
0.2329218168
0.2329170594
0.2329338676
0.2329390665
0.2329378063
0.2329385373
0.2329337371
0.2329299636
0.2329286526
0.232919979
0.232912388
0.2328981774
0.2328703592
0.2328588749
0.2328162754
0.2327663526
0.2326958585
0.2326149684
0.2325328856
0.2323960083
0.232213156
0.2320600676
0.2317493733
0.2314402853
0.2311653253
0.2306223692
0.2299308695
0.2290486167
0.2279969852
0.227359374
0.2256940601
0.2241137726
0.2229672902
0.2210733216
0.2190611149
0.2173738408
0.21537908
0.2131830423
0.2120705442
0.2115650263
0.2100789925
0.2088468832
0.2078418961
0.2075226891
0.2075252834
0.2077794319
0.2077674864
0.207534086
0.2071018485
0.2068770079
0.206743083
0.2066983433
0.2067236457
0.2068136628
0.2069641276
0.2071664982
0.207396207
0.2076508969
0.2079182053
0.2131313663
0.2134429655
0.2141304856
0.2144251927
0.2149591436
0.2155806439
0.2163270576
0.2173275201
0.2194015029
0.2200816553
0.2197938787
0.2204063109
0.2210350722
0.2216554326
0.2223867122
0.2232181928
0.2238175226
0.2244034727
0.2252009703
0.2259602444
0.2265320603
0.2269227155
0.2272141196
0.2278003603
0.2282484814
0.2286224554
0.2293308444
0.2296088462
0.2298597214
0.2300205432
0.230232809
0.2305812596
0.2307647979
0.2307947526
0.2308382734
0.2309462366
0.2311457875
0.2313255504
0.2313316191
0.2312965885
0.2312827702
0.231322338
0.2314743086
0.2315266541
0.2314972475
0.231508503
0.2314337069
0.2313718397
0.231354367
0.2312194724
0.2311052058
0.2309137954
0.2305960776
0.2304463577
0.2300318914
0.2295839117
0.2290459909
0.2286664297
0.2281932679
0.2272670806
0.2264251595
0.2257504037
0.2244674852
0.2234200371
0.2225062752
0.2210189223
0.219321039
0.2174420401
0.2155492174
0.2148397177
0.2113005861
0.208321206
0.2062416774
0.2031499684
0.1999786823
0.1976745416
0.1946376964
0.1911730791
0.187619237
0.1860294305
0.1836039736
0.1816399218
0.1799753531
0.1793513256
0.1792349104
0.1795544475
0.1803582305
0.1804564936
0.180095549
0.1798677038
0.1797958503
0.1798597212
0.1800038011
0.1802191229
0.1804927937
0.180876703
0.181236074
0.1816369451
0.1820444978
0.1938665418
0.1943047546
0.1952540669
0.1950623071
0.1957932524
0.1966726392
0.1977337733
0.1991367802
0.1999568907
0.2009238226
0.2021008025
0.2034210062
0.2043374493
0.2052451679
0.206369678
0.2076881259
0.2086219192
0.2095969234
0.2112384801
0.2125797543
0.2135685933
0.2142404292
0.2144649364
0.2155137279
0.2163664091
0.2170896563
0.2193196041
0.2193485113
0.2196936685
0.2199941991
0.2204417484
0.2212775776
0.2216975006
0.2217494612
0.2218562568
0.22215132
0.2227205902
0.2232401679
0.2232240732
0.2230576897
0.2230876619
0.2232705117
0.223691246
0.2238260606
0.223711436
0.2237392246
0.2234914851
0.2232969319
0.223240239
0.2228003379
0.2224370514
0.2219010233
0.221081554
0.2206952331
0.2197527123
0.218713778
0.21764049
0.2175689069
0.2166520305
0.2141533234
0.2126825883
0.2114573882
0.2088922292
0.2071300836
0.2055407442
0.2032449516
0.2006934087
0.1980889102
0.1948324489
0.1916996356
0.1887953785
0.1845182988
0.1812900856
0.1767900887
0.1726319528
0.1695876291
0.165974688
0.161990414
0.1580773417
0.1559466124
0.1531665308
0.1507599439
0.1488946244
0.1478675686
0.147424267
0.1474632159
0.1479727707
0.1477359752
0.1471955633
0.146838906
0.1465652685
0.146506372
0.1465428051
0.1466497603
0.1468762357
0.1472098214
0.1475231823
0.1478675881
0.1482611254
0.1677731153
0.1682214866
0.1692231487
0.1707954024
0.171549798
0.1724523152
0.1735520176
0.1750326515
0.1759347086
0.1769771143
0.1782642711
0.1797666589
0.1808049323
0.1819228043
0.1834284379
0.1852063875
0.1864694088
0.187783254
0.1904996754
0.1926293302
0.1940187277
0.1949539178
0.1946463658
0.1961358906
0.1973556504
0.198366642
0.1994670547
0.2010285228
0.2019827355
0.20246987
0.2031396799
0.2043228499
0.2048901013
0.204923254
0.2050632562
0.2055143341
0.2064425065
0.2072582292
0.2071610114
0.2068760573
0.2069135055
0.2072234045
0.2079152949
0.2080803188
0.2078523719
0.2078899859
0.2074482292
0.2071219029
0.2069985705
0.206268262
0.2056602604
0.2047948185
0.2035750977
0.2030000794
0.2016885142
0.2000675624
0.1983419415
0.1962913406
0.1945540846
0.1932365487
0.19138803
0.1896982486
0.1855250974
0.1826934501
0.1805258302
0.177238375
0.1743246382
0.1710958216
0.1674102326
0.1641958522
0.159955171
0.1562685036
0.1531281928
0.1488082016
0.1450750879
0.1419381812
0.1385463756
0.1348250272
0.1312817307
0.1288869676
0.1258222101
0.1233722497
0.1211589872
0.1197802565
0.1189630524
0.1185457958
0.1185584564
0.1178632059
0.1171560656
0.1164817726
0.1158977788
0.1156441669
0.115499832
0.1154077106
0.1154226151
0.1155180967
0.1156750629
0.1158513987
0.1160800332
0.148697624
0.1490133815
0.1497181462
0.1507606741
0.1512832439
0.1519314298
0.1527336072
0.1537849261
0.1544242716
0.1551848889
0.1561388391
0.1572490685
0.1580109636
0.1588560637
0.1600274094
0.161442766
0.1624412756
0.1635094754
0.1644113363
0.1659861851
0.1673326558
0.1682804863
0.1696898393
0.171260869
0.1724901843
0.1735328129
0.1747703174
0.1764278505
0.1774937505
0.1780220981
0.1787590868
0.1801066376
0.1807261027
0.1806890176
0.1808442395
0.1814368257
0.1827074675
0.1838410944
0.1835623025
0.1831522113
0.1831812141
0.1836145931
0.1845799332
0.184718472
0.1843368
0.184389599
0.1836962402
0.1832257842
0.183060629
0.18189702
0.1810894793
0.1798527817
0.1782904488
0.1776972527
0.1759705646
0.1741518218
0.1721496488
0.1698037138
0.1678239463
0.1658665836
0.1630388248
0.1610069234
0.1583030253
0.1558322762
0.1538161407
0.1509044235
0.1483194981
0.1455330246
0.1424410925
0.1398521951
0.1360148596
0.1323968722
0.1296293086
0.1256415095
0.1220868774
0.1187500104
0.1152800259
0.1113954608
0.1081880716
0.1053897918
0.1017322255
0.09918359552
0.09634502535
0.09489329998
0.09387314253
0.09302135595
0.09272674625
0.09172550986
0.09076708269
0.08987703243
0.08926520829
0.08874060468
0.08845434653
0.08824073448
0.08805975376
0.08796864219
0.08797782471
0.08803155899
0.08812451487
0.1350937498
0.1353409092
0.1358788813
0.1365559157
0.1369072952
0.1373948599
0.1379925496
0.1386967355
0.139098317
0.1396339356
0.1403022691
0.1410465286
0.1415258737
0.142120682
0.1429427022
0.1438826811
0.1445075815
0.1452206581
0.1457945591
0.1469338266
0.1477926862
0.1484225271
0.1493515782
0.1504827088
0.1512920832
0.1520148659
0.1528973208
0.1540641046
0.1547838793
0.1551219557
0.1556234248
0.1566495449
0.1570116901
0.1569027406
0.1569866103
0.1574107829
0.158371302
0.1592447841
0.158862199
0.1584687718
0.1584532526
0.1587564781
0.159533783
0.1595074855
0.1590999044
0.1590749539
0.1584281287
0.1579361787
0.157705716
0.1566914278
0.1558834867
0.1547952137
0.1534873203
0.152947812
0.1514063337
0.1498446759
0.148380281
0.1463500598
0.1446107904
0.1429702438
0.1404047168
0.1387728657
0.1363785917
0.1343014703
0.1326146734
0.129945903
0.1275916352
0.1249983652
0.122240988
0.1195740403
0.116022172
0.1124333662
0.1094114048
0.1052627353
0.1012028816
0.09709957471
0.09309847759
0.08818801729
0.08517812182
0.08208637589
0.07807953762
0.07556328728
0.07299990981
0.07137834454
0.07014856676
0.06911770668
0.06877533835
0.06770707548
0.06669510994
0.06576191855
0.06500997065
0.06454212675
0.06425502922
0.06395363961
0.06373625017
0.06359376466
0.06352628815
0.06352637728
0.06354881494
0.1233160296
0.1235663541
0.1240934796
0.1246275635
0.1249201699
0.125397615
0.1259672893
0.1265548858
0.1268579787
0.1273491573
0.1279533655
0.1285458569
0.1288821109
0.1293929824
0.130096211
0.1308221664
0.1312486042
0.1317871772
0.1322955673
0.1331265872
0.1336733061
0.1341015801
0.1347350479
0.1355764286
0.136054695
0.1365343125
0.1371466297
0.1379111647
0.1383243112
0.1384906296
0.1388289025
0.1394992326
0.1396076281
0.1394426148
0.1394468832
0.1397044299
0.1403360983
0.1408726675
0.1404005734
0.1400226327
0.1399494711
0.1401138974
0.1405858216
0.1403658564
0.1399698033
0.1398378751
0.1392104621
0.1387510331
0.1384219284
0.1375174355
0.1367797587
0.1357681083
0.1346413793
0.1341671024
0.1326368449
0.1312530282
0.1301679789
0.1282268508
0.1264935212
0.1249902662
0.1225196607
0.1210242887
0.1184526903
0.1164668647
0.1145268835
0.1120197894
0.10928544
0.106116206
0.1032498284
0.1003733116
0.09579413465
0.09172326902
0.08858737474
0.0837006875
0.07901570367
0.07456437829
0.07018886176
0.06500863119
0.06168525403
0.05961404599
0.05531068365
0.05318637342
0.05108278358
0.04959295172
0.04855065096
0.04781131083
0.04755043717
0.04654298608
0.04549994304
0.04460884067
0.04409283146
0.0436997745
0.04344971241
0.04321570507
0.04302759727
0.04289774772
0.04285845962
0.04284781886
0.04286088189
0.1106721542
0.1109690839
0.1115804992
0.1120965841
0.1123947352
0.1129601382
0.1136161437
0.1142218702
0.1145037041
0.1150621349
0.1157430857
0.1163289346
0.1166135662
0.1171559111
0.1179134025
0.1186272316
0.1189877749
0.1195000071
0.1200617843
0.1208381446
0.1212613763
0.121615532
0.1221805261
0.1229255021
0.1232756908
0.12366505
0.1242112458
0.1248471579
0.1251321867
0.1252128972
0.1254866317
0.1260016904
0.1259341817
0.1256918547
0.125632906
0.1258052557
0.1262954457
0.1266635278
0.1260515804
0.1256113522
0.1254696431
0.1255560727
0.1258654162
0.1254597378
0.1250034401
0.1247719553
0.1240675875
0.1235524007
0.123108809
0.1221643505
0.1213051961
0.1202310592
0.1190313494
0.1184325288
0.1168726321
0.1151798542
0.1141452469
0.11220587
0.1103338974
0.1084335241
0.1057235404
0.1036661143
0.1007484112
0.09820218717
0.09551088246
0.09254206541
0.08939207303
0.0857015627
0.08181803695
0.07879923097
0.07390718486
0.06904758633
0.0663723178
0.0606489416
0.0565276795
0.05288141049
0.04851242846
0.04412917226
0.04046279809
0.0393023807
0.03585097463
0.03421622583
0.03276264574
0.03167212487
0.03095711824
0.0304277964
0.03028360236
0.02963926116
0.02879561897
0.02804638246
0.02769615734
0.02745151861
0.02724115234
0.02705144195
0.02697598364
0.02690727739
0.02687910962
0.02688570958
0.02690527442
0.09528260559
0.09566877602
0.09644872791
0.09702400785
0.09737050454
0.09811394935
0.09895750139
0.09966962248
0.09996999624
0.1006779365
0.1015395944
0.1022087099
0.1024838568