/*--------------------------------*- C++ -*----------------------------------*\
| =========                 |                                                 |
| \\      /  F ield         | OpenFOAM: The Open Source CFD Toolbox           |
|  \\    /   O peration     | Version:  v1706                                 |
|   \\  /    A nd           | Web:      www.OpenFOAM.com                      |
|    \\/     M anipulation  |                                                 |
\*---------------------------------------------------------------------------*/
FoamFile
{
    version     2.0;
    format      ascii;
    class       volScalarField;
    location    "0.00272";
    object      O2+;
}
// * * * * * * * * * * * * * * * * * * * * * * * * * * * * * * * * * * * * * //

dimensions      [0 0 0 0 0 0 0];


internalField   nonuniform List<scalar> 
11682
(
2.455674688e-59
1.75251723e-59
1.909213817e-59
1.729360981e-59
1.491008885e-59
1.121459747e-59
1.016235273e-59
8.403492991e-60
4.371513026e-60
3.624616537e-60
3.184827277e-60
2.774265542e-60
1.858009188e-60
1.588555787e-60
1.222274455e-60
8.351535362e-61
5.533718927e-61
5.86072888e-61
4.23462436e-61
2.923476803e-61
2.005848174e-61
1.382459324e-61
1.231959126e-61
6.650318928e-62
6.729102111e-62
4.918619434e-62
3.671683941e-62
2.904890316e-62
2.324947722e-62
2.002573062e-62
1.594411456e-62
1.289177785e-62
1.110915847e-62
8.78788688e-63
8.11259891e-63
9.076932531e-63
1.068892026e-62
1.428669742e-62
2.114332398e-62
2.493628651e-62
2.844073573e-62
3.063641384e-62
2.627502588e-62
1.570390039e-62
1.355709974e-62
6.909966793e-63
7.496830626e-63
7.872921587e-63
8.329109175e-63
9.433831981e-63
9.429485999e-63
1.164938388e-62
1.525482806e-62
2.372054988e-62
3.254626919e-62
4.899031311e-62
7.136600625e-62
8.781909775e-62
1.673211901e-61
2.627213611e-61
3.447190937e-61
6.791389016e-61
1.130702058e-60
1.288626364e-60
3.165021309e-60
5.943320123e-60
1.177946547e-59
2.00264147e-59
5.07468614e-59
1.226840121e-58
2.358699384e-58
5.573885574e-58
1.182449669e-57
2.37950669e-57
4.933349801e-57
1.180977797e-56
2.509876617e-56
4.806979339e-56
9.207694696e-56
1.435786098e-55
2.406295774e-55
3.352934936e-55
5.370211665e-55
7.29167401e-55
8.802001194e-55
1.011011058e-54
1.262850063e-54
1.451955817e-54
1.615196987e-54
1.771271477e-54
1.802230439e-54
2.087857655e-54
2.260463155e-54
2.387261186e-54
2.526399975e-54
2.650060376e-54
2.760914495e-54
2.864415247e-54
2.927757377e-54
3.463853694e-57
2.797664431e-57
2.990367242e-57
2.605542451e-57
2.304333611e-57
1.850398247e-57
1.486302762e-57
1.290349382e-57
6.92648324e-58
5.308773567e-58
4.696350949e-58
4.094099451e-58
2.846211088e-58
2.238009329e-58
1.758110185e-58
1.200974923e-58
9.494258945e-59
8.939720039e-59
6.210869461e-59
4.2477662e-59
2.933700896e-59
2.173803111e-59
1.799547037e-59
1.326985656e-59
9.71052267e-60
7.356087671e-60
5.421440814e-60
4.227048927e-60
3.412588532e-60
2.96345518e-60
2.406236369e-60
2.085158054e-60
1.664112722e-60
1.290728745e-60
1.157673134e-60
1.331359539e-60
1.432622748e-60
1.735056788e-60
2.582834707e-60
3.220952678e-60
3.672360548e-60
3.949682996e-60
3.467420917e-60
2.600350713e-60
1.905352257e-60
1.385507963e-60
1.160653808e-60
1.157735779e-60
1.205041538e-60
1.376770295e-60
1.499130532e-60
1.802201691e-60
2.301182258e-60
3.451139847e-60
4.937097297e-60
7.044795203e-60
1.019144602e-59
1.508700471e-59
2.407338307e-59
3.791355842e-59
6.525530812e-59
9.937543452e-59
1.615250206e-58
2.692882851e-58
4.390555991e-58
8.210898066e-58
1.631577306e-57
3.439341152e-57
7.293087005e-57
1.6822446e-56
3.732506856e-56
7.574282249e-56
1.615199619e-55
3.138381015e-55
6.586947002e-55
1.534166786e-54
3.441409459e-54
6.5773633e-54
1.207585291e-53
1.93278565e-53
2.976295444e-53
4.722521258e-53
6.758230851e-53
9.029360007e-53
1.140553982e-52
1.339261543e-52
1.55493308e-52
1.747742432e-52
1.860706371e-52
2.156204514e-52
2.332747383e-52
2.505026837e-52
2.66630203e-52
2.798402882e-52
2.9532465e-52
3.073131088e-52
3.187966029e-52
3.307487421e-52
3.389080864e-52
5.426806367e-55
3.991764902e-55
4.285786216e-55
3.85331506e-55
3.535524639e-55
2.676874275e-55
2.132128845e-55
1.904669785e-55
1.016799744e-55
7.72996043e-56
6.816795247e-56
5.871603148e-56
3.995919252e-56
3.122904172e-56
2.564397923e-56
1.718856611e-56
1.421936531e-56
1.341652143e-56
8.973709882e-57
6.081594763e-57
4.171507792e-57
3.210086522e-57
2.633497502e-57
1.912670199e-57
1.499219107e-57
1.039009609e-57
7.950657271e-58
6.653013131e-58
5.122215027e-58
4.354504481e-58
3.4621996e-58
3.098333247e-58
2.450274878e-58
1.883360601e-58
1.790225159e-58
1.867854426e-58
1.961491222e-58
2.326393319e-58
3.028945736e-58
3.905255107e-58
4.423176848e-58
4.783814346e-58
4.4352593e-58
3.30932982e-58
2.524559295e-58
1.996439589e-58
1.662825605e-58
1.677556655e-58
1.713058062e-58
1.970295721e-58
2.139150049e-58
2.525634656e-58
3.394404773e-58
4.952020237e-58
7.047248246e-58
9.688384273e-58
1.448116018e-57
2.050536246e-57
3.392432802e-57
5.501130105e-57
9.249227129e-57
1.466325923e-56
2.388244169e-56
3.68391187e-56
5.766819855e-56
1.128222501e-55
2.212005218e-55
4.749019503e-55
9.894673646e-55
2.270388625e-54
5.049834471e-54
1.011977328e-53
2.176183065e-53
4.151202805e-53
8.648365686e-53
2.048597484e-52
4.458408181e-52
8.392441581e-52
1.549872872e-51
2.388511117e-51
3.948649532e-51
6.122110497e-51
8.35561258e-51
1.11322578e-50
1.381329691e-50
1.597570742e-50
1.856050464e-50
2.043906969e-50
2.2104648e-50
2.501403191e-50
2.636017653e-50
2.850063181e-50
3.082372379e-50
3.245419172e-50
3.418476516e-50
3.438952757e-50
3.603075681e-50
3.722846839e-50
3.832564358e-50
7.976582807e-53
6.030141336e-53
6.438714134e-53
5.686293165e-53
5.374888238e-53
4.165449979e-53
3.038903313e-53
2.814419873e-53
1.479594976e-53
1.129283e-53
1.005109557e-53
8.269719692e-54
5.882888034e-54
4.9446161e-54
3.650960045e-54
2.687114244e-54
2.293284337e-54
2.002624894e-54
1.306691531e-54
8.740381196e-55
5.860009658e-55
4.801678233e-55
3.966210489e-55
2.706826863e-55
2.157000958e-55
1.632427972e-55
1.186126714e-55
9.555419767e-56
7.460953831e-56
6.589604889e-56
5.39276566e-56
4.677548479e-56
3.628961616e-56
2.873973918e-56
2.757928042e-56
2.75031923e-56
2.662074354e-56
3.009698749e-56
3.286746757e-56
4.599072251e-56
5.577564442e-56
6.738671008e-56
5.654651927e-56
4.490726941e-56
3.324830153e-56
2.759806656e-56
2.366271376e-56
2.439778651e-56
2.435050017e-56
2.741729676e-56
3.019338987e-56
3.636479843e-56
4.930269054e-56
7.087334848e-56
9.986411987e-56
1.403924361e-55
2.088679787e-55
2.62761923e-55
4.754851819e-55
7.829708803e-55
1.311738903e-54
2.077134618e-54
3.316458918e-54
5.003760497e-54
7.484031825e-54
1.5161646e-53
2.947394012e-53
6.485950819e-53
1.401371412e-52
3.03651867e-52
6.882198067e-52
1.393786622e-51
2.908661497e-51
5.393477254e-51
1.10052198e-50
2.698596385e-50
5.758485533e-50
1.078604889e-49
1.975953268e-49
2.956196391e-49
5.023875946e-49
7.686484289e-49
1.017035523e-48
1.348145773e-48
1.653946802e-48
1.838191499e-48
2.215564962e-48
2.372431427e-48
2.610010983e-48
2.811132183e-48
3.164105056e-48
3.363313166e-48
3.568558151e-48
3.72949119e-48
3.896964167e-48
4.042798071e-48
4.143964842e-48
4.228627925e-48
4.318222831e-48
1.143649694e-50
8.967219734e-51
9.722512608e-51
8.705166607e-51
7.480349046e-51
6.331206735e-51
4.35963182e-51
4.158076192e-51
2.312240621e-51
1.623663959e-51
1.540550305e-51
1.183766401e-51
7.98694479e-52
7.147633792e-52
5.473573934e-52
3.917522903e-52
3.200270909e-52
2.937420348e-52
1.933170123e-52
1.265240543e-52
8.627697753e-53
7.245744545e-53
6.040980696e-53
4.052928477e-53
3.066503324e-53
2.35062706e-53
1.774417442e-53
1.361392054e-53
1.100431079e-53
9.718245216e-54
8.10148548e-54
6.99411427e-54
5.310203694e-54
4.14721701e-54
4.065827546e-54
3.980109232e-54
3.843610049e-54
3.861477246e-54
4.48252028e-54
5.402411736e-54
6.766959086e-54
8.421275082e-54
7.765438821e-54
6.126890529e-54
4.62419862e-54
3.772848169e-54
3.399195089e-54
3.541594865e-54
3.460163748e-54
3.974542858e-54
4.254929395e-54
5.416297654e-54
7.256035213e-54
9.990286881e-54
1.413563751e-53
1.987781885e-53
2.999747116e-53
4.382913802e-53
6.620775081e-53
1.111149365e-52
1.859602137e-52
2.861029461e-52
4.631824833e-52
6.656868906e-52
1.11811201e-51
2.058665603e-51
3.929409518e-51
8.770448645e-51
1.886871777e-50
4.124383682e-50
9.368653449e-50
1.981557196e-49
3.90666928e-49
7.001554664e-49
1.514357192e-48
3.528452804e-48
7.417812381e-48
1.353717748e-47
2.507368535e-47
4.065952637e-47
6.394072008e-47
9.677271163e-47
1.245529254e-46
1.641326593e-46
1.939615833e-46
2.204792524e-46
2.633223174e-46
2.778022923e-46
3.162681225e-46
3.41452744e-46
3.654593443e-46
3.870113583e-46
4.113153582e-46
4.307049589e-46
4.312556755e-46
4.585228449e-46
4.659258536e-46
4.752514094e-46
4.86261781e-46
1.727210027e-48
1.357954118e-48
1.547652219e-48
1.247246863e-48
1.242863206e-48
9.527354972e-49
6.66532754e-49
6.108812299e-49
3.359891406e-49
2.287408085e-49
2.29522918e-49
1.832294918e-49
1.240332297e-49
1.051614157e-49
7.941745282e-50
5.624510743e-50
4.937404702e-50
4.274762987e-50
2.866051042e-50
1.839004098e-50
1.278168188e-50
1.07970954e-50
8.919399432e-51
5.948643814e-51
4.488888544e-51
3.415561944e-51
2.627187704e-51
1.95306183e-51
1.633650699e-51
1.420335385e-51
1.208863547e-51
1.027083369e-51
8.0145794e-52
6.177377828e-52
5.977332477e-52
5.765332415e-52
5.406013121e-52
5.150187953e-52
5.468130528e-52
6.387086624e-52
8.157505744e-52
1.045100678e-51
1.019702787e-51
8.366307031e-52
6.157062696e-52
5.04416725e-52
5.04877997e-52
5.172740242e-52
4.938499007e-52
5.609664509e-52
5.931861032e-52
7.880107562e-52
1.091387285e-51
1.472243779e-51
2.184070686e-51
2.762747792e-51
4.356739631e-51
6.295219959e-51
9.531780421e-51
1.564415354e-50
2.625218199e-50
4.280966258e-50
6.676693974e-50
9.412608145e-50
1.536696712e-49
2.805643385e-49
5.682993591e-49
1.189136776e-48
2.430040504e-48
5.467627193e-48
1.249503346e-47
2.665168891e-47
5.214927179e-47
9.613848899e-47
1.952924818e-46
4.600845792e-46
9.549219348e-46
1.770125198e-45
3.241901266e-45
4.978311394e-45
8.034659944e-45
1.213251184e-44
1.581371897e-44
2.007617908e-44
2.408665369e-44
2.744790803e-44
3.155945948e-44
3.343115509e-44
3.687779506e-44
3.941423693e-44
4.267757142e-44
4.454544851e-44
4.712930297e-44
4.889222701e-44
5.09623366e-44
5.196936006e-44
5.184524252e-44
5.290498394e-44
5.483715174e-44
2.694332075e-46
2.058275381e-46
2.28048868e-46
1.990217524e-46
1.918265081e-46
1.397887185e-46
1.006202986e-46
8.922966084e-47
4.952350197e-47
3.495941903e-47
3.394073075e-47
2.657804692e-47
1.798452894e-47
1.570692325e-47
1.128877807e-47
8.251061527e-48
7.1417602e-48
6.580574641e-48
4.183779532e-48
2.656925155e-48
1.897747964e-48
1.586727463e-48
1.319453182e-48
8.685791167e-49
6.465202861e-49
5.031313513e-49
3.851278698e-49
2.845420835e-49
2.460125867e-49
2.153553387e-49
1.797021818e-49
1.504368034e-49
1.140427356e-49
8.967298939e-50
8.809968803e-50
8.296603848e-50
7.492562757e-50
6.766446967e-50
6.879502147e-50
8.078070608e-50
1.007319044e-49
1.241724523e-49
1.289546203e-49
1.085458014e-49
8.213749223e-50
7.255381461e-50
7.409442337e-50
7.575453062e-50
7.277230092e-50
8.11625554e-50
9.054319393e-50
1.112307534e-49
1.598966071e-49
2.112010246e-49
3.127146143e-49
4.395364208e-49
6.451879813e-49
9.239997645e-49
1.335987921e-48
2.18327093e-48
3.711027717e-48
6.024953288e-48
9.936965476e-48
1.415796758e-47
2.147064092e-47
3.880347614e-47
7.832298214e-47
1.598389191e-46
3.304320639e-46
7.469454291e-46
1.654071401e-45
3.51435926e-45
6.939253742e-45
1.296086807e-44
2.394637163e-44
5.955729043e-44
1.225032154e-43
2.293004067e-43
4.13754611e-43
6.566537817e-43
1.009886637e-42
1.504254941e-42
2.04994292e-42
2.474158568e-42
2.917546222e-42
3.39712888e-42
3.729792063e-42
4.020520004e-42
4.372832173e-42
4.534184819e-42
4.953414138e-42
5.208046881e-42
5.39206773e-42
5.35177786e-42
5.781908837e-42
5.87547153e-42
6.096126243e-42
6.252926315e-42
6.333876415e-42
4.05973058e-44
3.283494954e-44
3.461252963e-44
2.968478232e-44
2.832138513e-44
2.042877778e-44
1.645493809e-44
1.301320631e-44
7.278139857e-45
5.139389476e-45
4.959795896e-45
4.135850471e-45
2.684412528e-45
2.371818047e-45
1.777065576e-45
1.209999583e-45
1.133666225e-45
9.655071731e-46
6.116882624e-46
3.817634122e-46
2.725683945e-46
2.420199405e-46
1.936844705e-46
1.285897822e-46
9.369718455e-47
7.516027924e-47
5.658116544e-47
4.109700677e-47
3.584637803e-47
3.17410495e-47
2.65729937e-47
2.195399119e-47
1.710663833e-47
1.391418676e-47
1.30822393e-47
1.213215291e-47
1.10239501e-47
9.055271316e-48
9.855016515e-48
1.098704093e-47
1.343797364e-47
1.708446475e-47
1.708059786e-47
1.391231074e-47
1.114045986e-47
1.044609895e-47
1.090218289e-47
1.100272155e-47
1.125658611e-47
1.151757396e-47
1.301703675e-47
1.710313158e-47
2.333949409e-47
3.066110829e-47
4.466038997e-47
6.26890851e-47
9.058078942e-47
1.349625981e-46
1.931121988e-46
3.062473125e-46
5.260130515e-46
8.451561624e-46
1.434595328e-45
2.091794202e-45
3.043874777e-45
5.406190454e-45
1.085905076e-44
2.238621325e-44
4.430541658e-44
9.89049415e-44
2.176474281e-43
4.560438258e-43
9.24716245e-43
1.699874106e-42
3.563733539e-42
7.715203434e-42
1.562595642e-41
2.985402081e-41
5.273387558e-41
8.214324467e-41
1.251251202e-40
1.854778962e-40
2.523804833e-40
3.0362019e-40
3.54734092e-40
4.050465739e-40
4.354869786e-40
4.624835642e-40
5.063834527e-40
5.433123618e-40
5.719807942e-40
5.977391068e-40
6.105461308e-40
6.15715593e-40
6.476939628e-40
6.708213682e-40
6.921037005e-40
7.036186343e-40
7.13294564e-40
6.211415573e-42
4.845149682e-42
5.107127505e-42
4.311556097e-42
4.07221618e-42
3.009296996e-42
2.421452904e-42
1.880723266e-42
1.074318326e-42
7.828822555e-43
7.237457183e-43
6.451940514e-43
4.051609231e-43
3.590657078e-43
2.690144978e-43
1.74759388e-43
1.681835668e-43
1.39376483e-43
8.922261711e-44
5.510226099e-44
3.949164696e-44
3.607580782e-44
2.768285872e-44
1.965557158e-44
1.337194937e-44
1.105920188e-44
8.345432399e-45
5.926482922e-45
5.251544679e-45
4.715950616e-45
3.942030304e-45
3.172892183e-45
2.47970151e-45
2.04238953e-45
1.874834224e-45
1.870929996e-45
1.679412921e-45
1.354105472e-45
1.389794097e-45
1.569886883e-45
1.980736391e-45
2.281767651e-45
2.233710686e-45
1.835692371e-45
1.519236292e-45
1.476517507e-45
1.566837443e-45
1.58854432e-45
1.633985429e-45
1.766605642e-45
1.896146787e-45
2.483412622e-45
3.398392257e-45
4.450230232e-45
6.404465407e-45
8.608909458e-45
1.242326667e-44
1.882862627e-44
2.702035013e-44
4.417017028e-44
7.456867673e-44
1.192398388e-43
2.024732133e-43
3.014035613e-43
4.297103257e-43
7.277659475e-43
1.500243654e-42
3.084415847e-42
5.676871016e-42
1.306721513e-41
2.891569682e-41
6.248035744e-41
1.223495918e-40
2.216756108e-40
4.550149257e-40
9.85524818e-40
1.971131736e-39
3.806254866e-39
6.698693004e-39
1.027318387e-38
1.542572366e-38
2.297268221e-38
3.119193096e-38
3.940773834e-38
4.288231997e-38
4.864535503e-38
5.086872548e-38
5.201882246e-38
5.669082249e-38
6.279121179e-38
6.652317074e-38
6.892343065e-38
6.940296791e-38
6.769383735e-38
7.17589661e-38
7.476987612e-38
7.799200205e-38
7.819757311e-38
7.978442741e-38
9.362101849e-40
6.895092144e-40
8.103777347e-40
6.838589417e-40
6.037998425e-40
4.465426527e-40
3.437605715e-40
2.708043257e-40
1.556084052e-40
1.214178981e-40
1.068527607e-40
9.684364637e-41
6.295555046e-41
5.400801769e-41
4.192848199e-41
2.512597186e-41
2.494876471e-41
1.937253703e-41
1.292042046e-41
8.062770469e-42
5.925356699e-42
5.296338871e-42
4.294436834e-42
2.962257659e-42
2.045091195e-42
1.590781547e-42
1.234242182e-42
9.253252196e-43
7.713228142e-43
7.045644123e-43
5.871326783e-43
4.7141084e-43
3.581422083e-43
2.982559638e-43
2.824982433e-43
2.740348067e-43
2.41855383e-43
1.946477652e-43
2.007675986e-43
2.465974328e-43
2.919073648e-43
3.118214923e-43
2.989734118e-43
2.435302275e-43
2.094166097e-43
2.103349463e-43
2.250705533e-43
2.290150511e-43
2.390155732e-43
2.506165473e-43
2.688906769e-43
3.480270101e-43
4.936192755e-43
6.505287866e-43
9.34435916e-43
1.264461736e-42
1.800787969e-42
2.588301847e-42
3.785882947e-42
6.170349228e-42
1.048159954e-41
1.67748254e-41
2.809620931e-41
4.222610014e-41
5.964692982e-41
9.462273174e-41
2.044399294e-40
4.186963248e-40
8.9835076e-40
1.767249386e-39
3.967947055e-39
8.460233272e-39
1.612255981e-38
3.037683261e-38
5.747006633e-38
1.244791532e-37
2.417751332e-37
4.811139368e-37
8.558633591e-37
1.277490178e-36
1.973102982e-36
2.907742684e-36
3.974564557e-36
4.898135454e-36
5.572271118e-36
5.944248602e-36
6.130135432e-36
6.375446998e-36
7.006635685e-36
7.381104817e-36
7.72598527e-36
7.919746513e-36
7.934454801e-36
7.412449058e-36
8.061129625e-36
8.38148217e-36
8.748178177e-36
8.97420964e-36
9.01681301e-36
1.457707363e-37
1.049460131e-37
1.201960962e-37
9.992991885e-38
8.586836487e-38
6.465761186e-38
4.832911142e-38
3.98240121e-38
2.25222457e-38
1.801561031e-38
1.608422847e-38
1.464142526e-38
1.010345907e-38
8.225114535e-39
6.151918728e-39
3.652169139e-39
3.69242453e-39
3.170558008e-39
1.885117489e-39
1.157430844e-39
8.865460506e-40
7.753085636e-40
6.299302779e-40
4.390031677e-40
3.218658518e-40
2.444193408e-40
1.819727099e-40
1.411120366e-40
1.132835754e-40
1.049362812e-40
8.65764571e-41
6.734513635e-41
4.906782822e-41
4.56450684e-41
4.100686824e-41
4.159233179e-41
3.398768966e-41
2.761521408e-41
2.891347576e-41
4.132844883e-41
4.336117198e-41
4.188542735e-41
4.089217155e-41
3.396775885e-41
3.050370077e-41
3.005986329e-41
3.231071542e-41
3.293780927e-41
3.417007812e-41
3.600627344e-41
3.837506652e-41
5.148420953e-41
7.120061713e-41
9.47444332e-41
1.341282034e-40
1.832866923e-40
2.61527116e-40
3.596484967e-40
5.37112576e-40
8.613092797e-40
1.472692202e-39
2.322241492e-39
4.028983882e-39
5.882870231e-39
8.146307177e-39
1.461492673e-38
2.789838661e-38
5.969377789e-38
1.252869359e-37
2.419159603e-37
5.275717432e-37
1.139303234e-36
2.108814152e-36
3.945215678e-36
7.582092195e-36
1.545439007e-35
3.25225016e-35
6.184917247e-35
1.085638345e-34
1.597920963e-34
2.429690628e-34
3.563173451e-34
5.044091411e-34
5.906816935e-34
6.871166428e-34
7.391379724e-34
7.204537701e-34
7.793752721e-34
8.264788902e-34
8.575531964e-34
8.913558195e-34
9.093825721e-34
8.829138423e-34
9.270634845e-34
9.626620657e-34
9.908496423e-34
1.011698815e-33
1.021755057e-33
1.017689565e-33
2.257301341e-35
1.703396654e-35
1.754082776e-35
1.396059997e-35
1.235706116e-35
9.404875806e-36
7.037960458e-36
6.025006862e-36
3.203486663e-36
2.603231056e-36
2.425625829e-36
2.147387929e-36
1.550373726e-36
1.229606421e-36
8.94628946e-37
5.638110775e-37
5.454626067e-37
4.500000932e-37
2.775514333e-37
1.602121626e-37
1.302079231e-37
1.13377579e-37
9.064961416e-38
6.30595394e-38
4.759614492e-38
3.705786888e-38
2.677695801e-38
2.062701565e-38
1.676411785e-38
1.541425735e-38
1.26689058e-38
9.689571766e-39
7.540395969e-39
6.720154887e-39
5.920604942e-39
6.045076993e-39
4.979769423e-39
3.930846207e-39
4.55918395e-39
7.357354429e-39
6.574832732e-39
6.149335122e-39
5.661983533e-39
4.620491515e-39
4.373627447e-39
4.354918628e-39
4.654932637e-39
4.740461685e-39
4.897434987e-39
5.266176514e-39
5.478314453e-39
7.36565045e-39
1.013576139e-38
1.329151945e-38
1.934098497e-38
2.588588421e-38
3.703936108e-38
5.511046681e-38
7.583570154e-38
1.195030261e-37
2.087877452e-37
3.155600294e-37
5.71018866e-37
8.338788773e-37
1.079130631e-36
1.989237113e-36
3.833819416e-36
8.252563238e-36
1.735085374e-35
3.277939579e-35
7.034118715e-35
1.520374968e-34
2.717539673e-34
5.109414095e-34
9.361165638e-34
1.964208035e-33
4.163400428e-33
7.641984568e-33
1.320620725e-32
2.104837157e-32
3.040771639e-32
4.62715049e-32
6.208093997e-32
7.647518552e-32
8.285109167e-32
8.844942976e-32
8.990505536e-32
9.155458461e-32
9.538216353e-32
9.722564437e-32
1.013181441e-31
1.044906199e-31
9.961642407e-32
1.039252053e-31
1.08043971e-31
1.124541252e-31
1.164702613e-31
1.171555318e-31
1.15210342e-31
3.249188649e-33
2.654300598e-33
2.540036976e-33
2.034175301e-33
1.80423316e-33
1.433842719e-33
1.029340894e-33
9.197137719e-34
4.684028735e-34
3.78646553e-34
3.493328959e-34
3.127642042e-34
2.351417694e-34
1.8448012e-34
1.294972335e-34
8.23318275e-35
7.873119212e-35
6.525775989e-35
3.976113707e-35
2.565189729e-35
1.905981898e-35
1.664541695e-35
1.302414714e-35
8.829728575e-36
7.047081003e-36
5.57300971e-36
3.983863056e-36
2.9979212e-36
2.41781834e-36
2.23037201e-36
1.878798033e-36
1.389061314e-36
1.064101418e-36
9.864529463e-37
8.873397175e-37
8.567574198e-37
7.267832066e-37
5.68375158e-37
7.267130133e-37
1.355121944e-36
1.128292451e-36
8.944268644e-37
8.38492144e-37
7.227271006e-37
6.46769157e-37
6.378474622e-37
6.739404386e-37
6.695920512e-37
7.215565152e-37
7.523810726e-37
7.551264062e-37
1.047483423e-36
1.478948527e-36
1.735185409e-36
2.742383853e-36
3.79231096e-36
5.020377266e-36
7.761138815e-36
1.038301808e-35
1.666044143e-35
2.934884541e-35
4.813367323e-35
8.314509539e-35
1.17101709e-34
1.511617882e-34
2.704222148e-34
5.613025929e-34
1.183430503e-33
2.333056031e-33
4.356206455e-33
9.746681103e-33
2.032266801e-32
3.410616136e-32
6.50318088e-32
1.274645542e-31
2.812437623e-31
5.321743032e-31
9.714586299e-31
1.702891987e-30
2.632312937e-30
4.062268873e-30
5.828882349e-30
7.551637289e-30
9.187739399e-30
9.328465486e-30
1.035727373e-29
1.064412305e-29
1.05901125e-29
1.097933292e-29
1.103612366e-29
1.152689948e-29
1.200647783e-29
1.187006268e-29
1.225058016e-29
1.252541944e-29
1.306416621e-29
1.338176243e-29
1.337826601e-29
1.294731143e-29
5.145786989e-31
3.850124699e-31
3.655482105e-31
3.42190837e-31
2.616301529e-31
2.106185056e-31
1.53279287e-31
1.350003704e-31
7.117484368e-32
5.646788234e-32
5.074225172e-32
4.614047232e-32
3.474158003e-32
2.750988669e-32
1.872521377e-32
1.205980313e-32
1.116463222e-32
1.002834534e-32
5.562980846e-33
3.826207156e-33
2.783408725e-33
2.446201593e-33
1.932577002e-33
1.334593706e-33
1.038852626e-33
8.018525662e-34
5.647081865e-34
4.552653436e-34
3.491325549e-34
3.236203836e-34
2.819098014e-34
2.064258554e-34
1.525187221e-34
1.468825489e-34
1.293346473e-34
1.231721157e-34
1.115189772e-34
8.669162519e-35
1.247223874e-34
2.715993052e-34
1.914811525e-34
1.400160405e-34
1.219754747e-34
1.031315847e-34
9.337736522e-35
9.168348198e-35
9.794859176e-35
9.469168485e-35
1.074329296e-34
1.064721019e-34
1.100193801e-34
1.500735897e-34
2.021979205e-34
2.720554619e-34
4.03185547e-34
5.409049194e-34
7.442634455e-34
1.11018242e-33
1.345681582e-33
2.354055583e-33
4.123845863e-33
6.679726205e-33
1.181361404e-32
1.695314507e-32
2.021446203e-32
3.706986881e-32
7.775771162e-32
1.639309248e-31
3.072189567e-31
5.604752863e-31
1.299930014e-30
2.862392139e-30
4.526536088e-30
8.687770785e-30
1.698226486e-29
3.653372344e-29
6.93077234e-29
1.244925273e-28
2.069517942e-28
3.186685867e-28
5.144979771e-28
7.306077914e-28
8.841734081e-28
1.099911956e-27
1.155564605e-27
1.222090183e-27
1.249120065e-27
1.17281633e-27
1.25264351e-27
1.270141469e-27
1.326231648e-27
1.387865753e-27
1.380558221e-27
1.40303867e-27
1.35790944e-27
1.441273432e-27
1.493687985e-27
1.503992487e-27
1.441323605e-27
7.310126558e-29
5.774295923e-29
5.512282599e-29
5.143231634e-29
3.885478149e-29
3.115155463e-29
2.390420911e-29
2.016266595e-29
1.057355276e-29
8.463667082e-30
7.640667755e-30
6.531187458e-30
4.894817279e-30
4.076132252e-30
2.703127322e-30
1.824140875e-30
1.592621753e-30
1.449460048e-30
7.879596566e-31
5.763743489e-31
4.121186053e-31
3.572810913e-31
2.753278139e-31
1.890257115e-31
1.501376182e-31
1.170118524e-31
8.586595258e-32
6.768902073e-32
5.036776445e-32
4.718708454e-32
4.142114792e-32
3.12495997e-32
2.186380896e-32
2.138859712e-32
1.945682879e-32
1.856110518e-32
1.641688736e-32
1.31044414e-32
2.291829637e-32
5.830444114e-32
3.42546198e-32
2.16055359e-32
1.751021582e-32
1.474841571e-32
1.346403508e-32
1.299591505e-32
1.425857261e-32
1.440964214e-32
1.575913782e-32
1.481321592e-32
1.589031145e-32
2.18290367e-32
3.09418492e-32
3.71690158e-32
5.64586771e-32
7.757401532e-32
1.119379684e-31
1.625063633e-31
2.091457783e-31
3.364554968e-31
5.669445548e-31
9.392474481e-31
1.65175012e-30
2.235864566e-30
2.716822897e-30
5.089200904e-30
1.064550063e-29
2.246425866e-29
4.456024854e-29
7.627626299e-29
1.734135154e-28
3.81674155e-28
6.649338459e-28
1.107159783e-27
2.166250215e-27
4.786214067e-27
8.949614906e-27
1.582900368e-26
2.430836177e-26
3.666859387e-26
6.355263036e-26
9.077398934e-26
1.167280308e-25
1.330985725e-25
1.441692364e-25
1.46633472e-25
1.477812449e-25
1.446684172e-25
1.443356398e-25
1.432397103e-25
1.500577998e-25
1.585004457e-25
1.595827414e-25
1.618397213e-25
1.58290416e-25
1.624392438e-25
1.662677811e-25
1.668391124e-25
1.636312743e-25
1.061930737e-26
8.41325901e-27
7.969582916e-27
7.495879859e-27
5.478973194e-27
4.652839005e-27
3.713584679e-27
3.006792067e-27
1.599779171e-27
1.270086464e-27
1.151532969e-27
9.303980932e-28
7.333169655e-28
6.017965059e-28
3.853777772e-28
2.764503099e-28
2.56000631e-28
2.334739579e-28
1.184341619e-28
8.584799908e-29
5.911411741e-29
5.355054302e-29
4.127042817e-29
2.793935368e-29
2.212104524e-29
1.790071131e-29
1.266697149e-29
9.980156055e-30
7.352865674e-30
6.701026424e-30
5.994501378e-30
4.581563976e-30
3.203765174e-30
3.093667679e-30
2.940444207e-30
2.724715733e-30
2.477863311e-30
2.158646936e-30
4.305178925e-30
1.296446751e-29
6.466552908e-30
3.296471858e-30
2.593459942e-30
2.107925256e-30
1.9419023e-30
1.799085286e-30
2.080244892e-30
2.119030803e-30
2.288490614e-30
2.108890997e-30
2.305228372e-30
3.1427467e-30
4.519105545e-30
5.387358076e-30
7.755236891e-30
1.136057868e-29
1.59536262e-29
2.320173426e-29
2.899548639e-29
4.925367406e-29
7.804372264e-29
1.290280285e-28
2.293989484e-28
3.411400501e-28
3.724301069e-28
7.013711058e-28
1.48212912e-27
3.042008126e-27
6.161269274e-27
9.501518994e-27
2.315899701e-26
4.940606847e-26
8.76730796e-26
1.470696458e-25
2.741401759e-25
6.280674522e-25
1.142550198e-24
2.077334296e-24
3.54718e-24
4.568277501e-24
7.878935922e-24
1.1269608e-23
1.486857457e-23
1.575461066e-23
1.72663796e-23
1.70199647e-23
1.739805929e-23
1.681529874e-23
1.635666091e-23
1.596771587e-23
1.704737049e-23
1.803384263e-23
1.862851399e-23
1.852215909e-23
1.801324656e-23
1.84830103e-23
1.869309675e-23
1.823275593e-23
1.813562282e-23
1.697762157e-24
1.197555212e-24
1.139828877e-24
1.063153763e-24
8.8892997e-25
6.767024372e-25
5.578631401e-25
4.486026747e-25
2.404460676e-25
1.89855151e-25
1.698474966e-25
1.43947874e-25
1.077124929e-25
8.893037862e-26
5.679759693e-26
4.147918265e-26
3.704053426e-26
3.413858185e-26
1.978491233e-26
1.336578982e-26
8.552743711e-27
7.68227298e-27
6.07429405e-27
4.37521385e-27
3.338625716e-27
2.682743659e-27
1.82980857e-27
1.454809567e-27
1.113234745e-27
9.418538199e-28
9.16446041e-28
6.682826015e-28
5.00641103e-28
4.484053706e-28
4.200592922e-28
4.021894973e-28
3.690700799e-28
3.412764532e-28
9.073252565e-28
2.882376369e-27
1.284712305e-27
5.868398593e-28
3.81861026e-28
2.959482898e-28
2.784837456e-28
2.603363174e-28
3.053434228e-28
3.196331546e-28
3.324070396e-28
2.956190421e-28
3.409980736e-28
4.366007668e-28
6.666121078e-28
7.95853436e-28
1.08069538e-27
1.610372397e-27
2.307016413e-27
3.275839107e-27
3.873105453e-27
7.205684862e-27
1.122891314e-26
1.773090144e-26
3.15481211e-26
4.669992169e-26
4.96932835e-26
9.725788228e-26
2.033747928e-25
4.066528532e-25
8.513538004e-25
1.324822061e-24
3.030226582e-24
6.771926599e-24
1.150174772e-23
1.900108698e-23
3.613874234e-23
8.216874407e-23
1.438717783e-22
2.690222601e-22
4.568277474e-22
5.722594466e-22
9.932609694e-22
1.378818758e-21
1.861529757e-21
1.951272243e-21
2.087572969e-21
1.890954967e-21
2.028582615e-21
1.982167831e-21
1.853013627e-21
1.801637817e-21
1.958739192e-21
2.0612659e-21
2.134017167e-21
2.156884378e-21
1.906563643e-21
2.029877649e-21
2.056321227e-21
2.035196535e-21
1.976689828e-21
2.519119145e-22
2.039501828e-22
1.606453958e-22
1.534681928e-22
1.353487638e-22
9.861955617e-23
7.932211241e-23
6.758364948e-23
3.610686739e-23
2.776346126e-23
2.416131892e-23
2.146878513e-23
1.611950525e-23
1.320157404e-23
8.57358975e-24
6.139086926e-24
5.85347335e-24
4.830225027e-24
3.025865106e-24
1.961524115e-24
1.268560028e-24
1.075692783e-24
8.976631436e-25
6.548650963e-25
4.770802398e-25
3.931941705e-25
2.595364323e-25
2.082488687e-25
1.614511726e-25
1.331057002e-25
1.408326277e-25
9.755242535e-26
7.47529284e-26
6.686819491e-26
6.126944739e-26
5.935041978e-26
5.433224266e-26
5.377414195e-26
2.013204707e-25
7.131305481e-25
2.629585675e-25
1.006869516e-25
5.677042764e-26
3.86155183e-26
3.979175365e-26
3.353251416e-26
4.440659658e-26
4.663426944e-26
4.720106443e-26
4.394270938e-26
5.21374289e-26
6.791810872e-26
9.426867929e-26
1.152635237e-25
1.609786767e-25
2.269260938e-25
3.340410929e-25
5.112834242e-25
6.115188962e-25
1.043444455e-24
1.567761171e-24
2.417618737e-24
4.614939108e-24
6.439872468e-24
6.468392124e-24
1.370625209e-23
2.73950169e-23
5.403710859e-23
1.169330883e-22
1.84782682e-22
4.067139584e-22
9.259717226e-22
1.481629722e-21
2.517781817e-21
4.491462524e-21
1.06519095e-20
1.930577977e-20
3.309024429e-20
6.465606444e-20
7.07023832e-20
1.289878839e-19
1.783542339e-19
2.225920248e-19
2.419726309e-19
2.629735758e-19
2.247788278e-19
2.336144849e-19
2.403704054e-19
2.04267391e-19
2.127166935e-19
2.209001278e-19
2.319597341e-19
2.388991275e-19
2.446643876e-19
2.370140433e-19
2.370951861e-19
2.32900613e-19
2.251230562e-19
2.133478372e-19
3.717092671e-20
3.427378138e-20
2.450671044e-20
2.395204722e-20
2.008393592e-20
1.514065419e-20
1.035393864e-20
1.031722155e-20
5.40257178e-21
4.249900462e-21
3.893136375e-21
3.201122548e-21
2.331096811e-21
1.952325639e-21
1.238614968e-21
9.005410846e-22
8.695908655e-22
7.081316108e-22
4.558584459e-22
2.831497583e-22
1.916868228e-22
1.620350969e-22
1.326190488e-22
9.65588602e-23
7.313367078e-23
5.89741817e-23
3.675569971e-23
3.14308344e-23
2.275588094e-23
2.082759767e-23
2.043607191e-23
1.416772669e-23
1.100219049e-23
1.005933668e-23
8.980102355e-24
8.714129214e-24
8.090568124e-24
8.341226645e-24
4.079753862e-23
1.600647403e-22
5.63164151e-23
1.925905405e-23
8.605594929e-24
5.568317308e-24
5.718134066e-24
5.434416095e-24
6.438137101e-24
6.708519778e-24
7.383648547e-24
6.446929305e-24
7.689359273e-24
9.920165622e-24