/*--------------------------------*- C++ -*----------------------------------*\
| =========                 |                                                 |
| \\      /  F ield         | OpenFOAM: The Open Source CFD Toolbox           |
|  \\    /   O peration     | Version:  v1706                                 |
|   \\  /    A nd           | Web:      www.OpenFOAM.com                      |
|    \\/     M anipulation  |                                                 |
\*---------------------------------------------------------------------------*/
FoamFile
{
    version     2.0;
    format      ascii;
    class       volScalarField;
    location    "0.00272";
    object      p;
}
// * * * * * * * * * * * * * * * * * * * * * * * * * * * * * * * * * * * * * //

dimensions      [1 -1 -2 0 0 0 0];


internalField   nonuniform List<scalar> 
11682
(
5.18655
5.18655
5.18655
5.18655
5.18655
5.18655
5.18655
5.18655
5.18655
5.18655
5.18655
5.18655
5.18655
5.18655
5.18655
5.18655
5.18655
5.18655
5.18655
5.18655
5.18655
5.18655
5.18655
5.18655
5.18655
5.18655
5.18655
5.18655
5.18655
5.18655
5.18655
5.18655
5.18655
5.18655
5.18655
5.18655
5.18655
5.18655
5.18655
5.18655
5.18655
5.18655
5.18655
5.18655
5.18655
5.18655
5.18655
5.18655
5.18655
5.18655
5.18655
5.18655
5.18655
5.18655
5.18655
5.18655
5.18655
5.18655
5.18655
5.18655
5.18655
5.18655
5.18655
5.18655
5.18655
5.18655
5.18655
5.18655
5.18655
5.18655
5.18655
5.18655
5.18655
5.18655
5.18655
5.18655
5.18655
5.18655
5.18655
5.18655
5.18655
5.18655
5.18655
5.18655
5.18655
5.18655
5.18655
5.18655
5.18655
5.18655
5.18655
5.18655
5.18655
5.18655
5.18655
5.18655
5.18655
5.18655
5.18655
5.18655
5.18655
5.18655
5.18655
5.18655
5.18655
5.18655
5.18655
5.18655
5.18655
5.18655
5.18655
5.18655
5.18655
5.18655
5.18655
5.18655
5.18655
5.18655
5.18655
5.18655
5.18655
5.18655
5.18655
5.18655
5.18655
5.18655
5.18655
5.18655
5.18655
5.18655
5.18655
5.18655
5.18655
5.18655
5.18655
5.18655
5.18655
5.18655
5.18655
5.18655
5.18655
5.18655
5.18655
5.18655
5.18655
5.18655
5.18655
5.18655
5.18655
5.18655
5.18655
5.18655
5.18655
5.18655
5.18655
5.18655
5.18655
5.18655
5.18655
5.18655
5.18655
5.18655
5.18655
5.18655
5.18655
5.18655
5.18655
5.18655
5.18655
5.18655
5.18655
5.18655
5.18655
5.18655
5.18655
5.18655
5.18655
5.18655
5.18655
5.18655
5.18655
5.18655
5.18655
5.18655
5.18655
5.18655
5.18655
5.18655
5.18655
5.18655
5.18655
5.18655
5.18655
5.18655
5.18655
5.18655
5.18655
5.18655
5.18655
5.18655
5.18655
5.18655
5.18655
5.18655
5.18655
5.18655
5.18655
5.18655
5.18655
5.18655
5.18655
5.18655
5.18655
5.18655
5.18655
5.18655
5.18655
5.18655
5.18655
5.18655
5.18655
5.18655
5.18655
5.18655
5.18655
5.18655
5.18655
5.18655
5.18655
5.18655
5.18655
5.18655
5.18655
5.18655
5.18655
5.18655
5.18655
5.18655
5.18655
5.18655
5.18655
5.18655
5.18655
5.18655
5.18655
5.18655
5.18655
5.18655
5.18655
5.18655
5.18655
5.18655
5.18655
5.18655
5.18655
5.18655
5.18655
5.18655
5.18655
5.18655
5.18655
5.18655
5.18655
5.18655
5.18655
5.18655
5.18655
5.18655
5.18655
5.18655
5.18655
5.18655
5.18655
5.18655
5.18655
5.18655
5.18655
5.18655
5.18655
5.18655
5.18655
5.18655
5.18655
5.18655
5.18655
5.18655
5.18655
5.18655
5.18655
5.18655
5.18655
5.18655
5.18655
5.18655
5.18655
5.18655
5.18655
5.18655
5.18655
5.18655
5.18655
5.18655
5.18655
5.18655
5.18655
5.18655
5.18655
5.18655
5.18655
5.18655
5.18655
5.18655
5.18655
5.18655
5.18655
5.18655
5.18655
5.18655
5.18655
5.18655
5.18655
5.18655
5.18655
5.18655
5.18655
5.18655
5.18655
5.18655
5.18655
5.18655
5.18655
5.18655
5.18655
5.18655
5.18655
5.18655
5.18655
5.18655
5.18655
5.18655
5.18655
5.18655
5.18655
5.18655
5.18655
5.18655
5.18655
5.18655
5.18655
5.18655
5.18655
5.18655
5.18655
5.18655
5.18655
5.18655
5.18655
5.18655
5.18655
5.18655
5.18655
5.18655
5.18655
5.18655
5.18655
5.18655
5.18655
5.18655
5.18655
5.18655
5.18655
5.18655
5.18655
5.18655
5.18655
5.18655
5.18655
5.18655
5.18655
5.18655
5.18655
5.18655
5.18655
5.18655
5.18655
5.18655
5.18655
5.18655
5.18655
5.18655
5.18655
5.18655
5.18655
5.18655
5.18655
5.18655
5.186550001
5.18655
5.18655
5.18655
5.18655
5.18655
5.18655
5.18655
5.18655
5.18655
5.18655
5.18655
5.18655
5.18655
5.18655
5.18655
5.18655
5.18655
5.18655
5.18655
5.18655
5.18655
5.18655
5.18655
5.18655
5.18655
5.18655
5.18655
5.18655
5.18655
5.18655
5.18655
5.18655
5.18655
5.18655
5.18655
5.18655
5.18655
5.18655
5.18655
5.18655
5.18655
5.18655
5.18655
5.18655
5.18655
5.18655
5.18655
5.18655
5.18655
5.18655
5.18655
5.18655
5.18655
5.18655
5.18655
5.18655
5.18655
5.18655
5.18655
5.18655
5.18655
5.18655
5.18655
5.18655
5.18655
5.18655
5.18655
5.18655
5.18655
5.18655
5.18655
5.18655
5.18655
5.18655
5.18655
5.18655
5.18655
5.18655
5.18655
5.18655
5.18655
5.18655
5.18655
5.18655
5.18655
5.18655
5.18655
5.18655
5.18655
5.18655
5.18655
5.18655
5.18655
5.18655
5.18655
5.18655
5.18655
5.18655
5.186550001
5.18655
5.18655
5.18655
5.18655
5.18655
5.18655
5.18655
5.18655
5.18655
5.18655
5.18655
5.18655
5.18655
5.18655
5.18655
5.18655
5.18655
5.18655
5.18655
5.18655
5.18655
5.18655
5.18655
5.18655
5.18655
5.18655
5.18655
5.18655
5.18655
5.18655
5.18655
5.18655
5.18655
5.18655
5.18655
5.18655
5.18655
5.18655
5.18655
5.18655
5.18655
5.18655
5.18655
5.18655
5.18655
5.18655
5.18655
5.18655
5.18655
5.18655
5.18655
5.18655
5.18655
5.18655
5.18655
5.18655
5.18655
5.18655
5.18655
5.18655
5.18655
5.18655
5.18655
5.18655
5.18655
5.18655
5.18655
5.18655
5.18655
5.18655
5.18655
5.18655
5.18655
5.18655
5.18655
5.18655
5.18655
5.18655
5.18655
5.18655
5.18655
5.18655
5.18655
5.18655
5.18655
5.18655
5.18655
5.18655
5.18655
5.18655
5.18655
5.18655
5.18655
5.18655
5.18655
5.18655
5.18655
5.18655
5.186550001
5.18655
5.18655
5.18655
5.18655
5.18655
5.18655
5.18655
5.18655
5.18655
5.18655
5.18655
5.18655
5.18655
5.18655
5.18655
5.18655
5.18655
5.18655
5.18655
5.18655
5.18655
5.18655
5.18655
5.18655
5.18655
5.18655
5.18655
5.18655
5.18655
5.18655
5.18655
5.18655
5.18655
5.18655
5.18655
5.18655
5.18655
5.18655
5.18655
5.18655
5.18655
5.18655
5.18655
5.18655
5.18655
5.18655
5.18655
5.18655
5.18655
5.18655
5.18655
5.18655
5.18655
5.18655
5.18655
5.18655
5.18655
5.18655
5.18655
5.18655
5.18655
5.18655
5.18655
5.18655
5.18655
5.18655
5.18655
5.18655
5.18655
5.18655
5.18655
5.18655
5.18655
5.18655
5.18655
5.18655
5.18655
5.18655
5.18655
5.18655
5.18655
5.18655
5.18655
5.18655
5.18655
5.18655
5.18655
5.18655
5.18655
5.18655
5.18655
5.18655
5.18655
5.18655
5.18655
5.18655
5.18655
5.18655
5.186550001
5.18655
5.18655
5.18655
5.18655
5.18655
5.18655
5.18655
5.18655
5.18655
5.18655
5.18655
5.18655
5.18655
5.18655
5.18655
5.18655
5.18655
5.18655
5.18655
5.18655
5.18655
5.18655
5.18655
5.18655
5.18655
5.18655
5.18655
5.18655
5.18655
5.18655
5.18655
5.18655
5.18655
5.18655
5.18655
5.18655
5.18655
5.18655
5.18655
5.18655
5.18655
5.18655
5.18655
5.18655
5.18655
5.18655
5.18655
5.18655
5.18655
5.18655
5.18655
5.18655
5.18655
5.18655
5.18655
5.18655
5.18655
5.18655
5.18655
5.18655
5.18655
5.18655
5.18655
5.18655
5.18655
5.18655
5.18655
5.18655
5.18655
5.18655
5.18655
5.18655
5.18655
5.18655
5.18655
5.18655
5.18655
5.18655
5.18655
5.18655
5.18655
5.18655
5.18655
5.18655
5.18655
5.18655
5.18655
5.18655
5.18655
5.18655
5.18655
5.18655
5.18655
5.18655
5.18655
5.18655
5.18655
5.18655
5.186550001
5.18655
5.18655
5.18655
5.18655
5.18655
5.18655
5.18655
5.18655
5.18655
5.18655
5.18655
5.18655
5.18655
5.18655
5.18655
5.18655
5.18655
5.18655
5.18655
5.18655
5.18655
5.18655
5.18655
5.18655
5.18655
5.18655
5.18655
5.18655
5.18655
5.18655
5.18655
5.18655
5.18655
5.18655
5.18655
5.18655
5.18655
5.18655
5.18655
5.18655
5.18655
5.18655
5.18655
5.18655
5.18655
5.18655
5.18655
5.18655
5.18655
5.18655
5.18655
5.18655
5.18655
5.18655
5.18655
5.18655
5.18655
5.18655
5.18655
5.18655
5.18655
5.18655
5.18655
5.18655
5.18655
5.18655
5.18655
5.18655
5.18655
5.18655
5.18655
5.18655
5.18655
5.18655
5.18655
5.18655
5.18655
5.18655
5.18655
5.18655
5.18655
5.18655
5.18655
5.18655
5.18655
5.18655
5.18655
5.18655
5.18655
5.18655
5.18655
5.18655
5.18655
5.18655
5.18655
5.18655
5.18655
5.18655
5.186550001
5.18655
5.18655
5.18655
5.18655
5.18655
5.18655
5.18655
5.18655
5.18655
5.18655
5.18655
5.18655
5.18655
5.18655
5.18655
5.18655
5.18655
5.18655
5.18655
5.18655
5.18655
5.18655
5.18655
5.18655
5.18655
5.18655
5.18655
5.18655
5.18655
5.18655
5.18655
5.18655
5.18655
5.18655
5.18655
5.18655
5.18655
5.18655
5.18655
5.18655
5.18655
5.18655
5.18655
5.18655
5.18655
5.18655
5.18655
5.18655
5.18655
5.18655
5.18655
5.18655
5.18655
5.18655
5.18655
5.18655
5.18655
5.18655
5.18655
5.18655
5.18655
5.18655
5.18655
5.18655
5.18655
5.18655
5.18655
5.18655
5.18655
5.18655
5.18655
5.18655
5.18655
5.18655
5.18655
5.18655
5.18655
5.18655
5.18655
5.18655
5.18655
5.18655
5.18655
5.18655
5.18655
5.18655
5.18655
5.18655
5.18655
5.18655
5.18655
5.18655
5.18655
5.18655
5.18655
5.18655
5.18655
5.18655
5.186550001
5.186550001
5.18655
5.18655
5.18655
5.18655
5.18655
5.18655
5.18655
5.18655
5.18655
5.18655
5.18655
5.18655
5.18655
5.18655
5.18655
5.18655
5.18655
5.18655
5.18655
5.18655
5.18655
5.18655
5.18655
5.18655
5.18655
5.18655
5.18655
5.18655
5.18655
5.18655
5.18655
5.18655
5.18655
5.18655
5.18655
5.18655
5.18655
5.18655
5.18655
5.18655
5.18655
5.18655
5.18655
5.18655
5.18655
5.18655
5.18655
5.18655
5.18655
5.18655
5.18655
5.18655
5.18655
5.18655
5.18655
5.18655
5.18655
5.18655
5.18655
5.18655
5.18655
5.18655
5.18655
5.18655
5.18655
5.18655
5.18655
5.18655
5.18655
5.18655
5.18655
5.18655
5.18655
5.18655
5.18655
5.18655
5.18655
5.18655
5.18655
5.18655
5.18655
5.18655
5.18655
5.18655
5.18655
5.18655
5.18655
5.18655
5.18655
5.18655
5.18655
5.18655
5.18655
5.18655
5.18655
5.18655
5.18655
5.186550002
5.186550001
5.18655
5.18655
5.18655
5.18655
5.18655
5.18655
5.18655
5.18655
5.18655
5.18655
5.18655
5.18655
5.18655
5.18655
5.18655
5.18655
5.18655
5.18655
5.18655
5.18655
5.18655
5.18655
5.18655
5.18655
5.18655
5.18655
5.18655
5.18655
5.18655
5.18655
5.18655
5.18655
5.18655
5.18655
5.18655
5.18655
5.18655
5.18655
5.18655
5.18655
5.18655
5.18655
5.18655
5.18655
5.18655
5.18655
5.18655
5.18655
5.18655
5.18655
5.18655
5.18655
5.18655
5.18655
5.18655
5.18655
5.18655
5.18655
5.18655
5.18655
5.18655
5.18655
5.18655
5.18655
5.18655
5.18655
5.18655
5.18655
5.18655
5.18655
5.18655
5.18655
5.18655
5.18655
5.18655
5.18655
5.18655
5.18655
5.18655
5.18655
5.18655
5.18655
5.18655
5.18655
5.18655
5.18655
5.18655
5.18655
5.18655
5.18655
5.18655
5.18655
5.18655
5.18655
5.18655
5.18655
5.18655
5.186550002
5.186550001
5.18655
5.18655
5.18655
5.18655
5.18655
5.18655
5.18655
5.18655
5.18655
5.18655
5.18655
5.18655
5.18655
5.18655
5.18655
5.18655
5.18655
5.18655
5.18655
5.18655
5.18655
5.18655
5.18655
5.18655
5.18655
5.18655
5.18655
5.18655
5.18655
5.18655
5.18655
5.18655
5.18655
5.18655
5.18655
5.18655
5.18655
5.18655
5.18655
5.18655
5.18655
5.18655
5.18655
5.18655
5.18655
5.18655
5.18655
5.18655
5.18655
5.18655
5.18655
5.18655
5.18655
5.18655
5.18655
5.18655
5.18655
5.18655
5.18655
5.18655
5.18655
5.18655
5.18655
5.18655
5.18655
5.18655
5.18655
5.18655
5.18655
5.18655
5.18655
5.18655
5.18655
5.18655
5.18655
5.18655
5.18655
5.18655
5.18655
5.18655
5.18655
5.18655
5.18655
5.18655
5.18655
5.18655
5.18655
5.18655
5.18655
5.18655
5.18655
5.18655
5.18655
5.18655
5.18655
5.18655
5.18655
5.186550002
5.186550001
5.18655
5.18655
5.18655
5.18655
5.18655
5.18655
5.18655
5.18655
5.18655
5.18655
5.18655
5.18655
5.18655
5.18655
5.18655
5.18655
5.18655
5.18655
5.18655
5.18655
5.18655
5.18655
5.18655
5.18655
5.18655
5.18655
5.18655
5.18655
5.18655
5.18655
5.18655
5.18655
5.18655
5.18655
5.18655
5.18655
5.18655
5.18655
5.18655
5.18655
5.18655
5.18655
5.18655
5.18655
5.18655
5.18655
5.18655
5.18655
5.18655
5.18655
5.18655
5.18655
5.18655
5.18655
5.18655
5.18655
5.18655
5.18655
5.18655
5.18655
5.18655
5.18655
5.18655
5.18655
5.18655
5.18655
5.18655
5.18655
5.18655
5.18655
5.18655
5.18655
5.18655
5.18655
5.18655
5.18655
5.18655
5.18655
5.18655
5.18655
5.18655
5.18655
5.18655
5.18655
5.18655
5.18655
5.18655
5.18655
5.18655
5.18655
5.18655
5.18655
5.18655
5.18655
5.18655
5.18655
5.18655
5.186550002
5.186550001
5.18655
5.18655
5.18655
5.18655
5.18655
5.18655
5.18655
5.18655
5.18655
5.18655
5.18655
5.18655
5.18655
5.18655
5.18655
5.18655
5.18655
5.18655
5.18655
5.18655
5.18655
5.18655
5.18655
5.18655
5.18655
5.18655
5.18655
5.18655
5.18655
5.18655
5.18655
5.18655
5.18655
5.18655
5.18655
5.18655
5.18655
5.18655
5.18655
5.18655
5.18655
5.18655
5.18655
5.18655
5.18655
5.18655
5.18655
5.18655
5.18655
5.18655
5.18655
5.18655
5.18655
5.18655
5.18655
5.18655
5.18655
5.18655
5.18655
5.18655
5.18655
5.18655
5.18655
5.18655
5.18655
5.18655
5.18655
5.18655
5.18655
5.18655
5.18655
5.18655
5.18655
5.18655
5.18655
5.18655
5.18655
5.18655
5.18655
5.18655
5.18655
5.18655
5.18655
5.18655
5.18655
5.18655
5.18655
5.18655
5.18655
5.18655
5.18655
5.18655
5.18655
5.18655
5.18655
5.18655
5.18655
5.186550002
5.186550001
5.18655
5.18655
5.18655
5.18655
5.18655
5.18655
5.18655
5.18655
5.18655
5.18655
5.18655
5.18655
5.18655
5.18655
5.18655
5.18655
5.18655
5.18655
5.18655
5.18655
5.18655
5.18655
5.18655
5.18655
5.18655
5.18655
5.18655
5.18655
5.18655
5.18655
5.18655
5.18655
5.18655
5.18655
5.18655
5.18655
5.18655
5.18655
5.18655
5.18655
5.18655
5.18655
5.18655
5.18655
5.18655
5.18655
5.18655
5.18655
5.18655
5.18655
5.18655
5.18655
5.18655
5.18655
5.18655
5.18655
5.18655
5.18655
5.18655
5.18655
5.18655
5.18655
5.18655
5.18655
5.18655
5.18655
5.18655
5.18655
5.18655
5.18655
5.18655
5.18655
5.18655
5.18655
5.18655
5.18655
5.18655
5.18655
5.18655
5.18655
5.18655
5.18655
5.18655
5.18655
5.18655
5.18655
5.18655
5.18655
5.18655
5.18655
5.18655
5.18655
5.18655
5.18655
5.18655
5.18655
5.18655
5.186550002
5.186550001
5.18655
5.18655
5.18655
5.18655
5.18655
5.18655
5.18655
5.18655
5.18655
5.18655
5.18655
5.18655
5.18655
5.18655
5.18655
5.18655
5.18655
5.18655
5.18655
5.18655
5.18655
5.18655
5.18655
5.18655
5.18655
5.18655
5.18655
5.18655
5.18655
5.18655
5.18655
5.18655
5.18655
5.18655
5.18655
5.18655
5.18655
5.18655
5.18655
5.18655
5.18655
5.18655
5.18655
5.18655
5.18655
5.18655
5.18655
5.18655
5.18655
5.18655
5.18655
5.18655
5.18655
5.18655
5.18655
5.18655
5.18655
5.18655
5.18655
5.18655
5.18655
5.18655
5.18655
5.18655
5.18655
5.18655
5.18655
5.18655
5.18655
5.18655
5.18655
5.18655
5.18655
5.18655
5.18655
5.18655
5.18655
5.18655
5.18655
5.18655
5.18655
5.18655
5.18655
5.18655
5.18655
5.18655
5.18655
5.18655
5.18655
5.18655
5.18655
5.18655
5.18655
5.18655
5.18655
5.18655
5.18655
5.186550002
5.186550001
5.18655
5.18655
5.18655
5.18655
5.18655
5.18655
5.18655
5.18655
5.18655
5.18655
5.18655
5.18655
5.18655
5.18655
5.18655
5.18655
5.18655
5.18655
5.18655
5.18655
5.18655
5.18655
5.18655
5.18655
5.18655
5.18655
5.18655
5.18655
5.18655
5.18655
5.18655
5.18655
5.18655
5.18655
5.18655
5.18655
5.18655
5.18655
5.18655
5.18655
5.18655
5.18655
5.18655
5.18655
5.18655
5.18655
5.18655
5.18655
5.18655
5.18655
5.18655
5.18655
5.18655
5.18655
5.18655
5.18655
5.18655
5.18655
5.18655
5.18655
5.18655
5.18655
5.18655
5.18655
5.18655
5.18655
5.18655
5.18655
5.18655
5.18655
5.18655
5.18655
5.18655
5.18655
5.18655
5.18655
5.18655
5.18655
5.18655
5.18655
5.18655
5.18655
5.18655
5.18655
5.18655
5.18655
5.18655
5.18655
5.18655
5.18655
5.18655
5.18655
5.18655
5.18655
5.18655
5.18655
5.18655
5.186550003
5.186550001
5.186550001
5.18655
5.18655
5.18655
5.18655
5.18655
5.18655
5.18655
5.18655
5.18655
5.18655
5.18655
5.18655
5.18655
5.18655
5.18655
5.18655
5.18655
5.18655
5.18655
5.18655
5.18655
5.18655
5.18655
5.18655
5.18655
5.18655
5.18655
5.18655
5.18655
5.18655
5.18655
5.18655
5.18655
5.18655
5.18655
5.18655
5.18655
5.18655
5.18655
5.18655
5.18655
5.18655
5.18655
5.18655
5.18655
5.18655
5.18655
5.18655
5.18655
5.18655
5.18655
5.18655
5.18655
5.18655
5.18655
5.18655
5.18655
5.18655
5.18655
5.18655
5.18655
5.18655
5.18655
5.18655
5.18655
5.18655
5.18655
5.18655
5.18655
5.18655
5.18655
5.18655
5.18655
5.18655
5.18655
5.18655
5.18655
5.18655
5.18655
5.18655
5.18655
5.18655
5.18655
5.18655
5.18655
5.18655
5.18655
5.18655
5.18655
5.18655
5.18655
5.18655
5.18655
5.18655
5.18655
5.18655
5.186550003
5.186550001
5.186550001
5.18655
5.18655
5.18655
5.18655
5.18655
5.18655
5.18655
5.18655
5.18655
5.18655
5.18655
5.18655
5.18655
5.18655
5.18655
5.18655
5.18655
5.18655
5.18655
5.18655
5.18655
5.18655
5.18655
5.18655
5.18655
5.18655
5.18655
5.18655
5.18655
5.18655
5.18655
5.18655
5.18655
5.18655
5.18655
5.18655
5.18655
5.18655
5.18655
5.18655
5.18655
5.18655
5.18655
5.18655
5.18655
5.18655
5.18655
5.18655
5.18655
5.18655
5.18655
5.18655
5.18655
5.18655
5.18655
5.18655
5.18655
5.18655
5.18655
5.18655
5.18655
5.18655
5.18655
5.18655
5.18655
5.18655
5.18655
5.18655
5.18655
5.18655
5.18655
5.18655
5.18655
5.186550001
5.186550001
5.186550003
5.186550003
5.186550006
5.186550007
5.18655001
5.186550012
5.186550013
5.186550013
5.186550013
5.186550013
5.186550012
5.186550012
5.186550012
5.186550012
5.186550012
5.186550012
5.186550012
5.186550012
5.186550012
5.186550012
5.186550012
5.186550006
5.186550004
5.186550003
5.186550002
5.186550002
5.186550002
5.186550001
5.186550001
5.186550001
5.186550001
5.186550001
5.18655
5.18655
5.18655
5.18655
5.18655
5.18655
5.18655
5.18655
5.18655
5.18655
5.18655
5.18655
5.18655
5.18655
5.18655
5.18655
5.18655
5.18655
5.18655
5.18655
5.18655
5.18655
5.18655
5.18655
5.18655
5.18655
5.18655
5.18655
5.18655
5.18655
5.18655
5.18655
5.18655
5.18655
5.18655
5.18655
5.18655
5.18655
5.18655
5.18655
5.18655
5.18655
5.18655
5.18655
5.18655
5.18655
5.18655
5.18655
5.18655
5.18655
5.18655
5.18655
5.18655
5.18655
5.18655
5.18655
5.18655
5.186550001
5.186550001
5.186550002
5.186550005
5.186550005
5.186550013
5.18655002
5.186550038
5.186550069
5.186550118
5.186550243
5.186550255
5.186550406
5.186550494
5.186550647
5.186550729
5.186550746
5.186550739
5.186550705
5.186550669
5.186550649
5.186550652
5.186550659
5.186550662
5.186550659
5.186550652
5.18655064
5.186550625
5.186550609
5.186550592
5.186550568
5.186550216
5.186550197
5.186550163
5.18655013
5.186550112
5.186550094
5.186550077
5.186550059
5.186550048
5.186550039
5.186550031
5.186550023
5.186550018
5.186550014
5.186550011
5.186550009
5.186550007
5.186550006
5.186550005
5.186550003
5.186550003
5.186550002
5.186550002
5.186550001
5.186550001
5.186550001
5.186550001
5.186550001
5.18655
5.18655
5.18655
5.18655
5.18655
5.18655
5.18655
5.18655
5.18655
5.18655
5.18655
5.18655
5.18655
5.18655
5.18655
5.18655
5.18655
5.18655
5.18655
5.18655
5.18655
5.18655
5.18655
5.18655
5.18655
5.18655
5.18655
5.18655
5.18655
5.186550001
5.186550001
5.186550001
5.186550002
5.186550002
5.186550004
5.186550006
5.186550007
5.186550012
5.186550018
5.186550032
5.186550073
5.186550094
5.186550214
5.186550394
5.186550481
5.186551062
5.186551718
5.186553139
5.186555495
5.186559498
5.186567453
5.186568936
5.186578903
5.186585063
5.186594033
5.186597596
5.186597377
5.186595739
5.186592262
5.186590269
5.186589983
5.186590497
5.186590502
5.186590221
5.186589608
5.186588651
5.186587405
5.186585959
5.186584381
5.186582684
5.186580721
5.186566591
5.186565293
5.186562578
5.186559916
5.186558506
5.186557135
5.186555821
5.186554395
5.186553583
5.186552892
5.186552257
5.186551637
5.186551282
5.186551027
5.18655079
5.186550593
5.186550473
5.186550382
5.186550306
5.186550222
5.186550174
5.186550145
5.186550121
5.186550089
5.186550072
5.186550059
5.186550046
5.186550035
5.186550028
5.186550024
5.186550021
5.186550016
5.186550014
5.186550013
5.186550012
5.186550012
5.18655001
5.186550008
5.186550008
5.186550007
5.186550008
5.186550008
5.186550007
5.186550006
5.186550006
5.186550006
5.186550007
5.186550007
5.186550007
5.186550008
5.186550009
5.18655001
5.186550014
5.186550014
5.186550021
5.186550026
5.186550036
5.18655006
5.186550077
5.186550099
5.186550161
5.186550187
5.186550322
5.18655047
5.186550568
5.186551001
5.186551557
5.186552869
5.186555885
5.186558201
5.186567385
5.186580142
5.186589508
5.186633124
5.186687004
5.186795331
5.186974171
5.187279548
5.187819832
5.187969971
5.188640306
5.189089151
5.189659572
5.189832156
5.189782202
5.189618649
5.18931826
5.189188978
5.189211455
5.189233824
5.18922159
5.189183202
5.189122331
5.189036078
5.188929495
5.188812541
5.188688912
5.188559619
5.188405641
5.187908532
5.187800872
5.18757607
5.187353021
5.187237711
5.18712557
5.187017273
5.186900948
5.18683751
5.186781377
5.186728214
5.186677698
5.18664985
5.186629598
5.186610881
5.186595294
5.186586137
5.186579065
5.186573207
5.186566669
5.186563106
5.186560879
5.186558929
5.186556499
5.186555218
5.186554289
5.186553338
5.186552493
5.186551984
5.186551728
5.18655149
5.186551108
5.186550933
5.186550888
5.186550855
5.186550792
5.186550658
5.186550549
5.186550523
5.186550532
5.186550539
5.186550521
5.186550463
5.186550427
5.186550438
5.186550425
5.186550468
5.186550505
5.186550495
5.186550591
5.186550641
5.186550757
5.186551049
5.186551097
5.186551627
5.186551998
5.186552911
5.186554682
5.186555985
5.18655794
5.186562449
5.186565085
5.18657529
5.18658613
5.186595982
5.186630746
5.18667929
5.186788517
5.187016723
5.187227565
5.187919556
5.188873934
5.189703691
5.19292333
5.197291961
5.205535812
5.219188883
5.242611819
5.281637419
5.296047806
5.342941808
5.376962947
5.414791426
5.424362488
5.419423984
5.405366663
5.380252617
5.371483042
5.374050052
5.374605912
5.373036729
5.369293895
5.364041808
5.356843635
5.348250031
5.339194288
5.329835332
5.320108815
5.308514569
5.3038701
5.294487675
5.274954853
5.255499156
5.245488354
5.23578446
5.226373179
5.216361358
5.210981746
5.206146152
5.201536241
5.197209029
5.194864996
5.193143551
5.191583269
5.190265573
5.18951086
5.188923357
5.188435179
5.187901081
5.187608609
5.187427796
5.187262639
5.187066273
5.186962695
5.186888225
5.186812084
5.186742785
5.186703541
5.186684192
5.186664174
5.186633693
5.186621137
5.186618533
5.186615856
5.186610214
5.186599199
5.186591032
5.186590007
5.186592075
5.186591492
5.186589448
5.186584379
5.186582058
5.186583187
5.186582287
5.186585763
5.186588324
5.186587734
5.186595452
5.186599774
5.186609797
5.186631536
5.186637687
5.186679737
5.186710908
5.186788709
5.186925392
5.187031389
5.187193337
5.187537854
5.187780608
5.188558834
5.189411647
5.190277538
5.193015095
5.197131095
5.206017921
5.223833759
5.242437194
5.295976533
5.370892061
5.442935637
5.68044692
6.027860734
6.6158558
7.534904042
8.982652317
11.04503437
11.90482158
13.96437653
15.45820149
16.83708817
17.11045699
16.85977709
16.22350637
15.05245065
14.74845305
14.86525043
14.86071802
14.76187275
14.56109458
14.30591651
13.95947067
13.55281185
13.11566236
12.6673975
12.2184858
11.70781644
13.01154618
12.49435585
11.37993039
10.20493772
9.570011626
8.933448055
8.287612994
7.575362205
7.175674911
6.805861792
6.442676661
6.091813918
5.898432252
5.752709565
5.621782306
5.507595476
5.443210394
5.392024549
5.34917483
5.303386513
5.277621253
5.261980967
5.247341377
5.230602549
5.221543407
5.215142883
5.208620675
5.202630034
5.199331157
5.197733729
5.195985267
5.193428484
5.192395234
5.192212417
5.191981251
5.191478715
5.19054557
5.189865395
5.189818226
5.18997613
5.189934435
5.189711903
5.189296484
5.189133998
5.189234906
5.189167541
5.189445128
5.189641886
5.189611347
5.190231045
5.190614955
5.191456726
5.193174073
5.193810324
5.197156113
5.200706985
5.206537009
5.217443813
5.226536987
5.240098228
5.267651675
5.290090723
5.351555094
5.421938552
5.496571687
5.712070363
6.05190446
6.723002498
7.93077115
9.207150329
12.1191218
15.72018857
18.994424
27.13244618
37.62189334
51.32151385
68.90643406
91.5454324
117.6040746
127.6321763
148.3623199
162.4087005
173.5885979
174.9427552
171.9940558
164.9249145
153.2070716
150.7965001
151.8994126
151.6128354
150.2067366
147.7688689
144.651587
140.7703892
136.3685619
131.6436916
126.7476777
121.7684741
116.7046421
150.6156526
144.601445
131.0259768
115.5913652
106.612062
97.07424119
86.63714724
74.12450914
66.37871674
58.65951084
50.29994773
41.3130427
35.73980146
31.18203084
26.74005198
22.37997944
19.73002483
17.43993184
15.36012048
13.01592965
11.54334399
10.61102663
9.686166739
8.59270435
7.949303729
7.484310416
6.993698532
6.524022361
6.262184974
6.134837383
5.986998692
5.775745426
5.687881555
5.67413785
5.65397018
5.609396679
5.529411149
5.469902356
5.467874077
5.481003807
5.478807064
5.461723581
5.420646811
5.40744201
5.41597254
5.410705911
5.433320574
5.449353156
5.448494357
5.498158447
5.532855176
5.603614863
5.741550435
5.803049457
6.064408842
6.354549138
6.810846678
7.572134825
8.221183556
9.117505699
10.73203041
12.11037624
15.10228851
18.30210354
21.48433556
28.93957158
39.28542098
55.23325127
77.72693861
98.28078285
134.8109466
172.5548837
202.8149446
265.5711203
334.8183366
410.1828125
495.2464662
592.228334
691.3181004
722.9044403
794.8995447
838.1751709
870.6165915
872.3075531
858.4379373
830.8607758
788.7853555
781.3950385
785.7749135
783.7087661
776.4157243
765.8832974
753.6034149
739.0392747
722.751313
705.3874815
687.4019966
669.252616
650.9625189
872.2917833
849.5872765
797.8779934
736.109226
698.5372866
657.8307063
611.207257
552.8748213
513.2432192
473.5291452
428.3540931
375.8900083
340.0916677
309.1125628
276.4209725
241.7325244
218.5855917
197.5231856
176.7268808
151.4085848
133.5270126
121.386529
108.56763
92.00160101
81.00044177
72.38616655
62.70373084
52.25116451
45.77929576
42.47611025
38.28610904
31.91302472
28.98285758
28.57680848
27.84957314
26.2036289
23.19160273
20.74040399
20.74276544
21.26926076
21.1833022
20.41742805
18.59592972
18.04854536
18.42268
18.20904535
19.1598701
19.81308977
19.84639313
21.79325238
23.23244296
25.85797004
30.46230393
32.64277058
40.03526185
47.69108339
58.31399819
72.89428413
84.43088529
98.47812592
120.4672594
138.1907264
170.0955419
200.8312112
228.6808013
285.1855641
353.4662207
442.3216999
550.1294113
636.5690777
778.9876052
910.5254671
1004.893506
1210.689541
1437.679125
1681.207523
1956.449069
2265.687925
2597.99863
2676.957933
2906.61765
3027.389263
3119.256265
3131.612838
3075.925699
2986.248504
2837.517957
2816.933229
2832.961768
2830.16618
2801.344174
2763.016337
2721.551103
2674.645891
2623.729888
2570.207201
2515.776652
2461.789684
2403.833952
3081.432415
3016.014524
2871.464263
2695.116571
2594.516135
2474.004116
2332.708213
2152.060707
2034.654463
1910.856031
1765.498061
1597.988822
1484.207973
1389.340379
1291.063412
1183.322559
1108.667396
1038.840261
966.968672
876.0986831
807.9523081
760.4545311
707.9254364
636.8435623
586.2416588
545.3428026
495.6618666
440.4074994
403.394151
383.6537457
357.362733
314.9087197
293.8904745
291.4393997
285.8205257
272.7926278
248.689136
227.2301878
228.2183754
232.7746947
231.7211926
224.4314098
207.7072419
202.94433
206.44254
204.4834651
213.0093224
218.5416464
219.154911
235.6248538
247.8491287
268.4718375
302.0110689
317.180322
364.4838944
409.8030903
468.031142
538.4079494
590.9627752
652.4173729
741.9861191
808.6127816
923.2650602
1026.251894
1111.907324
1300.179544
1526.90339
1819.046685
2180.925364
2454.138595
2911.91522
3328.952956
3594.600339
4072.563229
4401.696045
4681.026343
4959.486032
5222.762669
5470.795575
5498.758527
5627.885392
5674.776708
5697.829144
5685.406771
5635.239361
5557.611128
5429.362632
5388.206202
5376.682837
5359.748192
5330.59641
5290.869672
5248.627543
5203.409143
5155.83314
5109.248947
5061.929669
5018.135651
4968.301671
6552.737625
6497.308951
6372.744474
6191.467113
6094.587136
5982.442305
5850.213652
5655.339566
5531.729357
5396.492342
5225.86389
4995.948036
4839.462673
4655.800375
4396.736064
4096.721866
3890.726419
3693.552592
3481.767922
3207.115042
2998.687991
2857.351083
2699.647445
2474.635366
2312.516257
2182.830981
2024.02695
1838.45358
1714.769254
1651.494219
1564.480553
1419.957676
1349.545975
1345.233103
1325.434447
1283.960579
1207.071681
1136.650258
1143.540499
1158.508387
1153.716765
1127.916773
1070.674193
1056.029768
1069.0845
1060.621214
1089.580066
1106.544238
1107.378701
1162.004588
1199.556134
1264.256568
1383.431427
1426.798317
1592.71092
1748.28202
1937.66649
2181.242322
2358.366236
2554.449617
2857.363416
3061.132897
3427.347947
3747.286288
3980.688185
4353.113837
4664.329318
4997.827842
5363.468052
5589.889854
5929.734688
6184.779607
6313.657294
6527.825424
6654.883704
6734.757129
6811.137586
6863.014808
6901.141615
6867.919387
6866.512494
6836.668914
6795.765924
6755.934499
6706.782053
6661.701521
6576.858578
6527.114391
6493.325199
6463.394387
6432.777392
6401.628439
6369.781184
6335.586293
6301.327341
6268.472985
6236.924098
6209.122174
6181.254953
8414.041195
8396.484723
8356.132948
8280.139042
8237.694449
8197.137188
8144.336347
8051.760246
7986.968853
7928.451499
7845.76853
7730.150597
7645.471708
7563.595894
7433.465045
7255.403909
7126.637089
7003.072717
6870.977402
6665.349457
6490.898924
6380.440366
6243.520799
6028.826968
5860.360054
5730.822881
5553.713984
5330.55908
5168.827803
5090.472428
4975.851378
4768.370035
4654.505392
4661.281135
4626.22035
4511.523428
4291.491247
4082.603773
4126.554562
4175.770666
4160.745318
4077.949889
3904.199775
3868.01235
3923.315408
3886.79538
3979.204087
4031.615314
4026.507265
4191.63693
4297.890912
4453.761333
4641.913859
4680.94617
4889.464798
5089.715974
5301.875907
5534.080758
5706.405482
5866.435033
6107.131283
6246.448504
6451.199296
6631.596874
6742.602435
6898.210254
7024.964445
7131.873071
7246.847658
7300.826334
7379.549386
7424.573343
7423.971643
7451.801652
7461.064463
7436.999469
7414.387782
7371.35228
7322.443719
7266.495816
7215.5392
7157.079446
7094.150201
7041.4192
6991.789175
6948.657123
6895.648533
6843.585993
6798.63949
6760.290396
6727.302685
6697.742911
6670.472451
6642.238381
6613.545047
6585.118531
6561.272994
6540.156794
6520.892542
8967.580939
8966.291695
8960.121885
8932.409566
8920.680109
8914.198406
8900.551185
8869.003438
8845.172042
8832.00476
8808.04564
8765.250678
8731.607426
8711.094257
8671.434526
8608.76807
8559.973792
8521.463807
8480.07641
8400.705338
8325.800293
8287.770299
8243.896029
8150.614637
8069.06998
8017.149825
7943.615766
7835.816949
7751.375937
7712.144058
7668.134133
7556.665902
7478.865484
7488.921472
7468.981956
7411.737837
7292.589903
7160.187261
7165.939069