/*--------------------------------*- C++ -*----------------------------------*\
| =========                 |                                                 |
| \\      /  F ield         | OpenFOAM: The Open Source CFD Toolbox           |
|  \\    /   O peration     | Version:  v1706                                 |
|   \\  /    A nd           | Web:      www.OpenFOAM.com                      |
|    \\/     M anipulation  |                                                 |
\*---------------------------------------------------------------------------*/
FoamFile
{
    version     2.0;
    format      ascii;
    class       volScalarField;
    location    "0.00272";
    object      Tt;
}
// * * * * * * * * * * * * * * * * * * * * * * * * * * * * * * * * * * * * * //

dimensions      [0 0 0 1 0 0 0];


internalField   nonuniform List<scalar> 
11682
(
210
210
210
210
210
210
210
210
210
210
210
210
210
210
210
210
210
210
210
210
210
210
210
210
210
210
210
210
210
210
210
210
210
210
210
210
210
210
210
210
210
210
210
210
210
210
210
210
210
210
210
210
210
210
210
210
210
210
210
210
210
210
210
210
210
210
210
210
210
210
210
210
210
210
210
210
210
210
210
210
210
210
210
210
210
210
210
210
210
210
210
210
210
210
210
210
210
210
210
210
210
210
210
210
210
210
210
210
210
210
210
210
210
210
210
210
210
210
210
210
210
210
210
210
210
210
210
210
210
210
210
210
210
210
210
210
210
210
210
210
210
210
210
210
210
210
210
210
210
210
210
210
210
210
210
210
210
210
210
210
210
210
210
210
210
210
210
210
210
210
210
210
210
210
210
210
210
210
210
210
210
210
210
210
210
210
210
210
210
210
210
210
210
210
210
210
210
210
210
210
210
210
210
210
210
210
210
210
210
210
210
210
210
210
210
210
210
210
210
210
210
210
210
210
210
210
210
210
210
210
210
210
210
210
210
210
210
210
210
210
210
210
210
210
210
210
210
210
210
210
210
210
210
210
210
210
210
210
210
210
210
210
210
210
210
210
210
210
210
210
210
210
210
210
210
210
210
210
210
210
210
210
210
210
210
210
210
210
210
210
210
210
210
210
210
210
210
210
210
210
210
210
210
210
210
210
210
210
210
210
210
210
210
210
210
210
210
210
210
210
210
210
210
210
210
210
210
210
210
210
210
210
210
210
210
210
210
210
210
210
210
210
210
210
210
210
210
210
210
210
210
210
210
210
210
210
210
210
210
210
210
210
210
210
210
210
210
210
210
210
210
210
210
210
210
210
210
210
210
210
210
210
210
210
210
210
210
210
210
210
210
210
210
210
210
210
210
210
210
210
210
210
210
210
210
210
210
210
210
210
210
210
210
210
210
210
210
210
210
210
210
210
210
210
210
210
210
210
210
210
210
210
210
210
210
210
210
210
210
210
210
210
210
210
210
210
210
210
210
210
210
210
210
210
210
210
210
210
210
210
210
210
210
210
210
210
210
210
210
210
210
210
210
210
210
210
210
210
210
210
210
210
210
210
210
210
210
210
210
210
210
210
210
210
210
210
210
210
210
210
210
210
210
210
210
210
210
210
210
210
210
210
210
210
210
210
210
210
210
210
210
210
210
210
210
210
210
210
210
210
210
210
210
210
210
210
210
210
210
210
210
210
210
210
210
210
210
210
210
210
210
210
210
210
210
210
210
210
210
210
210
210
210
210
210
210
210
210
210
210
210
210
210
210
210
210
210
210
210
210
210
210
210
210
210
210
210
210
210
210
210
210
210
210
210
210
210
210
210
210
210
210
210
210
210
210
210
210
210
210
210
210
210
210
210
210
210
210
210
210
210
210
210
210
210
210
210
210
210
210
210
210
210
210
210
210
210
210
210
210
210
210
210
210
210
210
210
210
210
210
210
210
210
210
210
210
210
210
210
210
210
210
210
210
210
210
210
210
210
210
210
210
210
210
210
210
210
210
210
210
210
210
210
210
210
210
210
210
210
210
210
210
210
210
210
210
210
210
210
210
210
210
210
210
210
210
210
210
210
210
210
210
210
210
210
210
210
210
210
210
210
210
210
210
210
210
210
210
210
210
210
210
210
210
210
210
210
210
210
210
210
210
210
210
210
210
210
210
210
210
210
210
210
210
210
210
210
210
210
210
210
210
210
210
210
210
210
210
210
210
210
210
210
210
210
210
210
210
210
210
210
210
210
210
210
210
210
210
210
210
210
210
210
210
210
210
210
210
210
210
210
210
210
210
210
210
210
210
210
210
210
210
210
210
210
210
210
210
210
210
210
210
210
210
210
210
210
210
210
210
210
210
210
210
210
210
210
210
210
210
210
210
210
210
210
210
210
210
210
210
210
210
210
210
210
210
210
210
210
210
210
210
210
210
210
210
210
210
210
210
210
210
210
210
210
210
210
210
210
210
210
210
210
210
210
210
210
210
210
210
210
210
210
210
210
210
210
210
210
210
210
210
210
210
210
210
210
210
210
210
210
210
210
210
210
210
210
210
210
210
210
210
210
210
210
210
210
210
210
210
210
210
210
210
210
210
210
210
210
210
210
210
210
210
210
210
210
210
210
210
210
210
210
210
210
210
210
210
210
210
210
210
210
210
210
210
210
210
210
210
210
210
210
210
210
210
210
210
210
210
210
210
210
210
210
210
210
210
210
210
210
210
210
210
210
210
210
210
210
210
210
210
210
210
210
210
210
210
210
210
210
210
210
210
210
210
210
210
210
210
210
210
210
210
210
210
210
210
210
210
210
210
210
210
210
210
210
210
210
210
210
210
210
210
210
210
210
210
210
210
210
210
210
210
210
210
210
210
210
210
210
210
210
210
210
210
210
210
210
210
210
210
210
210
210
210
210
210
210
210
210
210
210
210
210
210
210
210
210
210
210
210
210
210
210
210
210
210
210
210
210
210
210
210
210
210
210
210
210
210
210
210
210
210
210
210
210
210
210
210
210
210
210
210
210
210
210
210
210
210
210
210
210
210
210
210
210
210
210
210
210
210
210
210
210
210
210
210
210
210
210
210
210
210
210
210
210
210
210
210
210
210
210
210
210
210
210
210
210
210
210
210
210
210
210
210
210
210
210
210
210
210
210
210
210
210
210
210
210
210
210
210
210
210
210
210
210
210
210
210
210
210
210
210
210
210
210
210
210
210
210
210
210
210
210
210
210
210
210
210
210
210
210
210
210
210
210
210
210
210
210
210
210
210
210
210
210
210
210
210
210
210
210
210
210
210
210
210
210
210
210
210
210
210
210
210
210
210
210
210
210
210
210
210
210
210
210
210
210
210
210
210
210
210
210
210
210
210
210
210
210
210
210
210
210
210
210
210
210
210
210
210
210
210
210
210
210
210
210
210
210
210
210
210
210
210
210
210
210
210
210
210
210
210
210
210
210
210
210
210
210
210
210
210
210
210
210
210
210
210
210
210
210
210
210
210
210
210
210
210
210
210
210
210
210
210
210
210
210
210
210
210
210
210
210
210
210
210
210
210
210
210
210
210
210
210
210
210
210
210
210
210
210
210
210
210
210
210
210
210
210
210
210
210
210
210
210
210
210
210
210
210
210
210
210
210
210
210
210
210
210
210
210
210
210
210
210
210
210
210
210
210
210
210
210
210
210
210
210
210
210
210
210
210
210
210
210
210
210
210
210
210
210
210
210
210
210
210
210
210
210
210
210
210
210
210
210
210
210
210
210
210
210
210
210
210
210
210
210
210
210
210
210
210
210
210
210
210
210
210
210
210
210
210
210
210
210
210
210
210
210
210
210
210
210
210
210
210
210
210
210
210
210
210
210
210
210
210
210
210
210
210
210
210
210
210
210
210
210
210
210
210
210
210
210
210
210
210
210
210
210
210
210
210
210
210
210
210
210
210
210
210
210
210
210
210
210
210
210
210
210
210
210
210
210
210
210
210
210
210
210
210
210
210
210
210
210
210
210
210
210
210
210
210
210
210
210
210
210
210
210
210
210
210
210
210
210
210
210
210
210
210
210
210
210
210
210
210
210
210
210
210
210
210
210
210
210
210
210
210
210
210
210
210
210
210
210
210
210
210
210
210
210
210
210
210
210
210
210
210
210
210
210
210
210
210
210
210
210
210
210
210
210
210
210
210
210
210
210
210
210
210
210
210
210
210
210
210
210
210
210
210
210
210
210
210
210
210
210
210
210
210
210
210
210
210
210
210
210
210
210
210
210
210
210
210
210
210
210
210
210
210
210
210
210
210
210
210
210
210
210
210
210
210
210
210
210
210
210
210
210
210
210
210
210
210
210
210
210
210
210
210
210
210
210
210
210
210
210
210
210
210
210
210
210
210
210
210
210
210
210
210
210
210
210
210
210
210
210
210
210
210
210
210
210
210
210
210
210
210
210
210
210
210
210
210
210
210
210
210
210
210
210
210
210
210
210
210
210
210
210
210
210
210
210
210
210
210
210
210
210
210
210
210
210
210
210
210
210
210
210
210
210
210
210
210
210
210
210
210
210
210
210
210
210
210
210
210
210
210
210
210
210
210
210
210
210
210
210
210
210
210
210
210
210
210
210
210
210
210
210
210
210
210
210
210
210
210
210
210
210
210
210
210
210
210
210
210
210
210
210
210
210
210
210
210
210
210
210
210
210
210
210
210
210
210
210
210
210
210
210
210
210
210
210
210
210
210
210
210
210
210
210
210
210
210
210
210
210
210
210
210
210
210
210
210
210
210
210
210
210
210
210
210
210
210
210
210
210
210
210
210
210
210
210
210
210
210
210
210
210
210
210
210
210
210
210
210
210
210
210
210
210
210
210
210
210
210
210
210
210
210
210
210
210
210
210
210
210
210
210
210
210
210
210
210
210
210
210
210.0000001
210.0000001
210.0000001
210.0000002
210.0000003
210.0000003
210.0000004
210.0000004
210.0000004
210.0000004
210.0000003
210.0000003
210.0000003
210.0000003
210.0000004
210.0000004
210.0000004
210.0000004
210.0000004
210.0000004
210.0000004
210.0000001
210.0000001
210.0000001
210.0000001
210
210
210
210
210
210
210
210
210
210
210
210
210
210
210
210
210
210
210
210
210
210
210
210
210
210
210
210
210
210
210
210
210
210
210
210
210
210
210
210
210
210
210
210
210
210
210
210
210
210
210
210
210
210
210
210
210
210
210
210
210
210
210
210
210
210
210
210.0000001
210.0000001
210.0000003
210.0000005
210.0000011
210.000002
210.0000036
210.000008
210.0000082
210.0000134
210.0000164
210.0000219
210.0000248
210.0000255
210.0000253
210.0000241
210.0000228
210.0000219
210.000022
210.0000223
210.0000224
210.0000223
210.0000221
210.0000217
210.0000212
210.0000206
210.00002
210.0000193
210.0000072
210.0000066
210.0000054
210.0000043
210.0000037
210.0000031
210.0000025
210.0000019
210.0000015
210.0000012
210.000001
210.0000007
210.0000005
210.0000004
210.0000003
210.0000003
210.0000002
210.0000002
210.0000001
210.0000001
210.0000001
210.0000001
210
210
210
210
210
210
210
210
210
210
210
210
210
210
210
210
210
210
210
210
210
210
210
210
210
210
210
210
210
210
210
210
210
210
210
210
210
210
210
210
210.0000001
210.0000002
210.0000002
210.0000003
210.0000005
210.0000009
210.0000022
210.0000028
210.0000069
210.0000132
210.0000159
210.0000369
210.0000602
210.0001123
210.0001994
210.0003488
210.0006484
210.0007007
210.001078
210.0013091
210.0016505
210.0017851
210.0017757
210.001713
210.0015802
210.0015036
210.0014904
210.0015097
210.0015097
210.0014988
210.0014753
210.0014388
210.0013913
210.0013363
210.0012764
210.001212
210.0011382
210.0006224
210.0005734
210.0004707
210.0003696
210.0003164
210.0002646
210.0002151
210.0001616
210.0001314
210.0001056
210.0000819
210.000059
210.0000459
210.0000365
210.0000279
210.0000208
210.0000164
210.0000131
210.0000105
210.0000075
210.0000059
210.0000048
210.000004
210.0000029
210.0000023
210.0000019
210.0000015
210.0000011
210.0000009
210.0000008
210.0000007
210.0000005
210.0000004
210.0000004
210.0000004
210.0000003
210.0000003
210.0000002
210.0000002
210.0000002
210.0000002
210.0000002
210.0000002
210.0000002
210.0000002
210.0000002
210.0000002
210.0000002
210.0000002
210.0000002
210.0000002
210.0000003
210.0000004
210.0000004
210.0000006
210.0000007
210.0000011
210.0000018
210.0000024
210.0000031
210.0000053
210.000006
210.0000108
210.0000159
210.0000193
210.0000348
210.0000546
210.0001027
210.0002153
210.0003008
210.0006475
210.0011305
210.0014828
210.0031602
210.0052243
210.0094173
210.0163658
210.0282803
210.0494414
210.0552605
210.0816216
210.0992411
210.1216999
210.128454
210.1264285
210.1199408
210.1080534
210.1029444
210.1038076
210.1046785
210.1041838
210.1026566
210.100244
210.0968313
210.0926188
210.0880019
210.0831292
210.0780371
210.0719778
210.053195
210.0489505
210.0400951
210.0313106
210.0267818
210.0223813
210.0181394
210.01359
210.0111247
210.0089354
210.0068602
210.0048986
210.0038208
210.003039
210.002317
210.0017188
210.0013673
210.001097
210.0008741
210.0006256
210.0004909
210.0004063
210.0003324
210.0002408
210.0001926
210.0001577
210.0001223
210.0000908
210.0000718
210.0000623
210.0000536
210.0000395
210.0000331
210.0000314
210.0000302
210.0000279
210.0000231
210.0000192
210.0000182
210.0000182
210.0000186
210.0000179
210.000016
210.0000147
210.0000151
210.0000146
210.0000161
210.0000175
210.000017
210.0000205
210.0000223
210.0000264
210.000037
210.0000386
210.0000581
210.0000711
210.0001051
210.0001715
210.00022
210.0002931
210.0004636
210.0005612
210.0009491
210.0013592
210.0017363
210.003073
210.0049359
210.0091695
210.0180622
210.0262849
210.0534605
210.0910115
210.1236928
210.2512706
210.4244952
210.7524684
211.2964472
212.2308855
213.7890248
214.3643648
216.2376481
217.5971692
219.1086807
219.4891803
219.2902369
218.7270284
217.7209479
217.3701174
217.472625
217.4943438
217.431168
217.2810036
217.0705832
216.7823447
216.4382872
216.0760007
215.7017675
215.3128282
214.8490443
214.6875629
214.3119016
213.5299591
212.7508931
212.3504915
211.9624362
211.5862855
211.1863089
210.9720628
210.7790238
210.5948202
210.4222955
210.3290062
210.2605657
210.1985847
210.1463411
210.116449
210.0932125
210.0739544
210.0528668
210.0413563
210.0342428
210.0277436
210.0200452
210.0159936
210.0130852
210.010124
210.0074232
210.0058974
210.0051471
210.0043735
210.0031935
210.0027105
210.0026103
210.0025073
210.0022907
210.0018668
210.0015537
210.0015138
210.001565
210.0015601
210.0014666
210.0012933
210.0012088
210.0012526
210.0012176
210.001351
210.0014485
210.001424
210.0017218
210.0018866
210.0022709
210.0031073
210.0033408
210.0049695
210.0061526
210.0091861
210.0145279
210.0186552
210.0249836
210.0384977
210.0480045
210.0786762
210.1122653
210.1465344
210.2551111
210.4184594
210.7723528
211.4829208
212.2259993
214.3652543
217.3608254
220.2427362
229.7493674
243.6525425
267.1735304
303.886247
361.5815354
443.5006392
477.549611
558.8574693
617.590163
671.6292232
682.2163631
672.3477135
647.3461347
601.2330907
589.2555784
593.819097
593.6056409
589.6945783
581.7679375
571.706189
558.0392361
541.9951173
524.7447597
507.0484495
489.3148799
469.1207461
522.0718591
501.5642041
457.3126349
410.5434184
385.2566048
359.8748088
334.099219
305.6390002
289.6816886
274.8777735
260.3171703
246.255675
238.5068719
232.6670054
227.4202978
222.8456484
220.2650738
218.2154044
216.5006554
214.6670319
213.6360003
213.0101901
212.4240517
211.7548696
211.3929603
211.1374219
210.8774724
210.6382462
210.5067111
210.4430921
210.3734957
210.27173
210.2307236
210.2234793
210.2142993
210.1943601
210.1573272
210.1303991
210.1285286
210.1347561
210.1330794
210.1241925
210.1078481
210.1014355
210.1054352
210.102753
210.1137457
210.1215125
210.1202492
210.1448414
210.1600301
210.1933879
210.2615159
210.2867476
210.4198723
210.5611071
210.7933943
211.2290037
211.5918591
212.1332918
213.2342218
214.131354
216.5895077
219.4052504
222.395322
231.0242146
244.6284898
271.4865029
319.7394886
370.6518055
486.2528902
628.288156
756.700624
1072.836803
1474.188194
1989.108173
2635.046123
3443.819917
4347.115238
4686.305576
5370.783828
5823.610152
6175.752816
6211.60229
6115.415964
5884.713744
5500.019501
5418.960738
5450.601493
5438.762702
5391.399281
5309.690861
5205.362268
5076.079323
4929.517419
4771.850552
4607.862036
4440.241068
4269.38837
5555.901243
5350.442149
4882.158271
4340.265845
4022.503044
3681.96966
3305.57328
2848.86179
2565.446653
2277.771058
1962.284176
1621.124249
1407.916491
1232.377399
1060.36074
890.4982443
786.775843
696.808723
614.916668
522.1873966
463.7662011
426.7042803
389.8540313
346.2562972
320.5660057
301.9851542
282.3821632
263.5663417
253.0757371
247.9743056
242.0507787
233.5838994
230.0643118
229.5143343
228.7061454
226.9201735
223.7150195
221.3320618
221.2510954
221.7798952
221.6841025
220.9910673
219.3562512
218.8288172
219.1706331
218.9594715
219.8647701
220.5061146
220.4703297
222.4622041
223.8512163
226.6850346
232.2084288
234.6723991
245.1424731
256.7572354
275.0181835
305.4796869
331.3990507
367.1025532
431.3238392
486.0098957
604.1911284
729.9136611
854.3468497
1143.441752
1539.280246
2138.331007
2961.855414
3696.957851
4950.990791
6190.369454
7147.71538
9045.789629
11029.2574
13045.82157
15143.45455
17326.40247
19360.75898
19964.71265
21207.19006
21909.67967
22375.3339
22332.23313
22066.65915
21547.77787
20761.01517
20591.58969
20607.35853
20542.1381
20388.24085
20172.1024
19921.74999
19632.67102
19312.64476
18971.54655
18616.21528
18252.63311
17895.44385
24167.45207
23725.58784
22675.14129
21350.07406
20538.21903
19626.22525
18550.49619
17147.56614
16208.9871
15180.98241
13941.59403
12479.99504
11451.59053
10545.64379
9568.891898
8503.420113
7772.706419
7095.852671
6419.407015
5571.88012
4959.776803
4537.747425
4085.210483
3494.537694
3096.556706
2781.690669
2426.347895
2034.428695
1789.865285
1664.470053
1504.670259
1260.01144
1146.845329
1131.13872
1102.955512
1039.078021
921.8076576
826.0304446
826.1169231
846.6889811
843.3144957
813.3364356
741.8956856
720.4073511
735.0829154
726.6881886
763.9722295
789.5302365
790.7998399
866.9228069
923.0523687
1025.111902
1203.062736
1286.999517
1569.514367
1858.911469
2256.22676
2794.473215
3212.359238
3709.455437
4475.970197
5081.246307
6134.654981
7118.887586
7984.952409
9682.213192
11636.99674
14006.8959
16637.55832
18607.73041
21414.95742
23699.3386
25195.26048
27946.24978
30448.92245
32572.02627
34460.62913
36116.60743
37401.96489
37524.07119
38092.13931
38248.81716
38253.64311
38076.18682
37730.59577
37268.25255
36626.2864
36411.03398
36307.03983
36167.23894
35957.90811
35719.62675
35472.57032
35211.58357
34940.04638
34663.6293
34381.90881
34097.31678
33806.43861
45668.81094
45382.21442
44650.99688
43612.6521
43013.31632
42279.4684
41373.95532
40086.18136
39162.28809
38109.44405
36762.0872
35015.37715
33687.56238
32479.9647
31102.41814
29490.624
28282.2393
27113.88486
25899.03961
24207.37513
22847.17309
21857.89678
20699.00998
19104.67908
17914.20624
16917.16816
15714.10467
14233.52693
13214.80693
12662.3166
11916.06662
10684.3653
10054.72372
9980.262988
9810.315665
9417.681158
8682.133613
8013.080608
8040.498808
8181.480595
8147.793056
7918.36761
7387.290746
7233.116582
7342.196893
7279.739428
7547.079108
7719.215408
7737.477067
8246.774483
8621.876686
9243.673326
10242.03446
10686.96579
12028.76064
13264.17332
14798.59781
16564.47105
17795.68555
19106.59569
20958.05653
22276.38765
24264.79035
25934.74316
27239.46197
29676.21625
32157.55671
34707.54825
37100.92857
38528.14832
40409.23783
41553.25402
42061.99368
42797.25104
43041.63492
42969.43087
42759.01359
42409.95206
41888.25654
41442.51963
40937.52597
40470.71167
40023.90547
39685.87137
39426.4213
39207.88923
39014.73664
38799.80137
38584.13594
38398.4976
38236.67991
38085.2873
37949.98223
37829.25723
37725.27682
37637.90324
37557.39259
37488.31741
37418.4808
52015.84294
52036.54433
52031.37902
51968.23671
51919.86646
51897.33011
51876.29565
51765.30923
51660.96893
51553.56187
51378.57184
50995.33225
50671.22874
50265.62175
49639.45945
48829.51909
48181.93324
47536.265
46898.90681
45828.48425
44866.6784
44149.35125
43211.12336
41886.6518
40815.21828
39880.40337
38645.24871
37054.17824
35863.27959
35193.85682
34234.33539
32561.52788
31639.82805
31553.42534
31281.32815
30685.82005
29554.83061
28461.2333
28519.8173
28729.2274
28647.01985
28230.55551
27301.62115
27031.26783
27204.55748
27073.09012
27491.69531
27733.75494
27743.42884
28520.54923
29073.85411
29945.12402
31374.1485
31908.65416
33599.83048
34978.43913
36616.45896
38196.5564
39187.07889
40168.75121
41466.94658
42260.69485
43262.94212
44009.83307
44476.91435
45040.01187
45348.08228
45414.86045
45268.8645
44993.74872
44552.69115
43955.96598
43390.68852
42585.98911
42077.62654
41598.06341
41066.18946
40453.67005
39755.47297
39272.54618
38671.01374
38174.53855
37708.75427
37360.97291
37108.66224
36927.77977
36780.58057
36562.61498
36344.33646
36161.07101
36009.74782
35878.56455
35760.94879
35659.73177
35573.66951
35503.46389
35445.89407
35399.76524
35363.9029
50124.0797
50186.02573
50290.79512
50377.69651
50413.65027
50499.43483
50603.28936
50676.51319
50687.32896
50733.87807
50781.29097
50895.2512
50941.17977
51043.7813
51170.49616
51259.57718
51280.37279
51331.4619
51396.35273
51429.73407
51384.81637
51370.73938
51358.95913
51280.82552
51163.09878
51080.54972
50940.37466
50730.97267
50507.94191
50361.829
50132.03351
49729.09077
49393.34362
49335.1565
49209.81348
48904.64091
48330.18553
47723.19434
47689.79725
47740.36973
47663.11756
47393.60984
46840.17941
46628.46103
46666.223
46532.31415
46661.21104
46701.68828
46638.50012
46914.8945
47107.23558
47326.84734
47541.65494
47592.5025
47661.9195
47614.22567
47783.65535
47550.19561
47338.32927
47079.33582
46748.61974
46506.31992
46072.0959
45647.03645
45258.17024
44686.82672
44365.87261
43994.33469
43485.38181
43007.16658
42295.21605
41548.23339
40916.08999
40045.19962
39330.92012
38672.6911
38036.6711
37366.49707
36687.09706
36231.93102
35638.83071
35174.52137
34736.21733
34409.23685
34167.5747
33998.85409
33884.97476
33665.35372
33447.90162
33269.95524
33128.33662
33010.45041
32905.75455
32813.77894
32736.66859
32675.55356
32625.47488
32585.87298
32557.93382
46992.55813
47067.04249
47209.64968
47337.09759
47406.27357
47536.1222
47690.95134
47841.69744
47907.48714
48035.42488
48190.28203
48336.43468
48405.43638
48542.25299
48725.28106
48892.73117
48969.81533
49086.35815
49213.01504
49373.23322
49435.24804
49501.86449
49610.55283
49711.20928
49724.8595
49767.38229
49811.35421
49833.23211
49777.06857
49717.47536
49757.9313
49826.32547
49734.68575
49651.78088
49599.04791
49598.82351
49652.24632
49638.23119
49428.06766
49299.96071
49239.93923
49206.29158
49165.2306
49006.89188
48866.39818
48766.05274
48555.21615
48388.08699
48257.67438
48003.99371
47805.70989
47501.95433
47199.82388
47061.08657
46772.62302
46452.15327
46309.19131
45818.09078
45427.11499
44993.06292
44457.70304
44167.26894
43628.43784
43131.56348
42685.97417
42061.15621
41531.02019
40966.5416
40354.38775
39826.68271
39084.58171
38354.68602
37745.10817
36926.6527
36220.69707
35553.89334
34930.8157
34282.00471
33680.67072
33275.31084
32732.68455
32316.56449
31926.74922
31625.11707
31394.69863
31230.41978
31131.6671
30924.53549
30713.76628
30540.85869
30405.58796
30295.24735
30197.92402
30113.17252
30041.46062
29983.09131
29937.39952
29899.66448
29873.19017
43680.59934
43753.39454
43893.62258
44010.58735
44078.45624
44212.10981
44370.47796
44520.04611
44587.36234
44725.54848
44894.97822
45040.17592
45106.27285
45246.02374
45440.59058
45621.19844
45704.86485
45833.42335
45982.70366
46173.88828
46262.35828
46347.26127
46486.69347
46654.30487
46711.80783
46798.36521
46922.49687
47053.04428
47082.66935
47071.02799
47122.90792
47220.31024
47142.7024
47052.59051
47003.17865
47018.65635
47113.79211
47153.61464
46923.81831
46778.15153
46710.41345
46693.58809
46705.05397
46537.71009
46385.78681
46282.94898
46044.98662
45864.92335
45717.56811
45430.14248
45203.20382
44863.64088
44535.09258
44379.84999
43952.71882
43511.06794
43154.23364
42595.17212
42156.41991
41675.3295
41085.12276
40874.5175
40326.82637
39846.1451
39400.81129
38811.85231
38269.38183
37686.55586
37106.90372
36619.19595
35927.50384
35274.57481
34739.68408
33995.62397
33339.24332
32707.70266
32107.8836
31489.06486
30927.38596
30578.80808
30080.34237
29708.01132
29362.29752
29088.07636
28877.14549
28717.99594
28634.22322
28447.9672
28248.58207
28084.80939
27957.55815
27853.49152
27762.6282
27685.85336
27621.42736
27568.19442
27522.74328
27489.58498
27465.57737
40543.52238
40613.43853
40744.56049
40845.70034
40906.66945
41036.54617
41189.02242
41324.6573
41384.83542
41519.15262
41682.24046
41810.77103
41863.48932
41988.8488
42171.85802
42337.04551
42406.39675
42521.41955
42665.91294
42845.70631
42922.90999
42996.14472
43127.00952
43292.42768
43347.07714
43427.99732
43558.08477
43698.30491
43737.30693
43731.05783
43782.07309
43879.70813
43800.39755
43703.04488
43653.97719
43671.7385
43770.72948
43822.25561
43587.69351
43434.06118
43360.28046
43349.19424
43378.8074
43200.09616
43046.38433
42942.23548
42703.98225
42527.57284
42369.92105
42083.19473
41854.43352
41517.58714
41195.83547
41032.4651
40606.32325
40171.95222
40090.31207
39626.52617
39219.08018
38751.40005
38167.57946
37690.68331
37134.94441
36686.17502
36269.026
35735.57613
35231.98488
34680.69662
34124.03793
33684.10039
33054.41626
32457.50926
31992.64521
31298.81856
30713.67169
30142.55409
29572.82945
28997.57281
28454.63681
28149.44001
27705.54049
27374.58117
27072.43524
26830.39319
26642.0553
26495.96026
26420.27237
26258.60147
26079.09895
25929.45965
25811.11589
25713.4252
25629.86095
25562.71981
25503.45697
25452.94992
25414.57635
25382.65777
25359.84362
37632.15007
37698.27484
37817.14683
37901.99642
37954.90314
38077.72042
38221.26363
38339.68581
38388.33545
38511.91449
38665.05126
38778.85469
38819.24195
38930.87556
39102.88873
39252.67022
39308.27136
39408.22917
39543.14626
39707.83662
39770.57983
39829.42239
39946.49415
40099.10676
40144.20399
40212.73403
40334.37057
40468.34824
40505.03644
40495.19469
40539.78016
40626.90457
40540.98967
40437.3235
40386.97076
40401.45633
40489.01112
40535.64473
40304.96987
40147.59825
40070.45399
40061.27568
40093.26459
39910.16589
39755.78676
39653.39735
39428.98127
39264.90415
39107.49337
38831.60736
38620.37386
38306.28328
38002.65095
37843.23753
37441.81818
37031.11992
36907.66338
36534.54059
36186.72339
35764.50384
35220.7049
34791.08146
34236.30393
33798.73869
33417.59605
32928.61857
32464.95569
31964.94388
31427.73448
31032.83593
30454.03447
29928.41978
29510.30068
28883.35764
28359.12653
27842.13731
27330.33844
26810.41137
26300.50082
26020.70091
25631.84404
25340.50242
25078.00313
24866.20713
24698.74727
24568.79731
24500.4969
24359.47109
24203.40939
24070.18796
23961.3546
23871.28187
23797.02326
23735.29679
23682.00006
23637.5655
23600.62286
23569.95929
23549.18508
34981.54157
35042.23394
35146.60528
35215.55105
35260.05952
35373.46843
35505.63647
35606.69502
35644.08048
35754.46379
35894.7181
35993.09848
36021.81687
36118.35918
36276.77218
36410.62456
36453.848
36538.24563
36659.96221
36809.75303
36858.64224
36903.34742
37003.7169
37143.14535
37176.878
37231.86323
37339.57624
37461.12221
37490.93716
37474.45324
37513.01938
37592.31508
37503.29778
37393.85823
37341.63654
37353.57586
37432.61052
37476.7485
37251.64517
37090.99494
37010.77765
37004.09263
37039.30945
36858.581
36701.93868
36603.16175
36393.15867
36242.71491
36093.18736
35825.58795
35633.07319
35347.59255
35059.10227
34917.19907
34545.69698
34167.43054
34018.2673
33702.38378
33420.69894
33057.24422
32541.82079
32179.45357
31631.03928
31208.81393
30854.52431
30411.93114
29976.7661
29534.19163
29035.61257
28668.13051
28151.88197
27678.29912
27317.01907
26766.21345
26300.98195
25843.04057
25393.92799
24934.80902
24471.07775
24207.95568
23867.36461
23609.65705
23369.73912
23176.82576
23027.3684
22906.27897
22845.58883
22721.77982
22585.53899
22467.09941
22369.14516
22285.11755
22215.44764
22158.34538
22109.52224
22069.2425
22034.04543
22004.45798
21984.09398
32621.56683
32675.71697
32764.28965
32818.42123
32854.99387
32957.43579
33076.41721
33160.73422
33188.14281
33283.67367
33408.67329
33491.57185
33509.51632
33590.20655
33731.94837
33848.99994
33881.19965
33950.0809
34054.31672
34189.60698
34225.23915
34256.7538
34337.84543
34464.05368
34486.35936
34528.4687
34619.74238
34726.56184
34750.28307
34727.57079
34758.66936
34828.84639
34740.74072
34628.69616
34573.38536
34581.31263
34651.76349
34695.43387
34478.35241
34318.48613
34234.44074
34228.21734
34266.57163
34094.90125
33936.38371
33843.21051
33645.0706
33509.59467
33370.26622
33112.76834
32943.23394
32680.32027
32409.41954
32280.91759
31942.58477
31597.40419
31420.1944
31133.71622
30901.60495
30599.71638
30128.72546
29830.35078
29330.51506
28923.33669
28595.74347
28186.94232
27800.80895
27402.11989
26957.66348
26617.94367
26160.94026
25747.06903
25428.04469
24955.33514
24547.2958
24154.77273
23747.04627
23345.01074
22932.52602
22692.56444
22390.56711
22163.34025
21950.69581
21775.60135
21642.37231
21528.78546
21468.09049
21364.41716
21246.72344
21144.34182
21053.95704
20980.66368
20915.24135
20861.60783
20816.87759
20779.13946
20746.24302
20718.72745
20699.90598
30565.39882
30612.11932
30684.14769
30724.74598
30754.02505
30845.2369
30949.59924
31017.36338
31036.17276
31115.89966
31223.85345
31291.69129
31300.11108
31364.8709
31487.49296
31587.22097
31609.82907
31664.17543
31750.17657
31866.89289
31891.82919
31911.62209
31974.6373
32082.75964
32095.73619
32126.20014
32199.68103
32289.78572
32307.79118
32279.99161
32302.27887
32361.57336
32277.03487
32164.81225
32104.94706
32106.69851
32167.58975
32208.48424
32007.05806
31848.85189
31759.11828
31749.75506
31787.31949
31631.46725
31474.796
31382.85689
31198.5933
31075.49645
30945.56473
30704.12453
30551.26638
30313.47
30063.78463
29941.61748
29639.32866
29333.14321
29142.99727
28864.56191
28663.51182
28413.28725
28010.78099
27768.64531
27337.63229
26958.42005
26659.82369
26282.0124
25944.50165
25588.04244
25196.63192
24888.10936
24484.12925
24123.71096
23822.72168
23425.26965
23082.50515
22750.59593
22402.58235
22054.07456
21690.81252
21468.20691
21197.18208
20991.87585
20799.41431
20640.87714
20517.53685
20409.20811
20350.80895
20255.41826
20153.20791
20060.54375
19982.68215
19915.17075
19854.76372
19802.14179
19759.59036
19724.3974
19693.98186
19668.05151
19648.10704
28815.68533
28854.23047
28909.648
28938.02965
28960.76443
29040.58664
29129.72964
29182.04207
29193.86444
29257.91391
29348.07428
29401.72707
29402.28693
29452.1137
29553.49359
29636.12657
29650.67313
29691.70178
29760.14167
29854.54749
29871.17935
29880.40555
29927.91505
30011.68084
30017.04612
30037.04402
30092.46811
30164.09086
30176.29232
30145.03292
30157.57369
30204.18392
30125.61856
30014.88253
29950.40164
29943.87797
29993.1252
30029.09499
29849.36825
29694.9608
29599.86462
29583.80089
29615.82597
29479.03266
29331.08571
29238.01508
29069.18511
28956.16882
28834.89577
28614.74005
28474.01259
28263.77502
28038.08574
27918.09918
27650.41935
27381.73809
27191.74243
26918.55164