/*--------------------------------*- C++ -*----------------------------------*\
| =========                 |                                                 |
| \\      /  F ield         | OpenFOAM: The Open Source CFD Toolbox           |
|  \\    /   O peration     | Version:  v1706                                 |
|   \\  /    A nd           | Web:      www.OpenFOAM.com                      |
|    \\/     M anipulation  |                                                 |
\*---------------------------------------------------------------------------*/
FoamFile
{
    version     2.0;
    format      ascii;
    class       volScalarField;
    location    "0.00272";
    object      Tv;
}
// * * * * * * * * * * * * * * * * * * * * * * * * * * * * * * * * * * * * * //

dimensions      [0 0 0 1 0 0 0];


internalField   nonuniform List<scalar> 
11682
(
210
210
210
210
210
210
210
210
210
210
210
210
210
210
210
210
210
210
210
210
210
210
210
210
210
210
210
210
210
210
210
210
210
210
210
210
210
210
210
210
210
210
210
210
210
210
210
210
210
210
210
210
210
210
210
210
210
210
210
210
210
210
210
210
210
210
210
210
210
210
210
210
210
210
210
210
210
210
210
210
210
210
210
210
210
210
210
210
210
210
210
210
210
210
210
210
210
210
210
210
210
210
210
210
210
210
210
210
210
210
210
210
210
210
210
210
210
210
210
210
210
210
210
210
210
210
210
210
210
210
210
210
210
210
210
210
210
210
210
210
210
210
210
210
210
210
210
210
210
210
210
210
210
210
210
210
210
210
210
210
210
210
210
210
210
210
210
210
210
210
210
210
210
210
210
210
210
210
210
210
210
210
210
210
210
210
210
210
210
210
210
210
210
210
210
210
210
210
210
210
210
210
210
210
210
210
210
210
210
210
210
210
210
210
210
210
210
210
210
210
210
210
210
210
210
210
210
210
210
210
210
210
210
210
210
210
210
210
210
210
210
210
210
210
210
210
210
210
210
210
210
210
210
210
210
210
210
210
210
210
210
210
210
210
210
210
210
210
210
210
210
210
210
210
210
210
210
210
210
210
210
210
210
210
210
210
210
210
210
210
210
210
210
210
210
210
210
210
210
210
210
210
210
210
210
210
210
210
210
210
210
210
210
210
210
210
210
210
210
210
210
210
210
210
210
210
210
210
210
210
210
210
210
210
210
210
210
210
210
210
210
210
210
210
210
210
210
210
210
210
210
210
210
210
210
210
210
210
210
210
210
210
210
210
210
210
210
210
210
210
210
210
210
210
210
210
210
210
210
210
210
210
210
210
210
210
210
210
210
210
210
210
210
210
210
210
210
210
210
210
210
210
210
210
210
210
210
210
210
210
210
210
210
210
210
210
210
210
210
210
210
210
210
210
210
210
210
210
210
210
210
210
210
210
210
210
210
210
210
210
210
210
210
210
210
210
210
210
210
210
210
210
210
210
210
210
210
210
210
210
210
210
210
210
210
210
210
210
210
210
210
210
210
210
210
210
210
210
210
210
210
210
210
210
210
210
210
210
210
210
210
210
210
210
210
210
210
210
210
210
210
210
210
210
210
210
210
210
210
210
210
210
210
210
210
210
210
210
210
210
210
210
210
210
210
210
210
210
210
210
210
210
210
210
210
210
210
210
210
210
210
210
210
210
210
210
210
210
210
210
210
210
210
210
210
210
210
210
210
210
210
210
210
210
210
210
210
210
210
210
210
210
210
210
210
210
210
210
210
210
210
210
210
210
210
210
210
210
210
210
210
210
210
210
210
210
210
210
210
210
210
210
210
210
210
210
210
210
210
210
210
210
210
210
210
210
210
210
210
210
210
210
210
210
210
210
210
210
210
210
210
210
210
210
210
210
210
210
210
210
210
210
210
210
210
210
210
210
210
210
210
210
210
210
210
210
210
210
210
210
210
210
210
210
210
210
210
210
210
210
210
210
210
210
210
210
210
210
210
210
210
210
210
210
210
210
210
210
210
210
210
210
210
210
210
210
210
210
210
210
210
210
210
210
210
210
210
210
210
210
210
210
210
210
210
210
210
210
210
210
210
210
210
210
210
210
210
210
210
210
210
210
210
210
210
210
210
210
210
210
210
210
210
210
210
210
210
210
210
210
210
210
210
210
210
210
210
210
210
210
210
210
210
210
210
210
210
210
210
210
210
210
210
210
210
210
210
210
210
210
210
210
210
210
210
210
210
210
210
210
210
210
210
210
210
210
210
210
210
210
210
210
210
210
210
210
210
210
210
210
210
210
210
210
210
210
210
210
210
210
210
210
210
210
210
210
210
210
210
210
210
210
210
210
210
210
210
210
210
210
210
210
210
210
210
210
210
210
210
210
210
210
210
210
210
210
210
210
210
210
210
210
210
210
210
210
210
210
210
210
210
210
210
210
210
210
210
210
210
210
210
210
210
210
210
210
210
210
210
210
210
210
210
210
210
210
210
210
210
210
210
210
210
210
210
210
210
210
210
210
210
210
210
210
210
210
210
210
210
210
210
210
210
210
210
210
210
210
210
210
210
210
210
210
210
210
210
210
210
210
210
210
210
210
210
210
210
210
210
210
210
210
210
210
210
210
210
210
210
210
210
210
210
210
210
210
210
210
210
210
210
210
210
210
210
210
210
210
210
210
210
210
210
210
210
210
210
210
210
210
210
210
210
210
210
210
210
210
210
210
210
210
210
210
210
210
210
210
210
210
210
210
210
210
210
210
210
210
210
210
210
210
210
210
210
210
210
210
210
210
210
210
210
210
210
210
210
210
210
210
210
210
210
210
210
210
210
210
210
210
210
210
210
210
210
210
210
210
210
210
210
210
210
210
210
210
210
210
210
210
210
210
210
210
210
210
210
210
210
210
210
210
210
210
210
210
210
210
210
210
210
210
210
210
210
210
210
210
210
210
210
210
210
210
210
210
210
210
210
210
210
210
210
210
210
210
210
210
210
210
210
210
210
210
210
210
210
210
210
210
210
210
210
210
210
210
210
210
210
210
210
210
210
210
210
210
210
210
210
210
210
210
210
210
210
210
210
210
210
210
210
210
210
210
210
210
210
210
210
210
210
210
210
210
210
210
210
210
210
210
210
210
210
210
210
210
210
210
210
210
210
210
210
210
210
210
210
210
210
210
210
210
210
210
210
210
210
210
210
210
210
210
210
210
210
210
210
210
210
210
210
210
210
210
210
210
210
210
210
210
210
210
210
210
210
210
210
210
210
210
210
210
210
210
210
210
210
210
210
210
210
210
210
210
210
210
210
210
210
210
210
210
210
210
210
210
210
210
210
210
210
210
210
210
209.9999999
210
210
210
210
210
210
210
210
210
210
210
210
210
210
210
210
210
210
210
210
210
210
210
210
210
210
210
210
210
210
210
210
210
210
210
210
210
210
210
210
210
210
210
210
210
210
210
210
210
210
210
210
210
210
210
210
210
210
210
210
210
210
210
210
210
210
210
210
210
210
210
210
210
210
210
210
210
210
210
210
210
210
210
210
210
210
210
210
210
210
210
210
210
210
210
210
210
210
210
210
210
210
210
210
210
210
210
210
210
210
210
210
210
210
210
210
210
210
210
210
210
210
210
210
209.9999999
210
210
210
210
210
210
210
210
210
210
210
210
210
210
210
210
210
210
210
210
210
210
210
210
210
210
210
210
210
210
210
210
210
210
210
210
210
210
210
210
210
210
210
210
210
210
210
210
210
210
210
210
210
210
210
210
210
209.9999999
210
210
210
210
210
210
210
210
210
210
210
210
210
210
210
210
210
210
210
210
210
210
210
210
210
210
210
210
210
210
210
210
210
210
210
210
210
210
210
210
210
210
210
210
210
210
210
210
210
210
210
210
210
210
210
210
210
210
210
210
210
210
210
210
210
210
210
210
210
210
210
210
210
210
210
210
210
210
210
210
210
210
210
210
210
210
210
210
210
210
210
210
210
210
210
210
210
210
210
210
210
210
210
210
210
210
210
210
210
210
210
210
210
210
210
210
210
210
210
210
210
210
210
210
210
210
210
210
210
210
210
210
210
210
210
210
210
210
210
209.9999999
210
210
210
210
210
210
210
210
210
210
210
210
210
210
210
210
210
210
210
210
210
210
210
210
210
210
210
210
210
210
210
210
210
210
210
210
210
210
210
210
210
210
210
210
210
210
210
210
210
210
210
210
210
210
210
210
210
210
210
210
210
210
210
210
210
210
210
210
210
210
210
209.9999999
210
210
210
210
210
210
210
210
210
210
210
210
210
210
210
210
210
210
210
210
210
210
210
210
210
210
209.9999999
210
210
210
210
210
210
210
210
210
210
210
210
210
210
210
210
210
210
210
210
210
210
210
210
210
210
210
210
210
210
210
210
210
210
210
210
210
210
210
210
210
210
210
210
210
210
210
210
210
210
210
210
210
210
210
210
210
210
210
210
210
210
210
210
210
210
210
210
210
210
210
210
210
210
210
210
210
210.0000001
210
210
210
210.0000001
210.0000001
210
210
210
210
210
210
210
210
210
210
210
210
210
210
210
210
210
210
210
210
210
210
210
210
210
210
209.9999999
209.9999999
210
210
210
210
210
210
210
210
210
210
210
210
210
210
210
210
210
210
210
210
210
210
210
210
210
210
210
210
210
210
210
210
210
210
210
210
210
210
210
210
210
210
210
210
210
210
210
210
210.0000001
210.0000001
210.0000002
210.0000003
210.0000006
210.0000007
210.0000011
210.0000014
210.0000017
210.000002
210.000002
210.000002
210.000002
210.000002
210.0000021
210.0000021
210.0000021
210.0000022
210.0000022
210.0000022
210.0000022
210.0000022
210.0000021
210.0000021
210.000002
210.0000003
210.0000002
210.0000002
210.0000001
210.0000001
210.0000001
210.0000001
210.0000001
210
210
210.0000001
210
210
210
210
210
210
210
210
210
210
210
210
210
209.9999999
210
210
210
210
210
210
210
210
210
210
210
210
210
210
210
210
210
210
209.9999999
210
210
210
210
210
210
210
210
210
209.9999999
210
210
210
210
210
210
210
210
210
210
210
210
210.0000001
210.0000001
210.0000002
210.0000002
210.0000005
210.0000008
210.0000011
210.0000022
210.0000035
210.0000059
210.0000098
210.0000163
210.000029
210.0000319
210.0000488
210.00006
210.0000761
210.0000848
210.0000873
210.0000864
210.0000835
210.000082
210.0000838
210.0000861
210.0000878
210.0000886
210.0000885
210.0000879
210.0000868
210.0000851
210.0000829
210.0000806
210.0000777
210.0000162
210.0000149
210.0000124
210.0000102
210.0000088
210.0000075
210.0000062
210.0000048
210.0000037
210.000003
210.0000025
210.0000019
210.0000015
210.0000013
210.000001
210.0000008
210.0000006
210.0000005
210.0000004
210.0000003
210.0000002
210.0000002
210.0000002
210.0000001
210
210
210
210
210
210
210
210
210
210
210
210
210
210
210
210
210
210
210
210
210
210
210
210
210
210
210
210
210
210
210
210
210.0000001
210.0000001
210.0000001
210.0000001
210.0000003
210.0000003
210.0000006
210.0000009
210.000001
210.0000017
210.0000027
210.0000046
210.0000087
210.0000115
210.000024
210.0000415
210.0000554
210.0001073
210.0001721
210.000292
210.0004878
210.0008191
210.0013959
210.0015266
210.0022754
210.0027772
210.0034675
210.0038113
210.0038587
210.0037762
210.0035965
210.0035082
210.0035801
210.0036797
210.003727
210.0037336
210.0037105
210.0036605
210.0035833
210.0034848
210.0033702
210.0032391
210.0030952
210.0009198
210.0008539
210.0007109
210.0005866
210.0005078
210.0004304
210.0003545
210.00027
210.0002046
210.0001654
210.0001395
210.0001062
210.0000852
210.0000698
210.0000547
210.0000413
210.0000352
210.0000284
210.0000226
210.0000164
210.0000129
210.0000109
210.0000093
210.0000069
210.0000056
210.0000047
210.0000035
210.0000027
210.0000023
210.000002
210.0000018
210.0000014
210.0000011
210.0000011
210.0000011
210.000001
210.0000009
210.0000007
210.0000008
210.0000019
210.0000014
210.000001
210.0000006
210.0000006
210.0000006
210.0000006
210.0000007
210.0000008
210.0000008
210.0000008
210.0000009
210.0000011
210.0000015
210.0000016
210.0000023
210.0000028
210.000004
210.0000058
210.0000072
210.0000099
210.0000153
210.0000187
210.0000311
210.0000458
210.0000503
210.0000891
210.00014
210.000242
210.0004553
210.0006067
210.0012486
210.0021339
210.002915
210.0055721
210.0089943
210.0153027
210.0256512
210.0434322
210.0720153
210.0793702
210.1158507
210.141358
210.1738728
210.1885952
210.1880882
210.1817949
210.1705593
210.1655637
210.1688011
210.1731162
210.1741306
210.1733103
210.1712036
210.1676648
210.1628612
210.1571033
210.1507454
210.14402
210.1357434
210.0571249
210.0528798
210.0439984
210.0364153
210.0314497
210.0265669
210.0217422
210.0164314
210.0122006
210.0097808
210.0082743
210.0062552
210.0049937
210.0040622
210.0031577
210.002346
210.0020495
210.0016279
210.0012749
210.0009304
210.0007432
210.0006238
210.0005316
210.000394
210.0003207
210.0002649
210.0001949
210.0001527
210.0001272
210.0001128
210.0000981
210.0000754
210.0000651
210.0000628
210.0000606
210.0000559
210.0000468
210.0000388
210.0000426
210.0000979
210.0000748
210.0000656
210.0000382
210.000034
210.0000347
210.0000342
210.0000377
210.0000411
210.0000422
210.0000452
210.0000497
210.0000599
210.0000808
210.0000864
210.0001232
210.0001441
210.0002159
210.0003099
210.0003888
210.0005459
210.0008373
210.0010147
210.0016765
210.0024463
210.0026366
210.0048416
210.0077256
210.0135058
210.0252864
210.0341739
210.0703001
210.1203582
210.1680057
210.3119736
210.5104111
210.8579498
211.4190237
212.3533777
213.6942099
214.1006012
215.6280261
216.698006
217.8918081
218.3402585
218.2602838
217.9478108
217.4403197
217.2382505
217.3561627
217.4818939
217.4739551
217.4131463
217.2996038
217.1284708
216.9111458
216.6580989
216.3855736
216.0945108
215.7299697
213.5040467
213.2601068
212.7437538
212.3050815
212.0040679
211.7027942
211.3999703
211.0628209
210.7824577
210.6258623
210.5317201
210.4007517
210.3194305
210.2586095
210.2004239
210.1469062
210.1312663
210.1031152
210.0794831
210.0578407
210.045943
210.038536
210.032765
210.024322
210.0195992
210.0160969
210.0115534
210.0090074
210.0074953
210.0066435
210.005743
210.0043605
210.0037549
210.003625
210.003498
210.0032145
210.002651
210.0021621
210.0022958
210.0044801
210.0041173
210.0043106
210.0022411
210.0019258
210.0019684
210.0019277
210.002143
210.0023439
210.0024024
210.0025051
210.0027822
210.0033828
210.0045552
210.004906
210.0070375
210.0078689
210.0124726
210.0178027
210.0223899
210.0321905
210.0490197
210.059849
210.0987551
210.1438316
210.1514814
210.2859389
210.4615472
210.8057268
211.4716164
211.997645
213.884221
216.2800462
218.4742754
223.4523364
229.5113093
237.4383555
247.1936029
259.1305748
271.4970609
275.3720179
285.2706841
291.6613675
297.4959978
299.273004
298.6824434
296.8231069
293.6981101
292.6120799
293.2097741
293.6384314
293.4695153
292.9657532
292.1908181
291.062936
289.6796349
288.0806123
286.2830915
284.3544301
281.9330478
273.3528222
271.2235811
266.3192249
261.5527156
257.9531223
253.9685943
249.4391203
243.6295571
237.9921067
234.2141734
231.5531923
227.605444
224.9116414
222.6790726
220.3917068
217.9823694
217.4581842
216.0084674
214.7442739
213.5555287
212.8601546
212.4234872
212.081897
211.5664735
211.2647395
211.039978
210.737985
210.5763119
210.4794963
210.4252432
210.3661813
210.2762667
210.2374379
210.229643
210.2213345
210.2025122
210.1655397
210.1327172
210.1371516
210.1429565
210.219965
210.2683319
210.133322
210.1186876
210.1225584
210.1199076
210.1336942
210.1468148
210.1504238
210.1522684
210.1710289
210.2090137
210.2799119
210.3047779
210.4340546
210.4618414
210.7747637
211.0842716
211.3648929
211.9609865
212.878554
213.5157987
215.4636995
217.5471815
217.6703147
223.0573898
228.7456317
237.2349087
248.8876311
256.8660886
274.7222205
290.8315762
302.1681389
323.1557544
344.5364564
367.2868556
392.6562671
420.8352673
448.512822
458.8237527
477.9543988
490.6470532
500.802523
503.7433866
502.490671
498.8485592
491.8750659
490.2137399
491.4989845
492.1894025
491.6656467
490.3830731
488.6822107
486.1671103
483.0267898
479.4063257
475.4917884
471.3835001
466.6528981
448.3651484
444.4207432
435.0068082
424.5568777
416.9578977
408.2810984
397.8446241
383.9075149
371.5864254
361.1479173
351.4484736
338.6148416
329.6243191
321.5585241
312.7749328
302.6308378
297.5022136
290.5239489
282.7413577
273.916735
267.5619306
263.0121854
258.9756096
252.0927876
247.2657202
243.1892222
236.8756004
232.7577355
229.9957576
228.3767401
226.4488425
223.3142584
221.83513
221.5510517
221.2128422
220.4228685
218.8107531
217.2566735
217.3416754
217.5088256
221.0730364
225.4939134
217.9690572
216.753544
216.8950185
216.7596571
217.4131285
218.0551301
218.209506
218.05633
218.9604316
220.5530239
223.187439
224.1873496
228.0967814
232.0199714
237.2706895
243.3893982
248.4993812
256.8622937
266.6583555
272.9450065
286.5553519
297.7392091
303.7438748
323.2800974
342.8399067
367.635926
397.1423826
419.832416
455.623983
485.4666131
504.9568148
538.2454004
570.7042507
604.5843798
642.7533898
685.0114851
721.283357
735.1991129
760.1662351
776.7098304
789.0008274
793.3362449
792.606379
788.68405
782.3750539
783.8798599
788.4683235
791.146084
791.5724322
790.7102207
789.1565133
786.4847336
782.8376319
778.4278886
773.5007432
768.2014799
762.5547883
689.6891188
685.9719996
676.3494477
658.4946038
649.4588194
638.8274119
625.0845687
606.2341815
582.7698792
566.4927353
555.819992
539.1281875
527.1403495
516.8855626
505.9712959
493.3865486
484.4690718
475.321421
464.6318008
449.9178274
438.0845025
428.9652964
419.7308045
404.6426041
393.2477844
383.0356626
368.4311497
355.4525951
346.5361678
341.456737
334.9809002
324.0902613
318.5369738
317.5699299
316.2256786
312.9832782
306.23052
299.6895307
299.5491511
300.8595355
307.9110642
311.0517124
297.4528464
294.3116986
295.3046901
294.6798882
297.7170534
300.1940146
300.55791
303.3823361
307.2788363
313.6787439
323.5797515
327.6697548
340.5721306
353.0357235
367.9304869
385.7121647
400.0226781
417.7814336
438.3024859
452.1544688
475.7138144
493.9699384
508.0350772
533.7750841
562.1017804
598.7936311
642.0754533
672.1894576
725.446899
757.3231368
773.9942746
801.242601
828.0364226
863.2859307
908.1613174
961.198499
1014.199405
1036.120552
1068.015321
1088.249551
1104.442277
1112.538039
1115.627742
1115.069167
1109.328266
1112.960998
1120.096185
1125.188159
1127.921847
1128.981741
1128.894
1127.652456
1125.303398
1121.911039
1117.669791
1112.798438
1107.668912
889.7564653
887.7961762
881.7598755
859.9930163
852.108486
841.8137455
827.1069836
806.4596122
789.5739695
768.6910119
745.6431479
726.3012549
716.0452699
710.0489567
706.5304307
703.2556651
701.1129348
698.4125546
702.1211498
692.33467
681.8878252
672.1373372
655.358674
636.2355209
621.0963033
606.6345011
579.9108949
563.6884532
552.0232681
545.3374023
536.6865616
521.9521105
514.9166277
514.0296101
512.3790024
508.2954862
499.9051281
491.8487671
492.3300589
498.5756828
496.8274019
493.1816024
485.5615911
483.2896974
485.1675501
484.4517726
488.84059
491.9245639
492.4298262
499.8064042
504.9911166
513.6705426
527.3631576
533.5781444
552.118598
570.3299449
592.7010429
616.0288591
637.0533162
668.8133909
698.133138
716.0027655
734.4032972
746.342034
755.6125696
773.8375927
797.7134473
836.0649403
890.8636945
938.4458253
992.881298
1014.020218
1019.195558
1025.970897
1026.840536
1038.979767
1052.171803
1066.322546
1078.990728
1091.996839
1102.750744
1113.576101
1126.429494
1141.151317
1157.221312
1174.829993
1193.314202
1209.017217
1222.572024
1234.542634
1245.955674
1256.527734
1266.376669
1275.489848
1283.778235
1291.845693
1298.439226
1304.194782
1309.157018
786.7988218
789.1943988
795.0781104
779.7692397
783.4790981
786.4579699
788.2138866
790.2697954
791.2167753
793.0783146
796.6985453
803.2462575
809.1046943
817.2468403
830.4962612
845.8725183
856.9483402
866.3192196
892.0059017
894.7200323
891.5697638
884.6352276
862.568566
843.7770936
828.1532483
810.5558474
788.7795774
760.6256071
745.3197834
738.4727791
730.5158076
719.1543378
715.5259107
715.7515717
715.3995979
714.6530999
712.80591
711.0200302
713.0803063
716.3034097
715.7629823
715.0501512
712.798271
713.2983201
715.27499
715.3793256
718.778777
720.8797024
721.7747087
726.244676
728.8991262
734.2851502
744.2278688
749.3502606
767.5583622
786.8397383
812.7071594
853.5622534
884.706226
915.4752117
947.8337978
963.7826254
967.374233
964.7352458
960.6710623
958.0058662
955.5409619
959.2335385
965.9233087
965.9384166
973.5889672
961.9579928
949.642838
925.6569164
903.5924503
898.7487347
896.3295243
898.3775962
907.040812
923.8078404
938.6555994
956.3323473
975.8998037
995.2913741
1014.224168
1033.688899
1054.862583
1071.767506
1087.571559
1102.204541
1117.10368
1130.601771
1143.395408
1155.221205
1167.084889
1178.941912
1189.06425
1198.209589
1207.19746
518.0144497
520.1511752
526.6500209
537.0681063
542.6715611
548.3432188
554.692642
565.6736622
572.8155504
580.6255702
591.3147283
608.1298469
621.1298896
636.5377428
659.0509011
685.8944119
705.6399697
723.680963
771.5071218
791.9160015
804.060151
809.7035222
793.1528772
798.3694539
802.5487229
804.6367482
807.2888218
812.849943
817.660334
820.942263
824.9918977
831.6017207
838.178522
840.275081
842.7760092
849.2345687
860.8026413
871.4293462
875.4592793
874.6370532
876.3320395
880.5313532
888.5459612
894.1702443
895.5423345
897.2109991
898.1788696
898.1807613
899.3297369
897.2529079
893.927244
891.2661559
889.3686321
888.3720147
891.5983294
893.0280263
889.2847365
895.4035751
897.9160069
905.3118753
914.2341149
915.6118358
885.5613216
861.4049162
845.2166609
819.3125284
799.461724
783.9373561
773.5621906
769.5148238
764.6825287
769.1007644
776.0288522
784.3654839
789.22487
799.2566619
812.4160197
830.4652392
854.319205
877.2198333
903.2696797
928.7649184
954.7646775
977.3947613
996.9588905
1014.08223
1030.753382
1047.589178
1063.93662
1079.764504
1095.653699
1108.509547
1119.93582
1131.734619
1142.178225
1151.779627
1160.633743
1168.143097
1175.399876
455.6439957
455.1119968
455.24483
456.9232446
458.1077528
458.4848573
458.735689
461.3684238
463.7557228
465.7554659
468.6918026
472.3645312
475.9013196
478.9793676
484.1836643
492.6385809
499.9002734
506.431957
513.4685535
524.2192536
534.5024034
540.867491
548.6890447
559.7683781
569.9657619
577.7260446
588.1641719
602.4538799
614.3576809
621.4114421
630.973487
647.8145545
660.1472671
662.3256538
666.8217634
677.8632916
698.8622437
719.2619721
721.7915994
719.9511638
722.5338978
730.9064513
748.3862406
756.4303306
756.1117506
760.3814106
757.1914826
755.9013213
758.2440858
748.2297071
741.5172856
731.9476302
719.9403625
717.2264521
708.6846314
703.091818
687.9769441
685.308296
683.6508522
683.2356363
679.8073367
678.5696453
677.5143807
675.9347013
677.9579384
680.9804948
681.0115317
683.5211361
691.259098
702.7081982
718.87311
740.7464572
762.3023478
791.4787013
817.1685151
843.3395121
870.5764059
902.0916698
936.1162003
964.7387323
1000.778067
1032.283245
1065.668328
1091.307392
1112.519953
1131.249359
1145.36114
1164.401319
1183.749074
1202.02195
1217.430592
1231.602736
1243.037093
1253.912534
1264.222412
1274.104845
1281.757586
1288.228899
1293.619498
499.6437751
497.8452274
494.8814427
492.7602945
491.5558307
488.9429044
485.7813788
483.5482159
482.8172711
480.7539736
478.3510647
476.624544
476.2487282
474.4282728
472.2351561
471.3315339
471.7336697
471.331062
470.5456758
470.9442946
472.8254606
473.5698155
473.8515205
475.8159083
478.8694907
480.7251414
483.4362019
488.1392011
493.3568138
496.9145954
498.9227126
503.8332239
509.5997158
511.7518357
514.2987635
517.7556969
523.9433635
532.0907219
536.4916328
538.3957674
540.5136434
544.0420883
552.2289695
558.2306972
560.3651102
564.4795021
567.1144299
569.8282611
573.7276888
574.9493088
576.694568
579.9441965
581.9010057
584.4401465
587.095748
591.7237706
590.1712434
599.1327878
607.4828683
617.8003715
628.8387164
635.5858118
648.7318115
661.5874916
675.0220434
692.9270962
709.2040234
727.3107707
748.4242057
768.8163369
798.1172856
830.2931658
859.5587722
900.5721658
939.3349629
979.2261758
1019.495899
1066.478005
1109.34932
1145.287369
1192.856455
1230.689681
1269.200023
1299.905927
1325.431343
1347.020931
1360.526583
1382.832791
1406.165938
1427.71531
1445.819218
1460.555084
1472.618586
1484.49814
1495.09739
1504.399204
1512.43249
1518.681686
1523.752411
592.6258164
590.0812904
585.454066
581.7443991
579.5270743
575.2370945
570.1144827
565.707941
563.7229575
559.6094584
554.6015086
550.5872145
548.8324857
544.9304758
539.5941813
535.0929268
533.1792203
530.078583
526.1479754
521.9908475
520.4845597
518.8258145
515.7921859
512.7188311
512.2320665
510.9107909
508.9561621
507.4476793
508.1502359
509.3350927
508.8312121
508.3514777
511.5215673
514.0782076
515.9517213
516.5926506
516.3260113
517.8057074
523.7366511
527.7188632
529.9910806
531.3486711
533.5461043
538.8266263
542.8597351
546.5743748
552.6068472
557.6755257
562.4391472
569.3688079
575.5806595
584.7416886
593.3953181
598.5741537
609.9261834
623.1404481
632.0943453
649.6286513
664.7355393
682.0649884
703.3045133
713.0768898
734.3243605
754.1969858
773.5467838
799.0209839
823.8257308
851.5231654
880.719601
907.1816905
947.3967256
988.2834751
1023.693646
1077.39923
1129.570914
1183.315278
1238.6202
1301.98513
1358.895309
1397.317831
1459.309623
1503.585736
1547.619544
1584.038127
1613.197713
1636.616785
1650.608774
1676.803344
1705.722951
1731.400629
1751.144106
1767.745781
1781.671975
1794.446862
1805.648528
1815.289889
1823.278429
1829.716881
1834.921944
718.8761435
715.6610441
709.6921352
705.0255043
702.1632652
696.4233978
689.6553379
683.8526874
681.1914153
675.5173754
668.6175827
663.2628299
660.9663108
655.7939211
648.3955685
641.9400187
639.1515305
634.7156541
629.0561809
622.5359678
619.7799166
617.2043056
612.5643461
606.9378175
605.141142
602.491171
598.2779885
593.9455328
592.9605679
593.3906117
591.8171827
589.1234199
592.0187144
595.3822924
597.2381703
596.8844762
594.1489121
593.1764354
600.9500852
606.5315313
609.3447014
609.9505208
609.6741596
615.8889859
621.3329069
625.3867918
633.6979489
640.2388799
646.3069654
656.6779739
665.4747874
678.2407301
690.781356
697.6994451
714.3933368
732.5663116
738.5537744
758.5793731
777.2235084
798.7687605
826.4567236
847.6904059
876.3016128
901.3344282
925.996175
957.6050321
989.746198
1026.672013
1067.439124
1101.09128
1153.12959
1207.638188
1248.712153
1321.323482
1384.328799
1448.19984
1520.554675
1598.121986
1675.253029
1716.245925
1788.634637
1839.595913
1887.95239
1928.871066
1960.92976
1986.925186
2001.839299
2029.803519
2062.909759
2091.848866
2113.842858
2132.296102
2148.545742
2162.205005
2173.889668
2183.965539
2191.696069
2198.581295
2203.994359
869.0601426
865.355707
858.5207239
853.4941294
850.3355559
843.5542164
835.6371661
829.145326
826.3172729
819.6738144
811.4728543
805.3320312
802.92597
796.9411562
787.9865732
780.2339479
777.0987306
771.866026
764.951567
756.7497379
753.4317458
750.4546537
744.731878
737.3364998
734.9415634
731.6064759
725.9237326
719.7716055
717.9699733
718.2635341
716.0702439
712.1096686
715.6109824
720.0882776
722.201759
721.3995512
717.4126426
715.3377469
725.2822925
732.547049
736.06498
736.3031652
734.7203691
742.4820644
749.3878339
753.9713897
764.0852893
771.6779678
778.958412
792.0561013
802.33768
817.4925524
832.8478842
840.956526
861.4164574
883.8096092
891.4995781
912.9684611
934.3183369
959.5560925
993.8768409
1022.88408
1061.684853
1095.885611
1126.769412
1167.880041
1210.15781
1256.58077
1313.276658
1352.904584
1420.934223
1483.594813
1534.444785
1621.832404
1697.49389
1773.854884
1856.446325
1945.078158
2038.813635
2085.024131
2164.011322
2219.696228
2269.738241
2313.550653
2347.308765
2374.242079
2390.312511
2419.48846
2453.862813
2483.137645
2506.816616
2527.298271
2544.100805
2558.411667
2570.536301
2580.335545
2588.77589
2595.800145
2601.111464
1042.76037
1038.363392
1030.321979
1024.966945
1021.502408
1013.282788
1003.834878
996.6010621
993.7591331
986.0366961
976.3620455
969.486297
967.190656
960.4774243
949.9509805
941.043031
937.8142579
932.075789
924.1990208
914.5809007
911.1054784
908.0993414
901.8037808
893.0340872
890.5019149
886.9384681
880.3882355
873.0945439
870.9464282
871.4572808
868.9151712
864.0748872
868.3433148
874.103148
876.6441388
875.6021155
870.7621732
867.8685822
880.0338907
889.1249357
893.536929
893.5375216
890.8885154
900.3421602
909.1664897
914.433506
926.5957612
935.3982835
943.8243933
960.7362982
972.9922274
990.7774647
1010.887684
1019.731283
1045.734996
1074.641284
1086.185255
1111.758709
1135.598629
1165.242166
1212.497394
1243.866584
1299.226005
1343.173725
1382.388696
1431.744131
1488.286916
1541.14779
1611.88117
1661.50165
1739.953449
1816.423236
1869.633685
1968.259933
2054.13027
2138.744879
2227.057833
2320.517727
2424.362829
2477.498363
2557.965269
2616.362202
2673.09926
2718.657873
2754.22322
2782.29114
2797.612549
2828.845114
2863.079959
2892.162795
2915.309479
2938.299229
2955.859112
2970.021007
2982.830873
2992.631759
3001.467695
3008.9116
3014.864175
1250.390706
1245.114568
1235.517612
1229.789564
1225.945872
1215.673688
1204.079124
1195.8548
1193.073227
1183.86627
1172.106962
1164.225461
1162.212503
1154.475162
1141.666068
1131.050868
1127.766425
1121.335048
1112.313638
1100.357307
1096.906959
1093.984937
1087.147627
1076.207151
1073.79148
1070.063037
1062.518579
1053.852157
1051.425688
1052.50704
1049.695251
1043.822351
1049.357841
1057.245711
1060.771017
1059.665675
1053.796095
1049.53594
1065.762751
1077.561859
1083.600496
1083.608793
1079.476865
1091.749212
1104.231225
1110.22725
1126.573483
1137.10419
1147.221021
1170.488373
1184.212965
1207.300062
1233.956216
1243.993712
1276.909734
1314.196469
1331.795397
1363.544185
1390.806984
1422.903878
1483.617936
1516.892865
1583.913705
1640.692878
1686.573551
1747.157378
1810.472539
1872.828129
1952.32422
2010.091668
2096.963291
2178.918289
2236.421888
2338.23002
2431.754537
2516.045414
2616.620585
2708.625126
2814.691925
2867.856166
2945.633497
3001.363759
3055.762407
3100.870382
3134.302894
3161.708502
3181.32253
3205.607407
3236.871268
3261.105193
3287.195312
3304.659864
3322.228211
3335.191665
3346.623958
3356.775008
3365.889161
3373.142685
3377.57067
1495.099175
1489.100786
1478.242662
1472.362677
1468.244139
1455.636991
1441.920882
1433.034261
1430.521157
1419.941413
1406.069642
1397.239382
1395.74966
1387.099367
1371.807429
1359.460341
1356.225946
1349.109112
1338.87199
1324.404845
1320.974008
1318.315877
1310.910655
1297.544352
1295.295506
1291.488219
1282.90277
1272.670803
1270.010665
1271.997598
1269.042541
1261.960431
1269.212713
1280.206172
1285.276352
1284.319201
1277.23764
1271.425633
1292.468613
1308.258427
1316.654376
1317.031246
1311.373142
1326.617524
1344.102855
1351.513615
1372.785296
1385.602141
1397.732448
1428.055981
1444.113974
1471.985203
1505.660861
1517.54985
1556.894441
1601.030776
1624.826931
1664.8582
1695.488835
1730.239974
1798.320465
1831.829789
1905.631982
1973.640523
2022.500544
2093.528422
2159.54099
2227.418431
2313.409245
2375.986761
2468.17822