/*--------------------------------*- C++ -*----------------------------------*\
| =========                 |                                                 |
| \\      /  F ield         | OpenFOAM: The Open Source CFD Toolbox           |
|  \\    /   O peration     | Version:  v1706                                 |
|   \\  /    A nd           | Web:      www.OpenFOAM.com                      |
|    \\/     M anipulation  |                                                 |
\*---------------------------------------------------------------------------*/
FoamFile
{
    version     2.0;
    format      ascii;
    class       volVectorField;
    location    "0.00272";
    object      U;
}
// * * * * * * * * * * * * * * * * * * * * * * * * * * * * * * * * * * * * * //

dimensions      [0 1 -1 0 0 0 0];


internalField   nonuniform List<vector> 
11682
(
(11310 -2.977695916e-09 1.776775397e-10)
(11310 -1.088298667e-09 5.76865799e-10)
(11310 1.138286793e-10 -7.746118549e-11)
(11310 5.693039362e-10 -1.960551773e-10)
(11310 5.882431312e-10 -1.245449292e-10)
(11310 4.941928827e-10 -6.812380212e-11)
(11310 4.218653923e-10 -3.493048305e-11)
(11310 3.659113944e-10 -1.818732456e-11)
(11310 3.229119116e-10 -6.591112207e-12)
(11310 2.865531533e-10 2.055762097e-13)
(11310 2.641726523e-10 3.5272123e-12)
(11310 2.380311026e-10 4.317314339e-12)
(11310 2.165096218e-10 5.514420494e-12)
(11310 2.026865402e-10 5.375839146e-12)
(11310 1.876757041e-10 5.634585999e-12)
(11310 1.738596727e-10 1.976453351e-12)
(11310 1.654852129e-10 3.406810409e-12)
(11310 1.578207708e-10 3.468092902e-12)
(11310 1.498698106e-10 -1.107774614e-12)
(11310 1.377234062e-10 3.318451278e-12)
(11310 1.291706468e-10 -5.989363363e-13)
(11310 1.245218333e-10 5.339385386e-13)
(11310 1.195235753e-10 -2.279546223e-12)
(11310 1.028338899e-10 1.262606407e-14)
(11310 9.499916109e-11 -1.356618685e-12)
(11310 9.000107465e-11 -6.378999011e-12)
(11310 8.171724057e-11 2.438734866e-12)
(11310 5.571980454e-11 -6.376845251e-13)
(11310 3.406195919e-11 1.806188918e-12)
(11310 3.140202843e-11 -8.856261371e-12)
(11310 2.426316528e-11 -7.986843055e-12)
(11310 7.589475644e-12 4.113198255e-12)
(11310 7.393153206e-12 1.013965211e-11)
(11310 1.707227368e-11 1.593954892e-11)
(11310 2.106580115e-11 -2.14293171e-12)
(11310 2.278906696e-11 -5.944561082e-12)
(11310 1.909195908e-11 4.443212936e-12)
(11310 -8.090058022e-13 1.144478523e-11)
(11310 -9.13482834e-12 1.531037979e-11)
(11310 -2.202948563e-12 1.048161084e-11)
(11310 7.796029788e-12 -2.309609438e-12)
(11310 1.178268778e-11 -1.759284319e-11)
(11310 3.253633761e-12 -1.961242902e-11)
(11310 -2.718429752e-12 -2.092827142e-11)
(11310 -4.69436579e-12 -1.827682374e-11)
(11310 1.213615499e-12 -8.85171584e-12)
(11310 2.963514206e-13 -2.037066524e-12)
(11310 6.836417282e-12 7.510455835e-12)
(11310 1.41544206e-11 1.354332086e-11)
(11310 2.204599509e-11 2.007830844e-11)
(11310 2.668865431e-11 1.86361647e-11)
(11310 2.323993636e-11 1.704868618e-11)
(11310 2.778220267e-11 1.085576066e-11)
(11310 3.973208344e-11 3.503168978e-13)
(11310 4.598830071e-11 -8.673766578e-12)
(11310 4.871861137e-11 -1.50780962e-11)
(11310 4.991144556e-11 -1.514885473e-11)
(11310 4.846353041e-11 -1.250806705e-11)
(11310 4.589565892e-11 -3.691418029e-12)
(11310 4.206451588e-11 2.72301328e-12)
(11310 4.098432093e-11 8.867215741e-12)
(11310 3.379878453e-11 8.807539953e-12)
(11310 3.025698202e-11 8.052566457e-12)
(11310 1.483984743e-11 5.386008969e-12)
(11310 -6.6369235e-12 2.325897172e-12)
(11310 -1.91109034e-11 -7.512922732e-13)
(11310 -3.105807473e-11 -4.459417215e-12)
(11310 -3.9144117e-11 -6.345509128e-12)
(11310 -4.282775989e-11 -7.583973337e-12)
(11310 -3.856121565e-11 -3.47328201e-12)
(11310 -3.900559653e-11 -4.442651788e-14)
(11310 -2.935268343e-11 2.426019399e-12)
(11310 -4.37092199e-12 4.449192122e-12)
(11310 1.618530124e-11 5.183419064e-12)
(11310 2.815239664e-11 3.741225075e-12)
(11310 3.55452415e-11 1.315146101e-12)
(11310 3.895421898e-11 -1.034449999e-12)
(11310 4.067906373e-11 -2.665682124e-12)
(11310 3.466572902e-11 -3.193682869e-12)
(11310 3.031133735e-11 -4.675588776e-12)
(11310 3.715715495e-12 -1.677874313e-12)
(11310 -7.07645608e-13 -1.077295286e-12)
(11310 -1.609433882e-11 -3.366793057e-13)
(11310 -2.338916651e-11 8.740131559e-13)
(11310 -2.964830933e-11 1.156764539e-12)
(11310 -3.476518625e-11 2.321707164e-12)
(11310 -3.816233812e-11 2.538362863e-12)
(11310 -3.941133982e-11 3.622304583e-12)
(11310 -3.60822005e-11 3.052657155e-12)
(11310 -3.425856131e-11 2.89465404e-12)
(11310 -3.373624662e-11 2.799862605e-12)
(11310 -3.384668182e-11 2.64278681e-12)
(11310 -3.760349002e-11 2.444462212e-12)
(11310 -3.975232297e-11 2.196587816e-12)
(11310 -3.934715388e-11 2.151746441e-12)
(11310 -3.718505477e-11 2.05618741e-12)
(11310 -3.592272378e-11 1.663066901e-12)
(11310 -3.455430884e-11 1.296681012e-12)
(11310 -3.449668862e-11 9.370195902e-13)
(11310 7.826532579e-09 -2.243953326e-10)
(11310 1.429115556e-09 -2.668206156e-10)
(11310 1.940298034e-10 -6.456837382e-10)
(11310 -4.697041358e-10 -6.290487779e-11)
(11310 -5.951306862e-10 1.180630237e-10)
(11310 -5.196143393e-10 1.255853358e-10)
(11310 -4.545561947e-10 9.795616686e-11)
(11310 -4.00819733e-10 7.286591557e-11)
(11310 -3.50542862e-10 5.261616374e-11)
(11310 -3.195620593e-10 3.515672027e-11)
(11310 -2.916408718e-10 2.128553756e-11)
(11310 -2.619396523e-10 1.295145763e-11)
(11310 -2.437867631e-10 5.612352344e-12)
(11310 -2.228264395e-10 8.901713801e-13)
(11310 -2.107415883e-10 -5.219787757e-12)
(11310 -1.993969403e-10 -4.055009917e-12)
(11310 -1.866438457e-10 -2.218254001e-13)
(11310 -1.777909051e-10 -1.19212809e-11)
(11310 -1.607051785e-10 8.118785588e-13)
(11310 -1.537269302e-10 -5.832045038e-12)
(11310 -1.469808034e-10 -6.138960111e-12)
(11310 -1.381809781e-10 -2.906444091e-12)
(11310 -1.326471275e-10 -2.087443536e-12)
(11310 -1.154386886e-10 1.07785866e-12)
(11310 -1.043892136e-10 -8.23354646e-12)
(11310 -9.933141232e-11 1.414743167e-11)
(11310 -8.974691723e-11 2.012156067e-12)
(11310 -6.707477235e-11 1.444066011e-12)
(11310 -3.272169877e-11 -5.115615427e-12)
(11310 -3.065527175e-11 -2.299953631e-13)
(11310 -3.701566396e-11 3.319708965e-11)
(11310 -1.476843911e-11 1.91299591e-11)
(11310 -5.770174655e-12 5.392788624e-12)
(11310 -1.26860391e-11 -2.827092029e-11)
(11310 -2.473418946e-11 -1.99255302e-11)
(11310 -3.568721386e-11 1.242259948e-11)
(11310 -2.323248186e-11 1.231013067e-11)
(11310 9.020458549e-12 -6.746503969e-12)
(11310 2.181835611e-11 -2.887101648e-11)
(11310 1.145989244e-11 -4.5662042e-11)
(11310 -9.26694289e-12 -4.599996893e-11)
(11310 -1.891649986e-11 -1.583456933e-11)
(11310 -4.427933536e-12 1.002404972e-11)
(11310 6.088534247e-12 2.842289346e-11)
(11310 5.90129576e-12 4.692882962e-11)
(11310 3.375547367e-12 4.557331038e-11)
(11310 8.706865715e-12 4.664905052e-11)
(11310 -1.085999333e-12 3.100742415e-11)
(11310 -1.63170999e-11 1.433134391e-11)
(11310 -3.180247144e-11 -5.967296702e-12)
(11310 -3.647657718e-11 -2.495523906e-11)
(11310 -3.49861289e-11 -3.922259344e-11)
(11310 -3.944853877e-11 -4.874194188e-11)
(11310 -4.474517366e-11 -3.703818202e-11)
(11310 -4.676784291e-11 -2.447841543e-11)
(11310 -5.378393991e-11 -5.734864794e-13)
(11310 -5.814730965e-11 1.834136719e-11)
(11310 -5.9961334e-11 3.241780553e-11)
(11310 -5.512946832e-11 2.99278873e-11)
(11310 -5.150574275e-11 2.117199697e-11)
(11310 -4.428450701e-11 8.379975961e-12)
(11310 -3.487642709e-11 -5.803255635e-12)
(11310 -2.875846962e-11 -1.33818955e-11)
(11310 -1.224714767e-11 -1.685881092e-11)
(11310 1.303628949e-11 -1.644348097e-11)
(11310 2.942716834e-11 -1.517689596e-11)
(11310 4.204823133e-11 -7.109855768e-12)
(11310 4.87257018e-11 2.445769961e-12)
(11310 4.812948677e-11 1.221585017e-11)
(11310 4.50533592e-11 1.465287014e-11)
(11310 4.578983585e-11 1.160577284e-11)
(11310 3.086139571e-11 8.080742982e-12)
(11310 -2.144946506e-12 8.637306728e-13)
(11310 -2.411851223e-11 -5.847271067e-12)
(11310 -3.811122431e-11 -1.017170245e-11)
(11310 -4.383314072e-11 -1.054677251e-11)
(11310 -4.454099023e-11 -6.822465823e-12)
(11310 -4.652124402e-11 -2.076315903e-12)
(11310 -3.810672253e-11 1.651487567e-12)
(11310 -2.694511098e-11 6.377645871e-12)
(11310 1.102781957e-11 6.995169742e-12)
(11310 2.018115109e-11 6.874668894e-12)
(11310 3.385228219e-11 7.65996024e-12)
(11310 3.229333336e-11 4.973023543e-12)
(11310 4.010931115e-11 5.274336618e-12)
(11310 4.777874343e-11 2.372240124e-12)
(11310 4.555578931e-11 2.060124761e-12)
(11310 4.107383812e-11 -1.224596386e-12)
(11310 4.385453228e-11 -3.789281221e-12)
(11310 4.778617421e-11 -4.501584372e-12)
(11310 4.98082382e-11 -4.701350873e-12)
(11310 5.299149528e-11 -5.602206868e-12)
(11310 5.079289425e-11 -6.204961234e-12)
(11310 4.890396075e-11 -6.660875218e-12)
(11310 4.356170184e-11 -7.235977754e-12)
(11310 4.187593779e-11 -7.749477746e-12)
(11310 4.197627407e-11 -7.843243538e-12)
(11310 4.119790883e-11 -7.52373762e-12)
(11310 4.044542839e-11 -7.184598842e-12)
(11310 6.898595344e-10 -5.047448131e-10)
(11310 -1.222503623e-09 -2.079903587e-09)
(11310 1.010257124e-09 1.000508432e-09)
(11310 8.403872587e-10 8.587615512e-10)
(11310 7.201925765e-10 3.911411645e-10)
(11310 5.964273456e-10 1.565009862e-10)
(11310 5.076687293e-10 4.710947694e-11)
(11310 4.381810058e-10 2.634800348e-12)
(11310 3.931343061e-10 -2.580355298e-11)
(11310 3.442834797e-10 -3.630579504e-11)
(11310 3.094555311e-10 -3.6500405e-11)
(11310 2.824308444e-10 -3.140041574e-11)
(11310 2.654616003e-10 -2.865407061e-11)
(11310 2.444203029e-10 -2.334366028e-11)
(11310 2.27003399e-10 -1.830083075e-11)
(11310 2.019586187e-10 -3.891291334e-12)
(11310 1.982252601e-10 -1.457332864e-11)
(11310 1.821330823e-10 -2.342275954e-12)
(11310 1.81258435e-10 3.690898871e-12)
(11310 1.627153103e-10 -8.383823803e-12)
(11310 1.526889561e-10 9.537995859e-12)
(11310 1.449260084e-10 4.050115318e-13)
(11310 1.40586506e-10 1.174876952e-11)
(11310 1.222273692e-10 -2.385870627e-12)
(11310 1.201658266e-10 1.594162068e-11)
(11310 1.065591869e-10 1.149775454e-11)
(11310 9.427514666e-11 -1.129311002e-11)
(11310 7.363266085e-11 8.991840631e-13)
(11310 5.022062389e-11 -3.359437254e-12)
(11310 2.281658636e-11 3.863104608e-11)
(11310 3.150070348e-11 5.935878376e-13)
(11310 3.757719942e-11 -3.687186086e-11)
(11310 2.110897941e-11 -5.097494878e-11)
(11310 1.142077043e-12 -3.555271322e-11)
(11310 5.5193514e-12 3.032556434e-11)
(11310 1.592799097e-11 1.128181824e-11)
(11310 2.355579603e-11 -3.078804735e-11)
(11310 1.28887813e-11 -4.281523672e-11)
(11310 6.382494947e-12 -3.534833108e-11)
(11310 -1.165544011e-11 5.019684975e-12)
(11310 -2.359951752e-11 5.71180748e-11)
(11310 -1.968958304e-12 8.921945648e-11)
(11310 6.739609696e-12 7.589781595e-11)
(11310 8.693791494e-12 6.257614934e-11)
(11310 8.996583477e-12 2.76344321e-11)
(11310 -4.198923307e-12 -9.022358792e-12)
(11310 -8.043351504e-12 -4.165857509e-11)
(11310 9.858926696e-13 -6.579778112e-11)
(11310 7.906805766e-12 -7.459510063e-11)
(11310 1.884057578e-11 -7.808183445e-11)
(11310 3.450733599e-11 -5.596107997e-11)
(11310 3.616402086e-11 -3.083385078e-11)
(11310 3.761360937e-11 9.200478837e-12)
(11310 3.274296499e-11 4.054867516e-11)
(11310 4.074541431e-11 6.477781235e-11)
(11310 4.933233724e-11 6.823701338e-11)
(11310 5.405882679e-11 4.612709869e-11)
(11310 5.790364614e-11 1.984456152e-11)
(11310 5.146856991e-11 -1.330306949e-11)
(11310 5.799494402e-11 -3.372320563e-11)
(11310 4.62062772e-11 -4.559694229e-11)
(11310 4.091630647e-11 -3.138569604e-11)
(11310 2.747820235e-11 -2.067752618e-11)
(11310 9.603275717e-12 -7.365181282e-12)
(11310 -1.491271879e-11 6.6480578e-12)
(11310 -3.223346021e-11 1.973860224e-11)
(11310 -4.178290855e-11 2.796427195e-11)
(11310 -4.872348203e-11 2.661502882e-11)
(11310 -5.026897512e-11 1.989486111e-11)
(11310 -5.07686857e-11 -1.933282075e-13)
(11310 -4.413918881e-11 -1.196362312e-11)
(11310 -3.020422006e-11 -1.958879643e-11)
(11310 4.284932607e-12 -2.082261942e-11)
(11310 3.043590141e-11 -1.640515301e-11)
(11310 4.380420326e-11 -5.721959624e-12)
(11310 4.489226147e-11 5.789614662e-12)
(11310 4.73332059e-11 1.196668391e-11)
(11310 4.801207365e-11 1.350429399e-11)
(11310 3.663515679e-11 1.243524773e-11)
(11310 2.267367018e-11 1.209558076e-11)
(11310 -1.130317657e-11 5.171756913e-13)
(11310 -1.699149902e-11 -1.836738034e-12)
(11310 -1.801728569e-11 -6.504935577e-12)
(11310 -3.70665207e-11 -8.547821647e-12)
(11310 -4.879644559e-11 -1.115527655e-11)
(11310 -4.639785171e-11 -1.368291662e-11)
(11310 -4.229740004e-11 -1.167970607e-11)
(11310 -5.163290587e-11 -1.338686083e-11)
(11310 -5.380327212e-11 -9.579441194e-12)
(11310 -5.602993443e-11 -8.52048563e-12)
(11310 -5.31794264e-11 -8.249617804e-12)
(11310 -3.598966031e-11 -6.547157757e-12)
(11310 -3.507034379e-11 -3.830564317e-12)
(11310 -3.604896056e-11 -2.743602322e-12)
(11310 -4.16425276e-11 -1.357179689e-12)
(11310 -4.231895614e-11 -7.472249527e-13)
(11310 -4.376978655e-11 1.370727646e-12)
(11310 -5.020185112e-11 2.814145072e-12)
(11310 -5.105564511e-11 3.335207433e-12)
(11310 1.316509427e-08 6.185482951e-10)
(11310 2.860687316e-09 1.057679274e-09)
(11310 -1.242355688e-09 1.264188807e-09)
(11310 -1.042190006e-09 -1.031652769e-11)
(11310 -7.75414211e-10 -3.417320603e-10)
(11310 -6.129145059e-10 -3.182777674e-10)
(11310 -5.067160942e-10 -2.345849117e-10)
(11310 -4.488525124e-10 -1.684849693e-10)
(11310 -3.905522027e-10 -1.150064901e-10)
(11310 -3.62930123e-10 -7.337105169e-11)
(11310 -3.222805595e-10 -4.117360219e-11)
(11310 -2.950355238e-10 -2.337036336e-11)
(11310 -2.737332544e-10 -6.907510336e-12)
(11310 -2.619606934e-10 2.862986175e-12)
(11310 -2.332880042e-10 1.584367907e-11)
(11310 -2.295351039e-10 9.845509136e-12)
(11310 -2.13446159e-10 3.694970028e-12)
(11310 -1.98243498e-10 2.79010342e-11)
(11310 -1.939399434e-10 -2.693805893e-12)
(11310 -1.677239209e-10 1.636472471e-11)
(11310 -1.711123846e-10 1.095787338e-11)
(11310 -1.601899787e-10 6.688473662e-12)
(11310 -1.464892503e-10 2.074567547e-12)
(11310 -1.326703036e-10 -9.331093802e-13)
(11310 -1.141927754e-10 1.56633915e-11)
(11310 -1.099585833e-10 -3.461199509e-11)
(11310 -1.113709953e-10 -3.041721773e-12)
(11310 -6.257620769e-11 -6.963587855e-12)
(11310 -4.121067363e-11 1.676700252e-11)
(11310 -2.647421054e-11 -1.137638671e-11)
(11310 -5.383550845e-12 -7.664415464e-11)
(11310 -1.560169644e-11 -3.99980826e-11)
(11310 -2.250868777e-11 2.145318732e-12)
(11310 -3.340579708e-12 7.496033762e-11)
(11310 6.350266158e-12 3.547629728e-11)
(11310 7.877383505e-12 -2.957762284e-11)
(11310 -1.172239112e-11 -2.330668239e-11)
(11310 -1.945612711e-11 2.809112096e-11)
(11310 -2.385832541e-11 7.961519633e-11)
(11310 -1.032270279e-11 1.037875101e-10)
(11310 1.2942718e-11 9.282231901e-11)
(11310 1.945902155e-11 1.808105908e-11)
(11310 8.204177085e-12 -3.94031134e-11)
(11310 9.387591646e-12 -8.716790243e-11)
(11310 -3.610773941e-12 -1.137786601e-10)
(11310 -5.72594433e-12 -1.092788524e-10)
(11310 -5.384071433e-12 -9.432978086e-11)
(11310 -2.083729662e-11 -5.79046098e-11)
(11310 -4.171515091e-13 -1.631245902e-11)
(11310 -1.470505622e-12 3.499725471e-11)
(11310 -9.930851155e-12 7.181540926e-11)
(11310 -1.434232311e-11 1.006504337e-10)
(11310 -4.931768895e-11 1.071148137e-10)
(11310 -6.137524075e-11 7.93389595e-11)
(11310 -6.110432616e-11 3.590670988e-11)
(11310 -6.117052823e-11 -1.691503241e-11)
(11310 -5.381268057e-11 -5.629034153e-11)
(11310 -4.797647715e-11 -7.978470115e-11)
(11310 -5.785512994e-11 -6.956365064e-11)
(11310 -5.840067104e-11 -4.056242619e-11)
(11310 -4.619969638e-11 -6.899876491e-12)
(11310 -3.572515913e-11 1.944930204e-11)
(11310 -2.663391692e-11 3.699544908e-11)
(11310 2.162129673e-12 4.358821661e-11)
(11310 2.011695142e-11 4.004640754e-11)
(11310 3.527758651e-11 3.152345439e-11)
(11310 4.511462595e-11 9.637962059e-12)
(11310 5.860575595e-11 -1.480506333e-11)
(11310 5.666852066e-11 -3.616296579e-11)
(11310 4.853666322e-11 -3.471717073e-11)
(11310 5.131542708e-11 -2.586882007e-11)
(11310 2.944928299e-11 -1.376174964e-11)
(11310 -9.768204212e-12 2.750148936e-12)
(11310 -3.614789256e-11 1.935735363e-11)
(11310 -4.436702731e-11 2.821824072e-11)
(11310 -5.268587786e-11 2.24169315e-11)
(11310 -5.105914703e-11 1.274615671e-11)
(11310 -4.765991543e-11 1.029571401e-12)
(11310 -3.342595281e-11 -7.199836595e-12)
(11310 -1.634022784e-11 -1.591218285e-11)
(11310 1.796972742e-11 -1.705458155e-11)
(11310 3.368845222e-11 -1.684067944e-11)
(11310 4.600037321e-11 -1.767762892e-11)
(11310 5.790209985e-11 -1.018099037e-11)
(11310 5.757256933e-11 -8.907305987e-12)
(11310 5.58821664e-11 -1.762607922e-12)
(11310 6.297809749e-11 2.232725266e-12)
(11310 6.006925915e-11 2.773757415e-12)
(11310 4.957811079e-11 9.339608323e-12)
(11310 4.547182003e-11 1.258095489e-11)
(11310 4.001781323e-11 1.42502048e-11)
(11310 4.514165019e-11 1.591503104e-11)
(11310 5.965455208e-11 1.572892662e-11)
(11310 6.563221302e-11 1.613591138e-11)
(11310 6.383026061e-11 1.678361984e-11)
(11310 6.361390087e-11 1.689254508e-11)
(11310 6.442120233e-11 1.657196699e-11)
(11310 5.904368006e-11 1.653713477e-11)
(11310 5.6626468e-11 1.605607136e-11)
(11310 4.292870982e-09 8.541064988e-10)
(11310 -5.471730335e-10 3.762058422e-09)
(11310 -7.787046302e-11 -1.874827037e-09)
(11310 9.532932521e-10 -1.552156273e-09)
(11310 9.395609401e-10 -6.847367957e-10)
(11310 7.5651644e-10 -2.649073331e-10)
(11310 6.451124631e-10 -7.241640459e-11)
(11310 5.3914487e-10 3.953231761e-12)
(11310 4.76984571e-10 5.122172001e-11)
(11310 4.011006888e-10 6.819932476e-11)
(11310 3.913743654e-10 6.673003747e-11)
(11310 3.470986513e-10 5.712562376e-11)
(11310 3.019318781e-10 5.120086211e-11)
(11310 2.849863621e-10 4.143452545e-11)
(11310 2.695503835e-10 3.18098118e-11)
(11310 2.412881607e-10 6.086470661e-12)
(11310 2.326216771e-10 2.623047757e-11)
(11310 2.249742926e-10 2.482268315e-12)
(11310 2.091609783e-10 -6.128241033e-12)
(11310 2.043916441e-10 1.402517178e-11)
(11310 1.705361049e-10 -1.802399251e-11)
(11310 1.737531415e-10 -7.855406757e-13)
(11310 1.755840544e-10 -2.138440171e-11)
(11310 1.383793227e-10 6.239414443e-12)
(11310 1.378874395e-10 -3.158946199e-11)
(11310 1.319650847e-10 -1.835908536e-11)
(11310 9.236152155e-11 1.741035254e-11)
(11310 5.170997555e-11 2.454351119e-12)
(11310 5.50942798e-11 5.877467717e-12)
(11310 6.415010212e-11 -6.730393096e-11)
(11310 1.101590594e-11 4.967964169e-12)
(11310 -2.126869206e-11 7.312058816e-11)
(11310 1.006946222e-11 9.76939092e-11)
(11310 5.108938614e-11 4.544646798e-11)
(11310 4.857365876e-11 -5.404912347e-11)
(11310 3.785648136e-11 -1.240430666e-11)
(11310 -2.841130076e-12 5.745244529e-11)
(11310 -2.329089573e-11 8.216669357e-11)
(11310 7.521704035e-12 4.896678894e-11)
(11310 3.20743985e-11 -2.142251098e-11)
(11310 2.071284975e-11 -1.105474316e-10)
(11310 3.010498911e-11 -1.613455372e-10)
(11310 1.20224895e-12 -1.442583817e-10)
(11310 -1.62426382e-11 -1.01307296e-10)
(11310 -1.654665281e-11 -3.488017503e-11)
(11310 -3.108544096e-12 2.262394537e-11)
(11310 3.624337363e-11 8.360517803e-11)
(11310 3.237931574e-11 1.201699775e-10)
(11310 2.226342548e-11 1.438355409e-10)
(11310 1.935811528e-11 1.334662939e-10)
(11310 1.91299889e-11 1.032623867e-10)
(11310 3.871832282e-11 4.449430842e-11)
(11310 5.420577621e-11 -2.375857456e-11)
(11310 5.797208456e-11 -8.180672832e-11)
(11310 7.232261533e-11 -1.187692592e-10)
(11310 7.235858932e-11 -1.208623452e-10)
(11310 6.44369461e-11 -8.189070261e-11)
(11310 7.061213505e-11 -2.303334551e-11)
(11310 5.825661214e-11 2.956687276e-11)
(11310 5.132172465e-11 6.479232569e-11)
(11310 3.754019828e-11 7.705891966e-11)
(11310 5.075169099e-11 6.124063155e-11)
(11310 3.61604847e-11 3.620263896e-11)
(11310 3.048041535e-12 1.106707487e-11)
(11310 -2.065308045e-11 -1.780021862e-11)
(11310 -3.844749691e-11 -4.376401879e-11)
(11310 -4.615277082e-11 -5.721237135e-11)
(11310 -5.54313137e-11 -4.938308629e-11)
(11310 -5.563955506e-11 -2.577118982e-11)
(11310 -5.826548023e-11 4.501292186e-12)
(11310 -4.942331474e-11 2.502445856e-11)
(11310 -1.656337507e-11 3.728560414e-11)
(11310 1.704890349e-11 4.021671616e-11)
(11310 3.461851269e-11 2.898596379e-11)
(11310 5.231124226e-11 6.132517281e-12)
(11310 5.251549392e-11 -1.549502431e-11)
(11310 5.42758168e-11 -2.468117845e-11)
(11310 5.919787767e-11 -2.527964232e-11)
(11310 4.168808721e-11 -2.091689917e-11)
(11310 1.079781131e-11 -1.904610417e-11)
(11310 -2.269283677e-11 -1.332929145e-12)
(11310 -3.530733603e-11 4.118360362e-12)
(11310 -2.928942017e-11 1.340651984e-11)
(11310 -3.034503764e-11 1.793033582e-11)
(11310 -4.239566638e-11 2.24789736e-11)
(11310 -4.063794829e-11 2.403885017e-11)
(11310 -3.645335219e-11 2.090577747e-11)
(11310 -3.900733885e-11 2.009612966e-11)
(11310 -4.756728777e-11 1.793446355e-11)
(11310 -5.236046002e-11 1.546539345e-11)
(11310 -5.61867649e-11 1.3654712e-11)
(11310 -6.146041245e-11 9.870752863e-12)
(11310 -6.28740676e-11 7.095911046e-12)
(11310 -4.656869885e-11 3.275764173e-12)
(11310 -4.425225694e-11 7.985701221e-13)
(11310 -3.675955738e-11 -2.018074197e-12)
(11310 -3.161326999e-11 -3.465089578e-12)
(11310 -3.661995585e-11 -5.370170647e-12)
(11310 -4.173434427e-11 -6.804230326e-12)
(11310 1.80463895e-08 -9.604433329e-10)
(11310 1.995015277e-09 -1.921145835e-09)
(11310 1.706697e-09 -1.948501837e-09)
(11310 -1.461946104e-10 3.364082865e-11)
(11310 -6.22962018e-10 5.231670292e-10)
(11310 -6.3044599e-10 4.84449444e-10)
(11310 -5.545582828e-10 3.574818532e-10)
(11310 -5.124243935e-10 2.581419408e-10)
(11310 -4.379839661e-10 1.764011408e-10)
(11310 -4.200515529e-10 1.130760137e-10)
(11310 -3.595576114e-10 6.378713594e-11)
(11310 -3.276818884e-10 3.636433195e-11)
(11310 -3.299643284e-10 1.107651035e-11)
(11310 -2.899546068e-10 -3.91790311e-12)
(11310 -2.711437313e-10 -2.410072475e-11)
(11310 -2.716645055e-10 -1.461699647e-11)
(11310 -2.42174147e-10 -5.698506028e-12)
(11310 -2.307530746e-10 -4.231996315e-11)
(11310 -2.163957385e-10 4.139197376e-12)
(11310 -1.899856535e-10 -2.640474851e-11)
(11310 -1.971981245e-10 -1.56584172e-11)
(11310 -1.849398518e-10 -1.074218694e-11)
(11310 -1.697004689e-10 -2.662332407e-12)
(11310 -1.597742835e-10 7.004806832e-13)
(11310 -1.165381418e-10 -2.484514051e-11)
(11310 -1.130265683e-10 5.150452103e-11)
(11310 -1.375212912e-10 7.676656021e-12)
(11310 -8.078553427e-11 1.686677704e-11)
(11310 -2.981349613e-12 -3.154451826e-11)
(11310 -3.07531883e-11 1.878470279e-11)
(11310 -7.180555621e-11 1.151825291e-10)
(11310 -4.707852436e-12 6.621986613e-11)
(11310 2.175095417e-11 -1.398781113e-11)
(11310 -1.360623509e-11 -1.15815558e-10)
(11310 -3.102456085e-11 -4.557216701e-11)
(11310 -6.10502567e-11 3.817441206e-11)
(11310 -1.868241305e-11 3.587511972e-11)
(11310 3.460387822e-11 -5.258944942e-11)
(11310 7.326765174e-11 -1.347018841e-10)
(11310 3.540021376e-11 -1.555422601e-10)
(11310 -3.064511895e-11 -1.369927302e-10)
(11310 -5.169070207e-11 -2.592026602e-11)
(11310 -3.714211899e-11 6.721123454e-11)
(11310 5.163857954e-12 1.438868366e-10)
(11310 2.881028756e-11 1.72182582e-10)
(11310 3.534623334e-11 1.768574472e-10)
(11310 3.1321641e-11 1.420675609e-10)
(11310 -1.249991298e-11 9.24571397e-11)
(11310 -3.391374977e-11 2.700709545e-11)
(11310 -4.759348597e-11 -5.968359404e-11)
(11310 -4.682676299e-11 -1.169748745e-10)
(11310 -2.364999759e-11 -1.70029978e-10)
(11310 -2.976945043e-11 -1.609900828e-10)
(11310 -5.271786517e-11 -1.319926046e-10)
(11310 -6.556885369e-11 -4.508184589e-11)
(11310 -7.547595013e-11 2.545599381e-11)
(11310 -7.803039738e-11 9.386755507e-11)
(11310 -6.944411951e-11 1.206343557e-10)
(11310 -5.901071211e-11 1.082362984e-10)
(11310 -5.880435332e-11 6.108937656e-11)
(11310 -4.302770356e-11 1.004848143e-11)
(11310 -3.699817126e-11 -2.850928058e-11)
(11310 -1.257739793e-11 -5.988721513e-11)
(11310 1.543002898e-11 -7.265864204e-11)
(11310 3.935143092e-11 -7.309135603e-11)
(11310 5.656621743e-11 -4.481828218e-11)
(11310 7.132712223e-11 -9.412939282e-12)
(11310 7.405868979e-11 3.173281096e-11)
(11310 6.933495994e-11 5.778622772e-11)
(11310 5.910563364e-11 5.703113335e-11)
(11310 5.756086658e-11 4.04309466e-11)
(11310 9.704736718e-12 1.900490484e-11)
(11310 -2.65454135e-11 -8.412948332e-12)
(11310 -5.067238185e-11 -3.464953931e-11)
(11310 -5.469336974e-11 -4.642376188e-11)
(11310 -5.991811217e-11 -3.418141408e-11)
(11310 -5.624616321e-11 -1.755117841e-11)
(11310 -5.794555253e-11 6.17981915e-13)
(11310 -2.683233303e-11 1.319577656e-11)
(11310 4.289288094e-12 2.368435987e-11)
(11310 3.679375469e-11 2.845118365e-11)
(11310 4.58632566e-11 2.848275073e-11)
(11310 5.875719072e-11 2.698954828e-11)
(11310 6.553398883e-11 1.55793642e-11)
(11310 6.894982367e-11 1.070323201e-11)
(11310 6.703290895e-11 2.332994597e-12)
(11310 6.794494579e-11 -4.595378754e-12)
(11310 6.600405633e-11 -7.647898219e-12)
(11310 6.982444834e-11 -1.401495346e-11)
(11310 6.845276461e-11 -1.781426265e-11)
(11310 6.739872743e-11 -2.019863231e-11)
(11310 6.62617518e-11 -2.259642035e-11)
(11310 5.829387561e-11 -2.311464206e-11)
(11310 6.118364141e-11 -2.308794411e-11)
(11310 6.608574145e-11 -2.33859711e-11)
(11310 7.764846538e-11 -2.544682128e-11)
(11310 8.01229734e-11 -2.604925961e-11)
(11310 7.532186118e-11 -2.376051623e-11)
(11310 7.050097672e-11 -2.304257141e-11)
(11310 7.720605052e-09 -1.185893504e-09)
(11310 -9.477762299e-10 -5.202560028e-09)
(11310 2.394559807e-09 2.624205003e-09)
(11310 1.385099286e-09 2.13891115e-09)
(11310 1.103789225e-09 9.593429173e-10)
(11310 8.565760727e-10 3.862410765e-10)
(11310 7.542787892e-10 1.175603933e-10)
(11310 6.261347499e-10 7.177217243e-12)
(11310 5.69217218e-10 -6.176364208e-11)
(11310 4.862321417e-10 -8.836934334e-11)
(11310 4.510642447e-10 -8.860467114e-11)
(11310 4.274690559e-10 -7.714979585e-11)
(11310 3.552472447e-10 -6.983667617e-11)
(11310 3.455553645e-10 -5.718712113e-11)
(11310 3.253972424e-10 -4.477641284e-11)
(11310 2.829759253e-10 -8.962317044e-12)
(11310 2.762197357e-10 -3.67030375e-11)
(11310 2.644508512e-10 -5.23041494e-12)
(11310 2.467133487e-10 7.949307489e-12)
(11310 2.443257276e-10 -2.019693766e-11)
(11310 2.104550638e-10 2.434351025e-11)
(11310 1.971822443e-10 4.770710574e-13)
(11310 1.976187352e-10 3.004918052e-11)
(11310 1.6137708e-10 -1.102529747e-11)
(11310 1.778951496e-10 4.449214458e-11)
(11310 1.629306861e-10 2.864838538e-11)
(11310 1.103996034e-10 -1.774054124e-11)
(11310 9.038472479e-11 -9.982979149e-12)
(11310 5.246693389e-11 -1.193367583e-11)
(11310 2.065898969e-11 9.37271131e-11)
(11310 6.772284324e-11 -3.136114767e-12)
(11310 6.202659827e-11 -1.053288236e-10)
(11310 1.120722517e-11 -1.426527313e-10)
(11310 -1.846795415e-11 -4.876187694e-11)
(11310 1.719834264e-11 6.396389032e-11)
(11310 2.531041914e-11 1.213080864e-11)
(11310 5.350644075e-11 -7.679423704e-11)
(11310 2.861307491e-11 -1.32874026e-10)
(11310 -2.131342722e-12 -5.317283958e-11)
(11310 -2.83180275e-11 3.690185984e-11)
(11310 -3.460764646e-11 1.591363743e-10)
(11310 -1.696267839e-11 2.241134683e-10)
(11310 2.509573668e-11 2.155850772e-10)
(11310 2.605026678e-11 1.393475747e-10)
(11310 -1.797324529e-12 4.697751437e-11)
(11310 -1.881908202e-11 -2.683635607e-11)
(11310 -8.446106224e-12 -1.206062529e-10)
(11310 3.799263394e-12 -1.704808097e-10)
(11310 1.664389465e-11 -2.134580748e-10)
(11310 3.692908717e-11 -1.880167497e-10)
(11310 4.912074804e-11 -1.536199257e-10)
(11310 6.038950595e-11 -6.662143668e-11)
(11310 7.316303131e-11 4.0304496e-11)
(11310 4.898244841e-11 1.214653885e-10)
(11310 5.606350114e-11 1.660282681e-10)
(11310 7.112154582e-11 1.643997298e-10)
(11310 7.589647232e-11 1.197545223e-10)
(11310 7.99485978e-11 3.299277862e-11)
(11310 8.215553852e-11 -3.706062568e-11)
(11310 7.61863803e-11 -9.30791558e-11)
(11310 5.205414586e-11 -1.028324613e-10)
(11310 5.674285319e-11 -9.755189374e-11)
(11310 3.512685615e-11 -5.525476945e-11)
(11310 -4.549717656e-12 -2.096306354e-11)
(11310 -4.015273601e-11 2.801094209e-11)
(11310 -6.080497655e-11 7.009031621e-11)
(11310 -5.836030177e-11 8.877102442e-11)
(11310 -6.337377051e-11 7.181536745e-11)
(11310 -5.439656071e-11 2.827091126e-11)
(11310 -6.753640747e-11 -6.553019721e-12)
(11310 -4.741415754e-11 -3.762819494e-11)
(11310 -2.278003697e-12 -5.40519235e-11)
(11310 3.457699262e-11 -6.508118736e-11)
(11310 5.661477107e-11 -3.693508635e-11)
(11310 7.749473618e-11 -3.87461584e-12)
(11310 7.133868506e-11 2.461782654e-11)
(11310 6.479675644e-11 3.59539241e-11)
(11310 6.475305206e-11 3.686484664e-11)
(11310 2.713928893e-11 2.783161534e-11)
(11310 -4.732786346e-12 2.457693282e-11)
(11310 -3.898377221e-11 3.012385702e-12)
(11310 -4.832243609e-11 -7.828425268e-12)
(11310 -5.274336373e-11 -1.952629575e-11)
(11310 -6.240283161e-11 -2.665651019e-11)
(11310 -6.388520061e-11 -3.185123783e-11)
(11310 -6.689840242e-11 -3.040730612e-11)
(11310 -5.895541356e-11 -3.011870939e-11)
(11310 -5.979682368e-11 -2.708950834e-11)
(11310 -5.909818568e-11 -2.567372829e-11)
(11310 -6.512107474e-11 -1.881623858e-11)
(11310 -7.059762952e-11 -1.616656836e-11)
(11310 -7.07563777e-11 -1.347578971e-11)
(11310 -7.173260149e-11 -9.164843989e-12)
(11310 -7.522621974e-11 -7.290931449e-12)
(11310 -6.386126092e-11 -2.280257433e-12)
(11310 -5.898642563e-11 5.667736145e-13)
(11310 -5.396080976e-11 2.275584382e-12)
(11310 -4.892234112e-11 5.152956866e-12)
(11310 -5.004033879e-11 6.65443297e-12)
(11310 2.413302e-08 1.168029305e-09)
(11310 4.920682014e-09 2.525654225e-09)
(11310 -2.234354487e-09 2.625194837e-09)
(11310 -1.485433989e-09 1.087296067e-10)
(11310 -1.032502495e-09 -5.859643815e-10)
(11310 -8.096469682e-10 -5.838151142e-10)
(11310 -6.50738535e-10 -4.449327966e-10)
(11310 -5.950082456e-10 -3.272101963e-10)
(11310 -5.033341749e-10 -2.288371735e-10)
(11310 -4.828416599e-10 -1.505839946e-10)
(11310 -4.259842266e-10 -8.77996979e-11)
(11310 -3.712983632e-10 -5.218137797e-11)
(11310 -3.865362208e-10 -1.939740763e-11)
(11310 -3.444840943e-10 5.152821983e-13)
(11310 -3.151503824e-10 2.729572333e-11)
(11310 -3.020935366e-10 1.764291064e-11)
(11310 -2.842500379e-10 4.753429012e-12)
(11310 -2.648193407e-10 5.334520997e-11)
(11310 -2.56818736e-10 -4.762772402e-12)
(11310 -2.219186949e-10 3.382395209e-11)
(11310 -2.252892395e-10 2.062738891e-11)