/*--------------------------------*- C++ -*----------------------------------*\
| =========                 |                                                 |
| \\      /  F ield         | OpenFOAM: The Open Source CFD Toolbox           |
|  \\    /   O peration     | Version:  v1706                                 |
|   \\  /    A nd           | Web:      www.OpenFOAM.com                      |
|    \\/     M anipulation  |                                                 |
\*---------------------------------------------------------------------------*/
FoamFile
{
    version     2.0;
    format      ascii;
    class       volScalarField;
    location    "0.00272";
    object      wallHeatFlux;
}
// * * * * * * * * * * * * * * * * * * * * * * * * * * * * * * * * * * * * * //

dimensions      [1 0 -3 0 0 0 0];


internalField   uniform 0;

boundaryField
{
    inlet
    {
        type            calculated;
        value           uniform 0;
    }
    outlet
    {
        type            calculated;
        value           uniform 0;
    }
    fire
    {
        type            calculated;
        value           nonuniform List<scalar> 
118
(
1110749.504
1110013.512
1109432.098
1106447.128
1102460.463
1100798.905
1097909.985
1092918.359
1091729.781
1092927.575
1094015.828
1088685.694
1087765.99
1089325.363
1093020.639
1092844.072
1093854.249
1094931.425
1097039.158
1096019.954
1096427.118
1097878.18
1091202.529
1087571.071
1086025.306
1086288.047
1090748.619
1090216.147
1088270.587
1090497.392
1090738.396
1090268.484
1090778.345
1086049.876
1079539.586
1078816.678
1079066.953
1084206.362
1082180.763
1076701.95
1075191.105
1076004.241
1078507.782
1080816.529
1075712.657
1068473.924
1067467.294
1068104.295
1075420.318
1074266.481
1069347.209
1068706.927
1061636.586
1061004.178
1063355.952
1064123.443
1058446.506
1059062.876
1054102.314
1056113.265
1058963.922
1053732.645
1053557.237
1044031.992
1042709.621
1050857.004
1055069.524
1050844.597
1050507.328
1053623.109
1049111.9
1047882.423
1054614.888
1056755.009
1057805.044
1057553.665
1061836.733
1069806.154
1076963.002
1081229.41
1085623.883
1093400.625
1098023.268
1104861.25
1107172.814
1109069.118
1111783.789
1117626.018
1125699.277
1129352.569
1130155.479
1133003.488
1136717.28
1141690.762
1143338.678
1146161.391
1151006.899
1159532.85
1183429.618
1148437.063
1091727.341
1049165.374
938509.7337
996056.4263
808403.0233
818722.9679
694592.0857
584709.1936
558198.3407
560332.2089
596804.9476
516411.4599
461951.1297
412526.784
366555.545
312418.2805
280263.9892
249127.9366
)
;
    }
    lWedge
    {
        type            wedge;
    }
    rWedge
    {
        type            wedge;
    }
}


// ************************************************************************* //
