/*--------------------------------*- C++ -*----------------------------------*\
| =========                 |                                                 |
| \\      /  F ield         | OpenFOAM: The Open Source CFD Toolbox           |
|  \\    /   O peration     | Version:  v1706                                 |
|   \\  /    A nd           | Web:      www.OpenFOAM.com                      |
|    \\/     M anipulation  |                                                 |
\*---------------------------------------------------------------------------*/
FoamFile
{
    version     2.0;
    format      ascii;
    class       volScalarField;
    location    "0.00272";
    object      X_e-;
}
// * * * * * * * * * * * * * * * * * * * * * * * * * * * * * * * * * * * * * //

dimensions      [0 0 0 0 0 0 0];


internalField   nonuniform List<scalar> 
11682
(
0
1.110223025e-16
0
0
0
1.110223025e-16
0
1.110223025e-16
0
0
0
0
0
0
1.110223025e-16
0
0
0
0
0
0
1.110223025e-16
1.110223025e-16
0
0
0
0
0
0
0
0
0
0
1.110223025e-16
0
0
0
0
0
0
0
0
1.110223025e-16
1.110223025e-16
0
0
0
0
0
0
1.110223025e-16
1.110223025e-16
1.110223025e-16
0
0
1.110223025e-16
0
1.110223025e-16
0
1.110223025e-16
0
1.110223025e-16
0
0
0
0
0
0
0
0
0
0
0
2.220446049e-16
0
0
1.110223025e-16
1.110223025e-16
0
0
0
0
0
0
0
0
0
1.110223025e-16
0
0
0
1.110223025e-16
0
0
0
0
0
0
0
0
0
0
0
0
0
0
0
0
0
0
0
0
1.110223025e-16
0
0
0
0
0
0
0
1.110223025e-16
0
2.220446049e-16
1.110223025e-16
0
0
0
1.110223025e-16
0
0
0
0
1.110223025e-16
0
0
0
0
0
0
0
0
0
1.110223025e-16
0
1.110223025e-16
0
0
0
0
0
0
0
0
0
1.110223025e-16
0
0
0
0
0
0
0
0
0
0
0
0
0
0
1.110223025e-16
0
1.110223025e-16
2.220446049e-16
0
0
0
1.110223025e-16
1.110223025e-16
0
0
0
0
0
1.110223025e-16
1.110223025e-16
0
0
0
0
0
1.110223025e-16
0
0
0
0
0
0
1.110223025e-16
0
0
0
1.110223025e-16
0
1.110223025e-16
1.110223025e-16
0
1.110223025e-16
0
0
0
1.110223025e-16
0
0
0
0
0
1.110223025e-16
0
0
1.110223025e-16
1.110223025e-16
1.110223025e-16
0
0
1.110223025e-16
0
0
1.110223025e-16
0
1.110223025e-16
0
1.110223025e-16
0
1.110223025e-16
0
0
0
0
0
0
0
0
0
0
0
1.110223025e-16
0
0
0
0
0
0
0
1.110223025e-16
0
1.110223025e-16
0
0
0
0
0
0
0
0
1.110223025e-16
1.110223025e-16
0
0
0
0
0
1.110223025e-16
0
0
1.110223025e-16
0
0
0
0
0
0
0
0
0
0
1.110223025e-16
0
0
0
0
0
0
0
0
0
0
0
1.110223025e-16
0
1.110223025e-16
0
0
0
1.110223025e-16
0
0
0
0
0
0
0
0
1.110223025e-16
0
0
1.110223025e-16
0
0
0
0
0
0
0
0
1.110223025e-16
1.110223025e-16
0
0
0
0
0
0
0
0
1.110223025e-16
0
0
0
0
1.110223025e-16
0
0
0
1.110223025e-16
0
1.110223025e-16
0
0
0
0
0
0
1.110223025e-16
0
0
0
1.110223025e-16
1.110223025e-16
1.110223025e-16
0
0
0
0
1.110223025e-16
0
1.110223025e-16
0
0
0
0
0
0
0
0
0
0
0
0
0
0
0
0
1.110223025e-16
0
0
0
0
0
0
0
0
0
0
0
0
0
0
0
0
1.110223025e-16
1.110223025e-16
0
0
0
0
0
0
0
0
0
0
0
2.220446049e-16
0
1.110223025e-16
0
0
0
0
0
1.110223025e-16
0
0
0
2.220446049e-16
0
0
0
0
1.110223025e-16
0
0
1.110223025e-16
0
0
0
0
1.110223025e-16
0
0
0
0
0
1.110223025e-16
1.110223025e-16
0
1.110223025e-16
0
1.110223025e-16
1.110223025e-16
0
0
0
0
0
0
1.110223025e-16
1.110223025e-16
0
0
0
0
0
0
0
1.110223025e-16
2.220446049e-16
1.110223025e-16
0
2.220446049e-16
0
0
0
0
0
0
0
0
1.110223025e-16
0
0
0
0
1.110223025e-16
0
0
0
0
0
1.110223025e-16
1.110223025e-16
0
0
0
0
0
0
0
1.110223025e-16
2.220446049e-16
0
0
0
1.110223025e-16
0
0
0
0
0
0
0
0
0
2.220446049e-16
1.110223025e-16
0
1.110223025e-16
0
0
0
0
0
0
0
0
1.110223025e-16
1.110223025e-16
0
0
0
0
1.110223025e-16
0
0
0
0
0
0
0
0
1.110223025e-16
0
0
0
0
0
0
0
0
0
0
0
0
1.110223025e-16
0
0
0
0
0
0
0
0
0
0
0
1.110223025e-16
0
0
0
0
0
0
0
0
0
0
1.110223025e-16
0
0
0
0
0
0
0
0
1.110223025e-16
0
0
1.110223025e-16
1.110223025e-16
1.110223025e-16
1.110223025e-16
1.110223025e-16
1.110223025e-16
0
0
0
1.110223025e-16
1.110223025e-16
0
0
0
1.110223025e-16
0
1.110223025e-16
0
0
1.110223025e-16
0
0
2.220446049e-16
0
1.110223025e-16
0
0
0
0
1.110223025e-16
0
0
0
0
0
0
0
2.220446049e-16
0
0
1.110223025e-16
1.110223025e-16
0
0
0
0
0
0
0
0
1.110223025e-16
1.110223025e-16
1.110223025e-16
0
0
0
0
1.110223025e-16
0
0
0
0
1.110223025e-16
0
1.110223025e-16
0
0
0
0
0
0
0
0
0
0
0
0
0
0
0
0
0
0
0
0
1.110223025e-16
0
0
0
0
0
0
0
0
1.110223025e-16
0
0
0
0
0
1.110223025e-16
0
1.110223025e-16
1.110223025e-16
0
0
0
0
0
1.110223025e-16
0
0
0
0
0
1.110223025e-16
1.110223025e-16
0
0
0
0
0
0
0
0
0
0
0
0
0
0
0
0
0
0
0
0
1.110223025e-16
1.110223025e-16
0
1.110223025e-16
0
0
0
0
1.110223025e-16
0
0
0
0
0
0
0
0
0
0
1.110223025e-16
2.220446049e-16
1.110223025e-16
0
2.220446049e-16
0
0
0
0
0
0
0
0
0
0
1.110223025e-16
0
0
1.110223025e-16
0
0
0
0
0
0
0
1.110223025e-16
0
0
0
1.110223025e-16
0
0
0
0
0
0
1.110223025e-16
0
0
1.110223025e-16
0
0
1.110223025e-16
0
1.110223025e-16
1.110223025e-16
0
0
0
0
0
1.110223025e-16
0
0
0
2.220446049e-16
0
1.110223025e-16
0
0
0
0
1.110223025e-16
0
0
1.110223025e-16
0
0
0
0
1.110223025e-16
0
0
0
0
0
0
0
0
1.110223025e-16
0
0
1.110223025e-16
1.110223025e-16
0
0
0
0
2.220446049e-16
0
0
1.110223025e-16
0
1.110223025e-16
0
1.110223025e-16
0
0
0
0
0
0
1.110223025e-16
2.220446049e-16
0
0
0
0
0
0
0
1.110223025e-16
0
0
1.110223025e-16
0
0
1.110223025e-16
0
0
0
0
1.110223025e-16
1.110223025e-16
0
0
1.110223025e-16
0
0
0
0
0
0
1.110223025e-16
0
0
0
0
0
0
1.110223025e-16
0
0
0
1.110223025e-16
1.110223025e-16
0
0
0
0
0
0
0
0
0
1.110223025e-16
0
0
0
0
0
1.110223025e-16
0
0
0
0
0
0
1.110223025e-16
1.110223025e-16
1.110223025e-16
1.110223025e-16
0
0
0
0
0
0
1.110223025e-16
0
0
1.110223025e-16
0
1.110223025e-16
0
0
1.110223025e-16
0
0
0
0
0
2.220446049e-16
1.110223025e-16
0
0
0
0
0
0
1.110223025e-16
0
0
0
0
0
0
0
0
0
0
0
1.110223025e-16
0
0
1.110223025e-16
0
1.110223025e-16
0
0
0
0
0
0
0
0
0
1.110223025e-16
0
0
0
1.110223025e-16
0
0
0
0
0
0
1.110223025e-16
0
1.110223025e-16
0
1.110223025e-16
1.110223025e-16
0
0
1.110223025e-16
0
0
1.110223025e-16
1.110223025e-16
0
0
2.220446049e-16
0
0
0
1.110223025e-16
0
1.110223025e-16
2.220446049e-16
1.110223025e-16
1.110223025e-16
0
0
1.110223025e-16
2.220446049e-16
0
0
0
0
0
0
1.110223025e-16
1.110223025e-16
0
0
0
0
0
0
0
0
1.110223025e-16
0
0
0
0
0
0
0
0
1.110223025e-16
0
0
0
0
1.110223025e-16
1.110223025e-16
0
0
0
0
0
0
0
0
0
0
0
0
0
0
0
0
1.110223025e-16
0
0
0
0
0
0
0
0
2.220446049e-16
0
1.110223025e-16
1.110223025e-16
0
0
0
0
0
0
0
0
0
0
1.110223025e-16
1.110223025e-16
0
1.110223025e-16
0
0
0
0
0
0
0
0
1.110223025e-16
0
2.220446049e-16
1.110223025e-16
0
0
0
1.110223025e-16
0
2.220446049e-16
1.110223025e-16
0
1.110223025e-16
0
0
0
0
0
1.110223025e-16
1.110223025e-16
0
0
1.110223025e-16
0
0
0
0
1.110223025e-16
0
0
0
0
1.110223025e-16
0
0
1.110223025e-16
0
0
0
0
1.110223025e-16
0
0
0
0
0
0
0
0
1.110223025e-16
2.220446049e-16
0
0
0
1.110223025e-16
0
0
0
0
0
0
0
0
0
0
1.110223025e-16
1.110223025e-16
0
0
0
0
0
0
0
0
0
0
1.110223025e-16
1.110223025e-16
0
0
1.110223025e-16
0
0
0
0
0
0
0
1.110223025e-16
0
0
0
0
0
1.110223025e-16
0
0
1.110223025e-16
0
2.220446049e-16
0
0
1.110223025e-16
0
0
0
0
0
1.110223025e-16
0
0
0
0
1.110223025e-16
0
2.220446049e-16
0
0
0
0
0
0
1.110223025e-16
0
0
0
0
0
0
0
0
0
1.110223025e-16
0
0
0
0
0
1.110223025e-16
1.110223025e-16
0
0
0
0
0
1.110223025e-16
0
0
0
0
0
1.110223025e-16
1.110223025e-16
0
1.110223025e-16
0
0
0
0
0
0
0
0
0
0
0
0
0
0
1.110223025e-16
0
0
0
1.110223025e-16
1.110223025e-16
1.110223025e-16
0
0
0
0
0
0
0
1.110223025e-16
0
0
0
0
0
0
0
0
0
0
0
2.220446049e-16
1.110223025e-16
0
0
1.110223025e-16
0
0
0
0
1.110223025e-16
0
0
0
0
0
0
0
2.220446049e-16
2.220446049e-16
0
1.110223025e-16
0
0
0
0
0
0
0
0
0
0
1.110223025e-16
0
0
1.110223025e-16
0
0
0
0
0
0
0
0
0
0
1.110223025e-16
0
0
0
1.110223025e-16
0
1.110223025e-16
0
0
2.220446049e-16
0
1.110223025e-16
0
1.110223025e-16
0
0
0
0
0
1.110223025e-16
0
1.110223025e-16
1.110223025e-16
0
0
0
0
0
0
0
0
2.220446049e-16
1.110223025e-16
1.110223025e-16
0
0
0
0
1.110223025e-16
0
0
0
1.110223025e-16
1.110223025e-16
0
0
1.110223025e-16
1.110223025e-16
0
0
0
0
1.110223025e-16
0
0
1.110223025e-16
0
1.110223025e-16
0
0
1.110223025e-16
1.110223025e-16
0
0
0
0
1.110223025e-16
0
1.110223025e-16
1.110223025e-16
1.110223025e-16
0
2.220446049e-16
1.110223025e-16
0
0
1.110223025e-16
0
0
1.110223025e-16
0
0
0
1.110223025e-16
1.110223025e-16
0
0
0
1.110223025e-16
0
0
0
0
0
0
0
1.110223025e-16
0
0
1.110223025e-16
0
0
0
0
0
0
0
0
1.110223025e-16
0
0
0
0
0
0
1.110223025e-16
0
0
0
0
0
0
1.110223025e-16
0
1.110223025e-16
0
0
0
0
0
0
0
0
0
0
0
0
0
0
0
0
0
1.110223025e-16
0
0
0
0
1.110223025e-16
0
0
0
0
0
0
1.110223025e-16
1.110223025e-16
1.110223025e-16
1.110223025e-16
0
1.110223025e-16
0
1.110223025e-16
0
1.110223025e-16
1.110223025e-16
1.110223025e-16
0
0
0
0
0
0
0
0
0
0
0
0
0
1.110223025e-16
0
0
1.110223025e-16
0
1.110223025e-16
0
1.110223025e-16
0
0
0
1.110223025e-16
1.110223025e-16
0
0
0
1.110223025e-16
0
0
0
0
0
0
0
0
0
0
0
0
0
0
0
2.220446049e-16
0
0
0
1.110223025e-16
0
0
0
0
0
0
1.110223025e-16
0
0
0
0
0
0
1.110223025e-16
0
0
1.110223025e-16
0
1.110223025e-16
1.110223025e-16
1.110223025e-16
1.110223025e-16
1.110223025e-16
2.220446049e-16
1.110223025e-16
1.110223025e-16
0
1.110223025e-16
1.110223025e-16
1.110223025e-16
1.110223025e-16
1.110223025e-16
0
0
0
0
1.110223025e-16
0
0
2.220446049e-16
0
0
0
0
0
1.110223025e-16
0
2.220446049e-16
0
1.110223025e-16
1.110223025e-16
0
0
1.110223025e-16
2.220446049e-16
1.110223025e-16
0
0
0
0
0
0
0
0
0
0
0
1.110223025e-16
0
0
2.220446049e-16
0
0
0
0
0
0
0
0
0
0
0
1.110223025e-16
0
0
0
0
1.110223025e-16
0
0
0
0
0
0
0
0
0
0
1.110223025e-16
0
0
0
0
0
1.110223025e-16
0
2.220446049e-16
0
0
1.110223025e-16
1.110223025e-16
0
0
0
1.110223025e-16
0
0
0
0
1.110223025e-16
2.220446049e-16
0
0
0
1.110223025e-16
0
1.110223025e-16
0
1.110223025e-16
1.110223025e-16
1.110223025e-16
0
1.110223025e-16
0
0
0
0
1.110223025e-16
0
0
1.110223025e-16
0
0
2.220446049e-16
1.110223025e-16
0
0
0
0
0
2.220446049e-16
0
1.110223025e-16
1.110223025e-16
0
2.220446049e-16
0
0
0
1.110223025e-16
0
1.110223025e-16
1.110223025e-16
1.110223025e-16
0
0
0
2.220446049e-16
0
0
0
0
0
1.110223025e-16
0
0
0
1.110223025e-16
0
0
1.110223025e-16
0
0
0
0
0
0
1.110223025e-16
0
0
0
0
0
0
1.110223025e-16
3.330669074e-16
1.110223025e-16
1.110223025e-16
0
0
2.220446049e-16
0
0
0
1.110223025e-16
0
1.110223025e-16
0
2.220446049e-16
0
2.220446049e-16
0
2.220446049e-16
0
0
0
0
0
0
0
2.220446049e-16
0
0
0
1.110223025e-16
0
0
0
0
2.220446049e-16
0
0
0
0
0
2.220446049e-16
1.110223025e-16
0
0
1.110223025e-16
0
0
0
1.110223025e-16
0
0
0
0
1.110223025e-16
1.110223025e-16
0
0
0
3.330669074e-16
0
1.110223025e-16
3.330669074e-16
0
0
0
0
0
1.110223025e-16
1.110223025e-16
1.110223025e-16
2.220446049e-16
0
0
0
0
0
0
0
0
0
0
0
0
0
0
0
1.110223025e-16
1.110223025e-16
2.220446049e-16
2.220446049e-16
0
1.110223025e-16
1.110223025e-16
0
0
0
0
0
0
0
2.220446049e-16
2.220446049e-16
1.110223025e-16
0
0
2.220446049e-16
0
2.220446049e-16
0
0
0
2.220446049e-16
1.110223025e-16
4.440892099e-16
4.440892099e-16
4.440892099e-16
7.771561172e-16
9.992007222e-16
7.771561172e-16
7.771561172e-16
8.881784197e-16
1.221245327e-15
9.992007222e-16
6.661338148e-16
7.771561172e-16
9.992007222e-16
1.110223025e-15
7.771561172e-16
8.881784197e-16
7.771561172e-16
6.661338148e-16
9.992007222e-16
7.771561172e-16
8.881784197e-16
3.330669074e-16
1.110223025e-16
2.220446049e-16
3.330669074e-16
1.110223025e-16
3.330669074e-16
2.220446049e-16
0
2.220446049e-16
0
0
0
0
0
2.220446049e-16
1.110223025e-16
0
0
1.110223025e-16
3.330669074e-16
0
0
0
0
1.110223025e-16
1.110223025e-16
1.110223025e-16
0
1.110223025e-16
1.110223025e-16
0
1.110223025e-16
0
0
0
1.110223025e-16
0
0
1.110223025e-16
0
0
1.110223025e-16
0
0
1.110223025e-16
0
0
0
1.110223025e-16
1.110223025e-16
2.220446049e-16
0
1.110223025e-16
0
0
2.220446049e-16
0
1.110223025e-16
0
0
0
0
0
0
1.110223025e-16
1.110223025e-16
0
0
0
1.110223025e-16
5.551115123e-16
5.551115123e-16
1.221245327e-15
1.887379142e-15
2.997602166e-15
6.661338148e-15
1.032507413e-14
1.876276912e-14
4.263256415e-14
5.007105841e-14
8.915090888e-14
1.189048859e-13
1.441069486e-13
1.794120408e-13
1.7985613e-13
1.817435091e-13
1.754152379e-13
1.701971897e-13
1.648681192e-13
1.698641228e-13
1.663114091e-13
1.643130076e-13
1.662003868e-13
1.662003868e-13
1.596500709e-13
1.535438443e-13
1.526556659e-13
1.367794766e-13
1.346700529e-13
4.185540803e-14
3.852473895e-14
2.531308496e-14
1.887379142e-14
1.82076576e-14
1.387778781e-14
1.088018564e-14
8.54871729e-15
5.662137426e-15
3.996802889e-15
3.663735981e-15
2.775557562e-15
1.998401444e-15
1.554312234e-15
1.221245327e-15
7.771561172e-16
8.881784197e-16
7.771561172e-16
4.440892099e-16
3.330669074e-16
0
3.330669074e-16
0
2.220446049e-16
1.110223025e-16
0
0
2.220446049e-16
0
0
0
1.110223025e-16
0
0
0
1.110223025e-16
0
0
0
1.110223025e-16
2.220446049e-16
1.110223025e-16
0
0
1.110223025e-16
0
0
1.110223025e-16
1.110223025e-16
0
0
3.330669074e-16
2.220446049e-16
1.110223025e-16
0
0
0
0
1.110223025e-16
2.220446049e-16
5.551115123e-16
2.220446049e-16
4.440892099e-16
7.771561172e-16
5.551115123e-16
1.443289932e-15
2.775557562e-15
5.551115123e-15
9.992007222e-15
1.454392162e-14
4.340972026e-14
1.045830089e-13
1.713074127e-13
2.99538172e-13
5.241362899e-13
1.014632822e-12
1.994071575e-12
3.432809592e-12
5.923150859e-12
6.786127216e-12
8.975264976e-12
1.181499343e-11
1.707023412e-11
1.765576574e-11
1.760869228e-11
1.691757845e-11
1.608446709e-11
1.556610396e-11
1.502276081e-11
1.479893985e-11
1.603095434e-11
1.51869628e-11
1.508781988e-11
1.473987599e-11
1.44039225e-11
1.395550342e-11
1.364397484e-11
1.393751781e-11
1.292865814e-11
8.272049712e-12
6.736500247e-12
5.847877738e-12
4.78284079e-12
4.112488128e-12
3.547384608e-12
2.65154565e-12
1.930122728e-12
1.223132706e-12
9.456879724e-13
8.451017663e-13
6.467049118e-13
4.665157149e-13
3.643751967e-13
2.651212583e-13
1.654232307e-13
1.816324868e-13
1.221245327e-13
9.059419881e-14
4.840572387e-14
3.108624469e-14
2.342570582e-14
1.998401444e-14
1.36557432e-14
9.769962617e-15
8.54871729e-15
5.551115123e-15
4.107825191e-15
3.219646771e-15
2.775557562e-15
2.553512957e-15
1.776356839e-15
1.443289932e-15
1.221245327e-15
1.110223025e-15
1.110223025e-15
1.221245327e-15
8.881784197e-16
4.662936703e-15
5.950795412e-14
2.131628207e-14
2.053912596e-14
3.663735981e-15
7.771561172e-16
8.881784197e-16
9.992007222e-16
6.661338148e-16
7.771561172e-16
1.110223025e-15
6.661338148e-16
7.771561172e-16
9.992007222e-16
1.443289932e-15
1.665334537e-15
2.886579864e-15
2.886579864e-15
5.329070518e-15
7.549516567e-15
9.992007222e-15
1.34336986e-14
2.176037128e-14
3.852473895e-14
8.260059303e-14
1.394440119e-13
9.159339953e-14
2.693401058e-13
5.611067166e-13
9.762191056e-13
2.203237592e-12
3.011368932e-12
6.253442209e-12
1.315936249e-11
1.816180539e-11
3.09902104e-11
5.918654455e-11
1.115658677e-10
2.065273508e-10
3.692959272e-10
8.070392132e-10
9.367014941e-10
1.521811122e-09
1.94777583e-09
2.473043437e-09
2.746986305e-09
2.774049102e-09
2.673055555e-09
2.477714589e-09
2.351879469e-09
2.311853153e-09
2.305519442e-09
2.300231006e-09
2.282734446e-09
2.246614228e-09
2.191043569e-09
2.11915252e-09
2.035184021e-09
1.943500694e-09
1.847755948e-09
1.751016776e-09
1.16472354e-09
1.016460804e-09
7.548081049e-10
6.047683465e-10
5.036383532e-10
4.097048256e-10
3.202269561e-10
2.294202606e-10
1.509730119e-10
1.153239726e-10
9.911760301e-11
7.185729789e-11
5.452405194e-11
4.167799439e-11
3.101119361e-11
2.072986227e-11
2.199529447e-11
1.721811582e-11
1.072797406e-11
8.422929021e-12
5.742295528e-12
5.188405261e-12
4.027778111e-12
3.225086864e-12
2.369104912e-12
1.934896687e-12
1.235678226e-12
9.021672298e-13
7.853717676e-13
6.680211939e-13
5.397904346e-13
4.123368313e-13
3.257394354e-13
2.809974475e-13
2.848832281e-13
2.582378755e-13
1.990629883e-13
1.636468738e-13
8.935074902e-13
1.095257218e-11
4.379163698e-12
5.194733532e-12
1.059707877e-12
2.343680805e-13
1.560973573e-13
1.372235658e-13
1.595390486e-13
1.995070775e-13
1.938449401e-13
1.610933609e-13
1.749711487e-13
2.34923192e-13
3.517186542e-13
3.873568133e-13
5.732081476e-13
8.07909295e-13
1.111999381e-12
1.640021452e-12
2.141731237e-12
3.23885363e-12
5.561440197e-12
6.045830503e-12
1.050137755e-11
1.746303102e-11
9.715561688e-12
3.045164121e-11
5.929845504e-11
1.115508796e-10
2.527654752e-10
3.215827604e-10
9.429869108e-10
1.973730401e-09
3.194196019e-09
5.3914333e-09
1.015491247e-08
1.806115468e-08
3.076174004e-08
5.198117192e-08
8.084601644e-08
9.085770925e-08
1.175771135e-07
1.421124619e-07
1.687528983e-07
1.767541652e-07
1.765738045e-07
1.700451787e-07
1.599087375e-07
1.54623253e-07
1.537998985e-07
1.540890414e-07
1.539066642e-07
1.526465411e-07
1.502725718e-07
1.468159717e-07
1.424485624e-07
1.374094731e-07
1.319525369e-07
1.26274581e-07
1.205119152e-07
1.153920084e-07
1.075122208e-07
9.075834473e-08
7.830900772e-08
6.811408093e-08
5.795147984e-08
4.757322836e-08
3.610644606e-08
2.455732773e-08
1.941696126e-08
1.731201216e-08
1.296385277e-08
1.001964123e-08
7.793721668e-09
5.767755051e-09
3.641140389e-09
4.048067437e-09
2.793300813e-09
1.965298702e-09
1.221811097e-09
8.107499117e-10
6.398230834e-10
5.344000797e-10
3.701926543e-10
2.83588486e-10
2.216699047e-10
1.451918585e-10
1.099618174e-10
8.802769624e-11
7.56700258e-11
6.324352153e-11
4.710554169e-11
3.787514746e-11
3.480582489e-11
3.309263974e-11
2.947420086e-11
2.430833312e-11
1.869737698e-11
6.567746347e-11
1.220272217e-09
4.515079421e-10
8.715299593e-10
1.653696069e-10
3.24756888e-11
1.797673121e-11
1.738842403e-11
1.90698568e-11
2.339428651e-11
2.55800936e-11
1.806910177e-11
2.022493284e-11
2.704059199e-11
3.982736363e-11
4.404876464e-11
6.382216977e-11
8.893563663e-11
1.330050514e-10
1.874387312e-10
2.50539034e-10
3.752065325e-10
6.388459761e-10
9.109025756e-10
1.785020465e-09
3.024311357e-09
1.592140197e-09
5.549019244e-09
1.054442789e-08
1.909928549e-08
3.709727447e-08
4.725015323e-08
9.104992604e-08
1.582603674e-07
2.165483128e-07
3.410580621e-07
5.468210669e-07
8.186386801e-07
1.234414225e-06
1.913536393e-06
2.794597872e-06
3.037187482e-06
4.108237344e-06
4.884258204e-06
5.784527357e-06
6.076006686e-06
6.005849552e-06
5.673187808e-06
5.214575577e-06
5.024896589e-06
5.030330899e-06
5.047733035e-06
5.028228981e-06
4.958834529e-06
4.849117006e-06
4.698992508e-06
4.516949603e-06
4.314335191e-06
4.102797079e-06
3.889787217e-06
3.673684157e-06
4.173624461e-06
3.876235215e-06
3.264341254e-06
2.832347638e-06
2.485105166e-06
2.143025281e-06
1.799970215e-06
1.423167368e-06
9.877417269e-07
8.189026879e-07
7.904387925e-07
6.501361197e-07
5.438955152e-07
4.5708588e-07
3.721175045e-07
2.878268677e-07
2.516783565e-07
2.049792088e-07
1.576843057e-07
1.192567503e-07
9.476031271e-08
7.999394103e-08
7.088060039e-08
5.326945751e-08
4.286812572e-08
3.494132139e-08
2.359607798e-08
1.880392564e-08
1.549636097e-08
1.354531964e-08
1.141741834e-08
8.482848535e-09
6.913757788e-09
6.528216079e-09
6.214626813e-09
5.550810478e-09
4.286925592e-09
3.786795988e-09
4.611187654e-09
1.42821986e-07
5.299032091e-08
1.250179069e-07
2.893213324e-08
6.133182628e-09
3.414352134e-09
3.077734068e-09
3.507025448e-09
4.221117123e-09
4.404778653e-09
3.190945064e-09
3.80053844e-09
4.965070022e-09
7.192336171e-09
8.020467179e-09
1.132791783e-08
1.551542805e-08
2.240083052e-08
2.883878858e-08
3.562498396e-08
5.389301727e-08
7.845970895e-08
9.722128813e-08
1.480819818e-07
2.144943912e-07
2.352151157e-07
3.768352471e-07
5.692658448e-07
8.804244009e-07
1.441599251e-06
1.756977496e-06
3.476266379e-06
5.786301217e-06
8.769007739e-06
1.264995672e-05
2.07920597e-05
3.224629426e-05
4.871154418e-05
7.254903637e-05
9.544021172e-05
0.0001024117813
0.0001247493162
0.0001429260502
0.0001583839741
0.0001616331908
0.0001583964597
0.0001504616289
0.000142021578
0.0001395680636
0.0001402923739
0.0001405728235
0.0001397619004
0.0001377975811
0.0001349022766
0.000131153466
0.0001267185864
0.0001217732137
0.0001166225192
0.0001113850607
0.0001061697442
0.0001446312013
0.0001367837694
0.0001198106431
0.0001086222582
9.742351032e-05
8.571978585e-05
7.333040459e-05
5.888127614e-05
4.112905066e-05
3.412468332e-05
3.259166581e-05
2.610268809e-05
2.136571121e-05
1.746769168e-05
1.362687874e-05
8.873131537e-06
1.143495499e-05
7.982543819e-06
5.849806414e-06
4.303275294e-06
3.403710381e-06
2.885478423e-06
2.565241967e-06
1.995517595e-06
1.644030363e-06
1.386965354e-06
9.547700929e-07
8.334106217e-07
7.354532837e-07
6.715566103e-07
5.954098937e-07
4.813473826e-07
4.202717917e-07
4.064794823e-07
3.934187564e-07
3.640792129e-07
3.103970321e-07
2.597820123e-07
2.821533865e-07
5.059766446e-07
4.286964522e-07
5.621336192e-07
2.820187825e-07
2.244034653e-07
2.233725825e-07
2.205698547e-07
2.349816853e-07
2.54357047e-07
2.579658205e-07
2.682358792e-07
2.94972534e-07
3.420898641e-07
4.313464677e-07
4.691951768e-07
5.970804008e-07
7.476614943e-07
9.797719359e-07
1.151454682e-06
1.395479581e-06
1.99509408e-06
2.884202035e-06
3.546968972e-06
5.664910098e-06
8.294175226e-06
3.190719474e-06
1.356948085e-05
2.250639e-05
3.61923966e-05
5.761573544e-05
6.948086941e-05
0.0001196090899
0.0001797926012
0.0002285706367
0.0003258975886
0.0004536961599
0.0005791286985
0.0007362752614
0.0009203747623
0.001141825079
0.001225552545
0.001368781369
0.001467716053
0.001540871854
0.001546336728
0.001518413049
0.001464009141
0.001380505509
0.001335907028
0.001313234299
0.001297319372
0.001276444894
0.001250974179
0.00122247722
0.001191400911
0.001158350901
0.00112212966
0.001086895606
0.001052003247
0.001018274303
0.001454450604
0.001408729303
0.001306215929
0.001273522109
0.001196575048
0.00111170017
0.001015518738
0.000893813171
0.0008286000795
0.0007518877478
0.000656188201
0.0005556160359
0.0004895471281
0.0004324475016
0.0003714062716
0.0003074848488
0.0002704818504
0.0002326133167
0.0001857222947
0.0001486539883
0.0001242192738
0.0001089791767
0.0001005342592
8.05801324e-05
6.759273911e-05
5.762222871e-05
3.934000312e-05
3.446110198e-05
3.000074227e-05
2.716807346e-05
2.369152119e-05
1.841833675e-05
1.578040241e-05
1.526632963e-05
1.466631384e-05
1.327526211e-05
1.037681826e-05
6.763899321e-06
6.989673426e-06
0
2.28113909e-05
4.884491337e-05
1.297207906e-05
8.879670841e-06
8.96112216e-06
8.711256629e-06
9.977943817e-06
1.177446727e-05
1.218944111e-05
7.385082766e-06
9.713582269e-06
1.237729529e-05
1.646338066e-05
1.804893004e-05
2.385776741e-05
3.066276718e-05
4.054620126e-05
4.699330561e-05
5.602904365e-05
8.11771386e-05
0.0001068112262
0.0001273076682
0.0001801982995
0.0002310374329
0.0002717261003
0.0003677569963
0.0004900416144
0.0006429503283
0.0008463801894
0.001057841428
0.001300269355
0.001618707059
0.001859776746
0.002283136739
0.00273386064
0.003105560161
0.003493506717
0.003862716548
0.003832715023
0.00375540096
0.003866585628
0.00393186171
0.003935485081
0.003895038134
0.003827300485
0.003731776118
0.003790550779
0.003856369518
0.00390433378
0.00390432514
0.003885396991
0.003858980267
0.003825526111
0.003786824378
0.003735178888
0.003678125273
0.003622817373
0.003567272721
0.003510352182
0.005502555381
0.005426934292
0.005237183773
0.004956774113
0.004804999237
0.00463877831
0.004438068244
0.004161655688
0.003334723721
0.003142706288
0.003394135701
0.003233720408
0.00304259529
0.00284657644
0.002610480757
0.00234813693
0.002161546776
0.001989249591
0.001698593105
0.001492316043
0.001343414334
0.001246975585
0.001224084125
0.001083388374
0.00097426338
0.0008861917421
0.0008025327505
0.0006866214481
0.000609581148
0.000569633106
0.0005220173637
0.0004481604902
0.000408433346
0.0004014890325
0.0003918855587
0.0003686851446
0.0003251880864
0.0002860961331
0.000282575294
0.0003145633978
0.0003217001498
0.0003126685564
0.0002582337706
0.0002454260045
0.0002496643463
0.0002466023371
0.0002602373315
0.0002718576295
0.0002742553476
0.0002944501822
0.000316199505
0.000352425915
0.000412256699
0.0004397662378
0.0005156979529
0.0006009406819
0.0007093878371
0.0008534971974
0.0009785335105
0.001073344446
0.001220546487
0.001345063176
0.001667182956
0.001936434697
0.002147941276
0.00252204269
0.002918259683
0.003377514518
0.00376014661
0.00363508877
0.004621212686
0.005124821796
0.005409444563
0.005852087042
0.006362433826
0.006723040861
0.007266649304
0.007900942061
0.008745499662
0.008934644363
0.009421330048
0.009705104721
0.009892608107
0.009837856056
0.009634201801
0.009322494637
0.008843411619
0.008600134883
0.008493899248
0.008389773847
0.008252168032
0.008102289228
0.007948626112
0.007781349437
0.007639258359
0.007435110945
0.007287897178
0.007128347653
0.006981098872
0.009216598629
0.009099619566
0.008791798303
0.01011293552
0.009853046522
0.009567730952
0.009236890445
0.00880144199
0.008666480284
0.008386438907
0.007978009092
0.007599273874
0.007359792564
0.007137531296
0.006868604993
0.006542966174
0.006312563018
0.006076440219
0.005885799034
0.005567809367
0.005308695214
0.005132496114
0.004896075839
0.004595638815
0.004357735744
0.004170962226
0.003323667075
0.003461718554
0.003382017807
0.00329243214
0.00316202175
0.002905736656
0.00277040715
0.002749881254
0.002711774191
0.002616337168
0.002435064747
0.002267644989
0.002262484748
0.00240603947
0.002326481538
0.002247727362
0.002108351908
0.002055940278
0.002078184719
0.002062308306
0.002123018987
0.002168296677
0.002172164231
0.002295527976
0.002386045911
0.002526216203
0.00274793412
0.002833784003
0.003084895293
0.003320400531
0.00359863591
0.003424611257
0.003539642861
0.00435606828
0.004735656054
0.005014074304
0.005379603744
0.005648134879
0.005920974035
0.006303938672
0.006827771528
0.007362710089
0.008113410408
0.0090376358
0.00944800549
0.01093629238
0.01197003347
0.01354482387
0.01502944067
0.01591155043
0.01688541148
0.01783116653
0.01861989444
0.01879969101
0.01912972849
0.01927166129
0.0192582529
0.01908073149
0.01880613037
0.01844245775
0.01796086459
0.01771103365
0.01750428695
0.01732066174
0.01707158593
0.0168551332
0.01662796131
0.01643784698
0.01619589545
0.01589974991
0.01569337398
0.01550081911
0.01528289797
0.02381777454
0.02361955626
0.02307978691
0.0220742636
0.02166841006
0.02121793574
0.02069699429
0.01992025399
0.01944093655
0.01890872464
0.01824728651
0.01737059568
0.01676438644
0.01610252894
0.0152159322
0.0142104089
0.01351576717
0.01288637682
0.01032892344
0.009419860156
0.008962656721
0.008663847485
0.00994979208
0.009497559714
0.009100906771
0.008796439735
0.008562747277
0.00804182697
0.00774362802
0.007597582299
0.007426185211
0.007116629236
0.006962296671
0.00693839717
0.006890480586
0.006776162879
0.006554110794
0.00635301909
0.006340451521
0.006462389048
0.006394914879
0.006330613424
0.00611804831
0.006045308668
0.006070488844
0.006043733323
0.006107201657
0.006154641889
0.006161248585
0.006285402012
0.006400225534
0.006543241462
0.006776601312
0.006883550579
0.007145306065
0.00749136805
0.007918346553
0.008476626463
0.008932816455
0.008992982012
0.009157746876
0.009302632283
0.01140541348
0.01265652018
0.01343768273
0.01481683843
0.01590151209
0.01709429159
0.01832983727
0.01929977156
0.02065596852
0.02140398849
0.02201187382
0.02283806293
0.023637094
0.02419963246
0.0247111199
0.02512691139
0.02530117002
0.02519862771
0.02510404364
0.02485512767
0.02452542586
0.02412996147
0.02373029737
0.02335798904
0.02294483074
0.02264377629
0.02238158844
0.02210543818
0.02174079714
0.02150843653
0.02130425597
0.02103013387
0.02082358976
0.02062925377
0.02042241562
0.0202708499
0.02009229709
0.03182456382
0.03175553021
0.03150335168
0.03108635594
0.03086522128
0.03063087753
0.03036264249
0.02989014359
0.02958213132
0.02924579898
0.02881778315
0.02831910185
0.02795515094
0.02758890041
0.02705797461
0.02633913548
0.02581057103
0.02530200704
0.02508214217
0.02426208933
0.02353470409
0.02303865642
0.02217477198
0.0213703808
0.02071642811
0.02018924021
0.01951853519
0.01865834861
0.01804600602
0.01772270046
0.0172903893
0.01652315492
0.01608661932
0.01605524804
0.01592354054
0.01555605076
0.01480143219
0.01412400497
0.01416671838
0.01431798677
0.01427399421
0.01404855962
0.01348814226
0.01332540078
0.01344220431
0.01335480946
0.01361950665
0.01377816719
0.01377052857
0.01430831836
0.01462370639
0.01515518822
0.01588704737
0.01609574153
0.01680735406
0.01742921855
0.01836875919
0.019150844
0.01979631911
0.02045470209
0.02145233485
0.02205951659
0.022627618
0.02332615515
0.02381611689
0.02452341791
0.02523426657
0.02596091976
0.0266009715
0.02694652444
0.02753257739
0.0277845837
0.02781166733
0.02787334663
0.02788972792
0.02780839396
0.02765583632
0.02735362746
0.02680705404
0.02627201851
0.02559101932
0.02494629393
0.02420037677
0.02366483304
0.02322103387
0.0227973345
0.0225021666
0.02214020825
0.02179162884
0.02145550078
0.02119591432
0.02092893236
0.02074016103
0.0205534112
0.02037545588
0.02016388434
0.02004655375
0.01993562091
0.01985888113
0.034118947
0.03413495836
0.03409370171
0.03398157731
0.03392942307
0.03389260533
0.03386140959
0.03373533773
0.03364969609
0.03357730965
0.033484212
0.03332489749
0.03320091094
0.0331010003
0.03294627148
0.03268828179
0.03248919319
0.03229903549
0.03219293096
0.03180350366
0.03146121468
0.03123169756
0.03092610777
0.03048593767
0.03011545135
0.02981985324
0.02942553951
0.0288749739
0.02845385191
0.02821742914
0.02801599152
0.02752507284
0.02723815404
0.02720831549
0.02710214208
0.02688411042
0.02642108637
0.02591833231
0.02591278184
0.02595909859
0.02591337916
0.02575652857
0.02528788686
0.02513730818
0.02520225801
0.02509497935
0.02521528067
0.02529300323
0.02524887303
0.02551798733
0.02570393464
0.02591666135
0.02625471197
0.02633729281
0.02674607507
0.02706714957
0.02759206912
0.02792892958
0.02818006067
0.02834848558
0.02876784438
0.02897114938
0.02915854556
0.02929219866
0.02930008865
0.02942208886
0.0294751357
0.0295357327
0.02953061275
0.02949023084
0.02938074305
0.0291207688
0.02875514811
0.02813491187
0.02743839722
0.0266153691
0.02578924106
0.02479799622
0.02390439696
0.02315131121
0.02227383857
0.0216055951
0.02096102501
0.02047282895
0.02007687983
0.019736672
0.0195543849
0.01924878949
0.01895339247
0.01869200216
0.01846505021
0.01829986108
0.01817234991
0.01802297843
0.01790218375
0.01780217203
0.01769532226
0.01763272486
0.01757804715
0.03345652782
0.03350375364
0.03354847491