/*--------------------------------*- C++ -*----------------------------------*\
| =========                 |                                                 |
| \\      /  F ield         | OpenFOAM: The Open Source CFD Toolbox           |
|  \\    /   O peration     | Version:  v1706                                 |
|   \\  /    A nd           | Web:      www.OpenFOAM.com                      |
|    \\/     M anipulation  |                                                 |
\*---------------------------------------------------------------------------*/
FoamFile
{
    version     2.0;
    format      ascii;
    class       volScalarField;
    location    "0.00272";
    object      X_N;
}
// * * * * * * * * * * * * * * * * * * * * * * * * * * * * * * * * * * * * * //

dimensions      [0 0 0 0 0 0 0];


internalField   nonuniform List<scalar> 
11682
(
7.313018516e-43
6.433139679e-43
5.871369147e-43
4.972623312e-43
4.337599508e-43
3.707688421e-43
3.205872049e-43
2.594995452e-43
1.926767758e-43
1.646475082e-43
1.39479901e-43
1.131737323e-43
8.787199754e-44
7.478559951e-44
6.124820876e-44
4.783961005e-44
3.633017563e-44
3.207044313e-44
2.584362772e-44
2.009466461e-44
1.576875226e-44
1.279573375e-44
1.111123097e-44
8.290638728e-45
7.187279374e-45
5.89160569e-45
4.858418429e-45
4.005617724e-45
3.322847428e-45
2.889248016e-45
2.491657467e-45
2.122919226e-45
1.847332902e-45
1.634141307e-45
1.539034963e-45
1.487749948e-45
1.342670661e-45
1.16015816e-45
1.078630899e-45
1.050507485e-45
1.078903329e-45
1.119722553e-45
1.100644458e-45
1.014281034e-45
1.083540212e-45
1.029783742e-45
1.169673833e-45
1.304344643e-45
1.444397292e-45
1.652729098e-45
1.845148755e-45
2.195439179e-45
2.708740345e-45
3.523278628e-45
4.545819964e-45
6.175411945e-45
8.461139334e-45
1.124045574e-44
1.676209841e-44
2.380797771e-44
3.283142439e-44
4.9993358e-44
7.518400768e-44
1.067000016e-43
1.798754115e-43
2.86455989e-43
4.693663533e-43
7.588110193e-43
1.399665458e-42
2.561698122e-42
4.481646143e-42
8.232758302e-42
1.467858912e-41
2.624158275e-41
4.748638439e-41
8.944040259e-41
1.640069507e-40
2.864952002e-40
4.818727714e-40
7.359204323e-40
1.127692364e-39
1.593600513e-39
2.255041669e-39
2.974418838e-39
3.671876847e-39
4.351130281e-39
5.127888996e-39
5.865434421e-39
6.638051008e-39
7.401174246e-39
7.993867363e-39
8.843102436e-39
9.537931302e-39
1.015720452e-38
1.075594884e-38
1.130744764e-38
1.181586439e-38
1.228314707e-38
1.267126746e-38
3.005800314e-41
2.733525351e-41
2.479384262e-41
2.080348801e-41
1.826176833e-41
1.586358195e-41
1.33276582e-41
1.091794923e-41
8.172896468e-42
6.852425173e-42
5.810193541e-42
4.71633292e-42
3.697972798e-42
3.081547556e-42
2.537101288e-42
1.982546473e-42
1.57187075e-42
1.348298435e-42
1.076311805e-42
8.351636626e-43
6.566738973e-43
5.430503358e-43
4.629846289e-43
3.716637077e-43
2.981407705e-43
2.467708433e-43
2.028056794e-43
1.664205301e-43
1.38399584e-43
1.205544256e-43
1.045328954e-43
9.055794453e-44
7.729440104e-44
6.808626586e-44
6.384271791e-44
6.253149432e-44
5.624570859e-44
4.824489072e-44
4.505910503e-44
4.435012575e-44
4.522606724e-44
4.637332559e-44
4.549814722e-44
4.410789987e-44
4.489024747e-44
4.647028691e-44
4.923986443e-44
5.40308023e-44
5.948698583e-44
6.815442334e-44
7.780905985e-44
9.173307009e-44
1.12330559e-43
1.444983127e-43
1.88036647e-43
2.51775075e-43
3.440976009e-43
4.788859515e-43
6.801528304e-43
9.648488749e-43
1.415850569e-42
2.022089762e-42
3.013825337e-42
4.661737261e-42
7.123992269e-42
1.12915682e-41
1.844414735e-41
3.142715646e-41
5.527593737e-41
9.953879948e-41
1.797852382e-40
3.16888354e-40
5.628452971e-40
9.930617059e-40
1.794421154e-39
3.341743123e-39
6.183581831e-39
1.076064078e-38
1.78336028e-38
2.738208857e-38
4.07180727e-38
5.930226946e-38
8.105501346e-38
1.061119746e-37
1.318754791e-37
1.565962745e-37
1.800800663e-37
2.045917097e-37
2.273328562e-37
2.562455099e-37
2.802428791e-37
3.029885543e-37
3.243980571e-37
3.441817847e-37
3.633693705e-37
3.803756562e-37
3.962991715e-37
4.112619258e-37
4.238250847e-37
1.214827272e-39
1.077699077e-39
9.793644551e-40
8.287683155e-40
7.342793028e-40
6.286725951e-40
5.270911419e-40
4.351869784e-40
3.25661624e-40
2.722590009e-40
2.305114606e-40
1.865651786e-40
1.456182625e-40
1.21276798e-40
1.008777858e-40
7.846742961e-41
6.284471533e-41
5.398240845e-41
4.269597846e-41
3.305374456e-41
2.595390529e-41
2.167736595e-41
1.844760969e-41
1.473208265e-41
1.203861425e-41
9.742678896e-42
8.080709031e-42
6.74858525e-42
5.543850026e-42
4.804814236e-42
4.143783373e-42
3.61580442e-42
3.078321749e-42
2.70788904e-42
2.582423867e-42
2.483730122e-42
2.258161769e-42
1.963425757e-42
1.785397982e-42
1.770195445e-42
1.790740488e-42
1.814242325e-42
1.789283375e-42
1.721303661e-42
1.759557463e-42
1.850709206e-42
1.946954647e-42
2.134234544e-42
2.333423971e-42
2.675250448e-42
3.047702284e-42
3.573376957e-42
4.430442263e-42
5.650198123e-42
7.334628101e-42
9.712868103e-42
1.337478644e-41
1.836157356e-41
2.627616281e-41
3.746640104e-41
5.450556224e-41
7.843487424e-41
1.166515691e-40
1.762539665e-40
2.659914386e-40
4.249354941e-40
6.895027961e-40
1.176068591e-39
2.057990233e-39
3.683864982e-39
6.641775064e-39
1.161231602e-38
2.056755111e-38
3.596452481e-38
6.454818652e-38
1.202698705e-37
2.196626332e-37
3.790289277e-37
6.267265785e-37
9.495047918e-37
1.429906675e-36
2.058573453e-36
2.767285502e-36
3.601237611e-36
4.430967461e-36
5.216785961e-36
5.980500839e-36
6.706272225e-36
7.463621023e-36
8.317581519e-36
9.001555461e-36
9.718305775e-36
1.04122089e-35
1.103139565e-35
1.161246465e-35
1.202173504e-35
1.253590749e-35
1.29715498e-35
1.336012221e-35
4.822239424e-38
4.308636282e-38
3.912038249e-38
3.295836725e-38
2.943117175e-38
2.53459942e-38
2.07840658e-38
1.732894125e-38
1.292654727e-38
1.081206614e-38
9.170658171e-39
7.33915651e-39
5.796043806e-39
4.920433536e-39
3.981444255e-39
3.171554137e-39
2.555866222e-39
2.156200369e-39
1.695209967e-39
1.30820165e-39
1.02156569e-39
8.671784219e-40
7.394768002e-40
5.807703035e-40
4.765476385e-40
3.946227016e-40
3.229033776e-40
2.668011311e-40
2.200387019e-40
1.926818473e-40
1.673420074e-40
1.448355954e-40
1.226275048e-40
1.087973441e-40
1.041972992e-40
9.959595666e-41
8.991543719e-41
7.897203348e-41
6.917398065e-41
6.995371486e-41
7.160095706e-41
7.390651221e-41
7.045921041e-41
6.847880638e-41
6.899359071e-41
7.297540746e-41
7.68404934e-41
8.430323856e-41
9.142429056e-41
1.041168333e-40
1.189595527e-40
1.400104368e-40
1.738862063e-40
2.205209996e-40
2.851923827e-40
3.796494162e-40
5.211276588e-40
6.942913355e-40
1.012792711e-39
1.445863998e-39
2.096715841e-39
3.006484507e-39
4.437128871e-39
6.64751908e-39
9.897855804e-39
1.587757549e-38
2.562151046e-38
4.385551022e-38
7.738221962e-38
1.358609994e-37
2.455892297e-37
4.283637496e-37
7.491884885e-37
1.294602143e-36
2.301017565e-36
4.308060759e-36
7.788935771e-36
1.33573934e-35
2.195921851e-35
3.290092516e-35
4.958747363e-35
7.078577865e-35
9.407171624e-35
1.213762744e-34
1.483605612e-34
1.716634765e-34
1.977590347e-34
2.192131829e-34
2.43940194e-34
2.671699744e-34
2.930539993e-34
3.138939228e-34
3.332209606e-34
3.523097019e-34
3.687535049e-34
3.83774324e-34
3.975518989e-34
4.09031306e-34
4.196107666e-34
1.902206728e-36
1.714655498e-36
1.563818753e-36
1.322909696e-36
1.1542045e-36
1.015487427e-36
8.210424404e-37
6.899728816e-37
5.224137272e-37
4.275984892e-37
3.68475194e-37
2.899653941e-37
2.260391159e-37
1.949518171e-37
1.592536343e-37
1.258919315e-37
1.003095297e-37
8.574449214e-38
6.758687665e-38
5.186627028e-38
4.071469343e-38
3.477082861e-38
2.973437525e-38
2.323384268e-38
1.881154965e-38
1.56340821e-38
1.291429742e-38
1.052975325e-38
8.75925307e-39
7.674322887e-39
6.697093785e-39
5.78565679e-39
4.86963529e-39
4.309198903e-39
4.154760316e-39
3.967356812e-39
3.622388821e-39
3.145408329e-39
2.851448604e-39
2.759466612e-39
2.826895276e-39
2.916421383e-39
2.835214192e-39
2.734623393e-39
2.748920489e-39
2.870239846e-39
3.041716754e-39
3.32901489e-39
3.581472106e-39
4.098021553e-39
4.641626818e-39
5.538602332e-39
6.841855707e-39
8.572295705e-39
1.108777782e-38
1.474655387e-38
2.027971732e-38
2.802533689e-38
3.899006767e-38
5.574691635e-38
8.064093777e-38
1.144225534e-37
1.690375953e-37
2.493055362e-37
3.81634854e-37
5.948291007e-37
9.525817719e-37
1.629901333e-36
2.871972372e-36
5.029894763e-36
9.081908266e-36
1.593217521e-35
2.731428209e-35
4.660049069e-35
8.378811054e-35
1.54013015e-34
2.760559803e-34
4.676624143e-34
7.687805613e-34
1.169850771e-33
1.719906925e-33
2.435553215e-33
3.194964651e-33
4.100030697e-33
4.935106289e-33
5.71967089e-33
6.530148067e-33
7.163800232e-33
8.024412084e-33
8.752163019e-33
9.433468703e-33
1.005856353e-32
1.06643441e-32
1.12216004e-32
1.160367662e-32
1.213931376e-32
1.250224116e-32
1.284590387e-32
1.316104265e-32
7.608403532e-35
6.855385216e-35
6.334051091e-35
5.221742647e-35
4.733967747e-35
4.059730596e-35
3.296495685e-35
2.743570638e-35
2.072880032e-35
1.682495073e-35
1.470099707e-35
1.168003184e-35
9.126037761e-36
7.759408011e-36
6.314117258e-36
4.979234819e-36
4.04005449e-36
3.40365087e-36
2.696565884e-36
2.058331763e-36
1.624696508e-36
1.389679004e-36
1.186114245e-36
9.243921247e-37
7.48667899e-37
6.209148966e-37
5.151352927e-37
4.164212055e-37
3.492579129e-37
3.049648763e-37
2.675703984e-37
2.300616211e-37
1.950092961e-37
1.721315321e-37
1.655464981e-37
1.578497508e-37
1.442431421e-37
1.255903779e-37
1.129120505e-37
1.087518691e-37
1.112862725e-37
1.148495189e-37
1.126678051e-37
1.092333966e-37
1.084014724e-37
1.123535996e-37
1.214499028e-37
1.316780162e-37
1.40459766e-37
1.60140201e-37
1.805801991e-37
2.175543877e-37
2.708755873e-37
3.371988401e-37
4.407293822e-37
5.701072332e-37
7.916417748e-37
1.088944583e-36
1.51391095e-36
2.145089243e-36
3.098156875e-36
4.448949436e-36
6.491734578e-36
9.502675965e-36
1.439913623e-35
2.229989648e-35
3.615907998e-35
6.071514487e-35
1.053168788e-34
1.850831954e-34
3.341160224e-34
5.841723822e-34
9.938317947e-34
1.701554485e-33
2.997712367e-33
5.502990019e-33
9.784219855e-33
1.655507982e-32
2.705583148e-32
4.037680878e-32
5.943618686e-32
8.369331406e-32
1.096680865e-31
1.384763166e-31
1.665742263e-31
1.9203582e-31
2.159276881e-31
2.362353822e-31
2.606029771e-31
2.825172532e-31
3.042523117e-31
3.219120389e-31
3.403200983e-31
3.556848706e-31
3.716006584e-31
3.832948613e-31
3.921818438e-31
4.022531513e-31
4.12603192e-31
3.065959508e-33
2.74231443e-33
2.516333541e-33
2.118771786e-33
1.905358987e-33
1.612713221e-33
1.318474653e-33
1.089274571e-33
8.256320922e-34
6.764523674e-34
5.855732859e-34
4.629580683e-34
3.619676154e-34
3.099685988e-34
2.490129045e-34
1.980476821e-34
1.599954463e-34
1.370935344e-34
1.071925434e-34
8.156696597e-35
6.486148167e-35
5.534894043e-35
4.733927045e-35
3.673183281e-35
2.966059042e-35
2.4745915e-35
2.049512441e-35
1.653399884e-35
1.398528944e-35
1.223652055e-35
1.067956373e-35
9.140628265e-36
7.688698278e-36
6.829631586e-36
6.600046569e-36
6.263560948e-36
5.698846175e-36
4.959795157e-36
4.465552277e-36
4.32427273e-36
4.395883147e-36
4.462423135e-36
4.434816546e-36
4.306480099e-36
4.282480556e-36
4.485696353e-36
4.832095667e-36
5.212004136e-36
5.553730144e-36
6.298421086e-36
7.191737747e-36
8.480438409e-36
1.06532577e-35
1.316709016e-35
1.717958468e-35
2.280664598e-35
3.106089987e-35
4.256247984e-35
5.837373432e-35
8.233268722e-35
1.190634279e-34
1.702160678e-34
2.513991998e-34
3.679291987e-34
5.457058079e-34
8.390764325e-34
1.355451993e-33
2.257994936e-33
3.917046106e-33
6.871008481e-33
1.226566368e-32
2.129780477e-32
3.613201855e-32
6.181303037e-32
1.059737432e-31
1.962409776e-31
3.464775875e-31
5.848325375e-31
9.485001309e-31
1.420569477e-30
2.05386492e-30
2.867575764e-30
3.778257437e-30
4.687625079e-30
5.580171921e-30
6.433594499e-30
7.107839133e-30
7.772983918e-30
8.491552776e-30
9.103053274e-30
9.786818181e-30
1.034711371e-29
1.082468062e-29
1.117228178e-29
1.173650853e-29
1.208242674e-29
1.246388286e-29
1.277660645e-29
1.300262125e-29
1.224113158e-31
1.111620093e-31
1.0084252e-31
8.448019209e-32
7.582421398e-32
6.39969801e-32
5.381550305e-32
4.322218588e-32
3.285465117e-32
2.691127313e-32
2.325921951e-32
1.867541625e-32
1.446444951e-32
1.241996991e-32
1.008153497e-32
7.876099723e-33
6.488440832e-33
5.453920087e-33
4.263399578e-33
3.228050688e-33
2.568083035e-33
2.226352998e-33
1.885797117e-33
1.464820207e-33
1.176851576e-33
9.897273384e-34
8.158020424e-34
6.54862388e-34
5.550485272e-34
4.872783323e-34
4.256753477e-34
3.627584338e-34
3.074220467e-34
2.757279936e-34
2.636041837e-34
2.493767624e-34
2.280824211e-34
1.956425575e-34
1.80935361e-34
1.730604352e-34
1.757765449e-34
1.802375035e-34
1.766887757e-34
1.692770252e-34
1.698542573e-34
1.788404353e-34
1.922626923e-34
2.058354286e-34
2.223197332e-34
2.465104586e-34
2.819841982e-34
3.379327007e-34
4.185821553e-34
5.157025166e-34
6.692725025e-34
8.869129094e-34
1.201935544e-33
1.66087146e-33
2.269318799e-33
3.164037758e-33
4.579107169e-33
6.507552667e-33
9.663389618e-33
1.419355296e-32
2.075215893e-32
3.163659681e-32
5.08830018e-32
8.507787495e-32
1.448706425e-31
2.533618291e-31
4.494525752e-31
7.719964665e-31
1.314233547e-30
2.22997375e-30
3.931182446e-30
7.000742495e-30
1.224870918e-29
2.075063672e-29
3.322586379e-29
4.920695748e-29
7.067186726e-29
9.802782673e-29
1.286238711e-28
1.584504175e-28
1.870211347e-28
2.131353363e-28
2.331203315e-28
2.523914003e-28
2.745426623e-28
2.963172618e-28
3.141486248e-28
3.304052426e-28
3.437275471e-28
3.549124319e-28
3.695656598e-28
3.814616544e-28
3.921294845e-28
4.002510935e-28
4.066934331e-28
4.907681117e-30
4.416942892e-30
4.008633863e-30
3.346807199e-30
2.997922332e-30
2.544532228e-30
2.138712017e-30
1.711043139e-30
1.308810778e-30
1.080307907e-30
9.236145218e-31
7.542832834e-31
5.794336911e-31
4.980922772e-31
4.039160015e-31
3.120133097e-31
2.586018674e-31
2.161016551e-31
1.694987317e-31
1.27920172e-31
1.019154987e-31
8.90127645e-32
7.463060819e-32
5.889428239e-32
4.650213179e-32
3.942333882e-32
3.2503949e-32
2.591987804e-32
2.205860904e-32
1.944587764e-32
1.698091066e-32
1.435884951e-32
1.217852258e-32
1.097143388e-32
1.043250723e-32
1.005707087e-32
9.184065023e-33
7.889677229e-33
7.213891685e-33
6.910401592e-33
7.129038589e-33
7.165802971e-33
6.994142847e-33
6.703774766e-33
6.73701665e-33
7.087335019e-33
7.60380755e-33
8.113156494e-33
8.753721356e-33
9.842175677e-33
1.109735927e-32
1.325750367e-32
1.643694703e-32
2.01941764e-32
2.610053806e-32
3.415776288e-32
4.62419688e-32
6.402890862e-32
8.750412514e-32
1.224215425e-31
1.761340139e-31
2.491253276e-31
3.692575097e-31
5.444760632e-31
7.881051498e-31
1.181823638e-30
1.908307953e-30
3.182533389e-30
5.332086843e-30
9.321488326e-30
1.650590816e-29
2.85770907e-29
4.746404135e-29
8.035652651e-29
1.401640463e-28
2.487453286e-28
4.31645211e-28
7.305224561e-28
1.162677217e-27
1.705951704e-27
2.428772015e-27
3.35940213e-27
4.379759662e-27
5.430932255e-27
6.255530021e-27
7.076606748e-27
7.632122667e-27
8.142934798e-27
8.816071571e-27
9.521490209e-27
1.008559203e-26
1.055154103e-26
1.090664299e-26
1.114024543e-26
1.158855956e-26
1.195326381e-26
1.230144743e-26
1.248817495e-26
1.268415495e-26
1.960921792e-28
1.739154301e-28
1.623348388e-28
1.356130721e-28
1.194908784e-28
1.013542146e-28
8.425761428e-29
6.768224622e-29
5.189529409e-29
4.357489866e-29
3.678338949e-29
3.015714887e-29
2.337637054e-29
1.993958241e-29
1.630794397e-29
1.234723353e-29
1.030931534e-29
8.484030728e-30
6.727537616e-30
5.08707576e-30
4.080722932e-30
3.545380179e-30
3.017204851e-30
2.358558936e-30
1.870784962e-30
1.561171366e-30
1.295872077e-30
1.046997196e-30
8.771706393e-31
7.771778607e-31
6.780904736e-31
5.723784444e-31
4.819939121e-31
4.360439204e-31
4.182984755e-31
4.001937265e-31
3.638794198e-31
3.131994227e-31
2.867161577e-31
2.786389532e-31
2.862790516e-31
2.847600891e-31
2.774767057e-31
2.652618475e-31
2.672283626e-31
2.809849944e-31
3.003973566e-31
3.196338241e-31
3.453395667e-31
3.851408093e-31
4.337305028e-31
5.155248636e-31
6.450949136e-31
7.921901854e-31
1.02236824e-30
1.339341362e-30
1.80496363e-30
2.466947391e-30
3.369050613e-30
4.698528248e-30
6.757875123e-30
9.532628146e-30
1.404379874e-29
2.070667098e-29
2.981893994e-29
4.378651434e-29
7.129958515e-29
1.185930691e-28
2.065318218e-28
3.457458235e-28
6.111131407e-28
1.049796253e-27
1.717714637e-27
2.932500866e-27
4.986753455e-27
8.80883982e-27
1.510520466e-26
2.566002454e-26
4.089865138e-26
5.888792392e-26
8.424470532e-26
1.155807469e-25
1.501111374e-25
1.842463119e-25
2.13058105e-25
2.356987072e-25
2.518474607e-25
2.683852203e-25
2.898226409e-25
3.072812618e-25
3.233685914e-25
3.363384893e-25
3.462434312e-25
3.493328603e-25
3.645511806e-25
3.749107567e-25
3.853195225e-25
3.926583091e-25
3.963794197e-25
7.897539941e-27
6.969402845e-27
6.462956544e-27
5.379357006e-27
4.712288389e-27
4.014402961e-27
3.312360584e-27
2.691420514e-27
2.0567571e-27
1.738046044e-27
1.471963436e-27
1.208224648e-27
9.513261177e-28
8.009983914e-28
6.484748621e-28
4.900905628e-28
4.107263307e-28
3.469968732e-28
2.675216578e-28
2.012882529e-28
1.632486189e-28
1.411167566e-28
1.201997658e-28
9.405009454e-29
7.580410866e-29
6.28880148e-29
5.161779961e-29
4.202219133e-29
3.487892083e-29
3.103923337e-29
2.701303077e-29
2.258196272e-29
1.881772444e-29
1.754375455e-29
1.660789894e-29
1.606930576e-29
1.431150974e-29
1.234769303e-29
1.128917146e-29
1.125656847e-29
1.141608009e-29
1.119041445e-29
1.101534164e-29
1.058643022e-29
1.072094435e-29
1.113189922e-29
1.185777402e-29
1.258169887e-29
1.354239264e-29
1.512621768e-29
1.697784739e-29
2.03364756e-29
2.527733403e-29
3.10433957e-29
3.987814956e-29
5.23135602e-29
7.0437368e-29
9.518264095e-29
1.302838309e-28
1.804421209e-28
2.591435772e-28
3.636438649e-28
5.385195301e-28
7.85333964e-28
1.124469254e-27
1.692972279e-27
2.665341268e-27
4.476549323e-27
7.741397624e-27
1.283825858e-26
2.247402875e-26
3.856190148e-26
6.22278179e-26
1.053290943e-25
1.793752728e-25
3.096430899e-25
5.424610175e-25
9.051954966e-25
1.433004108e-24
2.03952019e-24
2.89412509e-24
3.938696288e-24
5.147013327e-24
6.189164973e-24
7.153687064e-24
7.882487969e-24
8.244479724e-24
8.825897369e-24
9.392704554e-24
9.880448105e-24
1.033646714e-23
1.070665195e-23
1.090552401e-23
1.130185558e-23
1.163522504e-23
1.191832074e-23
1.214686454e-23
1.230340811e-23
1.236726013e-23
3.177276174e-25
2.837482929e-25
2.562857969e-25
2.111034721e-25
1.864553149e-25
1.59139967e-25
1.314380177e-25
1.077852856e-25
8.114161606e-26
6.886721055e-26
5.893669825e-26
4.80435746e-26
3.828086766e-26
3.202178397e-26
2.573201808e-26
1.975732885e-26
1.635692124e-26
1.368935222e-26
1.066489611e-26
7.891864476e-27
6.499393457e-27
5.615573854e-27
4.764894426e-27
3.720332685e-27
3.022372298e-27
2.523473977e-27
2.054838964e-27
1.668679462e-27
1.389881447e-27
1.235426578e-27
1.074357045e-27
8.92665889e-28
7.570089309e-28
6.987246785e-28
6.587357227e-28
6.378915926e-28
5.689207174e-28
4.856622741e-28
4.506900903e-28
4.553247175e-28
4.533529696e-28
4.478669232e-28
4.367314816e-28
4.178674118e-28
4.26899034e-28
4.418212605e-28
4.68158315e-28
4.95270404e-28
5.314461532e-28
5.968297026e-28
6.645086569e-28
7.951126029e-28
9.872760852e-28
1.204415215e-27
1.557058681e-27
2.028553614e-27
2.732233835e-27
3.762338501e-27
5.036495972e-27
6.907694613e-27
9.966954635e-27
1.379521494e-26
2.059221554e-26
3.00644031e-26
4.194054076e-26
6.332694959e-26
9.97600456e-26
1.677988324e-25
2.896722778e-25
4.756530558e-25
8.269235887e-25
1.412021815e-24
2.240243839e-24
3.787214526e-24
6.34047181e-24
1.102879771e-23
1.913376035e-23
3.158809759e-23
4.965093631e-23
7.179598629e-23
9.965650378e-23
1.364793819e-22
1.745888921e-22
2.117162893e-22
2.386269134e-22
2.605589735e-22
2.739929865e-22
2.868522854e-22
3.023952501e-22
3.152169805e-22
3.289514486e-22
3.405913328e-22
3.444874129e-22
3.554579044e-22
3.653388204e-22
3.74454196e-22
3.821714734e-22
3.858657447e-22
3.857787178e-22
1.255348521e-23
1.143317819e-23
1.014352704e-23
8.376417105e-24
7.405644433e-24
6.385443778e-24
5.222994241e-24
4.328179862e-24
3.226806758e-24
2.733343208e-24
2.333113007e-24
1.907204586e-24
1.536160058e-24
1.281356847e-24
1.020108896e-24
7.852604515e-25
6.475809423e-25
5.431514841e-25
4.221016854e-25
3.211531387e-25
2.585227507e-25
2.236816511e-25
1.888861424e-25
1.46263406e-25
1.205830942e-25
1.01117715e-25
8.204054294e-26
6.617831479e-26
5.50198059e-26
4.898944996e-26
4.286900101e-26
3.528288053e-26
2.977929717e-26
2.781141957e-26
2.637489533e-26
2.516554178e-26
2.257203391e-26
1.911939448e-26
1.783338963e-26
1.821990951e-26
1.838126036e-26
1.776380346e-26
1.754831328e-26
1.70328827e-26
1.708341982e-26
1.755508735e-26
1.84947473e-26
1.939852755e-26
2.100019823e-26
2.341025424e-26
2.57812302e-26
3.104726479e-26
3.881187474e-26
4.590560242e-26
6.052872298e-26
7.95290558e-26
1.04743824e-25
1.455163181e-25
1.930564927e-25
2.648652291e-25
3.828029947e-25
5.383802634e-25
7.934827547e-25
1.14489547e-24
1.590457594e-24
2.369175542e-24
3.79398026e-24
6.353309268e-24
1.076368749e-23
1.751871917e-23
3.073492714e-23
5.176125992e-23
8.002589964e-23
1.357038182e-22
2.30057418e-22
4.036422288e-22
6.759164509e-22
1.111006372e-21
1.746968627e-21
2.48893802e-21
3.492856545e-21
4.688781996e-21
5.910491039e-21
7.09736726e-21
7.813146964e-21
8.558790985e-21
8.964871911e-21
9.275295405e-21
9.718043319e-21
1.004762359e-20
1.04646127e-20
1.082714964e-20
1.102487936e-20
1.131565321e-20
1.155131134e-20
1.182201498e-20
1.200551683e-20
1.207368103e-20
1.199323069e-20
5.080328926e-22
4.52435262e-22
4.007399946e-22
3.442463018e-22
2.936076388e-22
2.536860563e-22
2.083397383e-22
1.720737957e-22
1.295710079e-22
1.091653601e-22
9.256400426e-23
7.597004581e-23
6.123853274e-23
5.119651926e-23
4.043703618e-23
3.123657832e-23
2.552881768e-23
2.188394466e-23
1.660227103e-23
1.282651756e-23
1.027789934e-23
8.911237264e-24
7.551906222e-24
5.86545637e-24
4.806281641e-24
4.006390974e-24
3.234830868e-24
2.653865061e-24
2.178918306e-24
1.943992814e-24
1.716080529e-24
1.406208903e-24
1.1766214e-24
1.111113329e-24
1.048691708e-24
9.969092712e-25
9.065410458e-25
7.602185377e-25
7.097023616e-25
7.310820469e-25
7.345003222e-25
7.141573113e-25
6.988074295e-25
6.756585624e-25
6.779883574e-25
6.93292023e-25
7.309266152e-25
7.599393299e-25
8.318149043e-25
9.160105331e-25
1.015159349e-24
1.214542698e-24
1.500837207e-24
1.83312205e-24
2.375066053e-24
3.094423082e-24
4.108809342e-24
5.648501755e-24
7.308207959e-24
1.018740876e-23
1.470753566e-23
2.048333646e-23
3.040218701e-23
4.398190915e-23
5.959087703e-23
8.884717617e-23
1.422213997e-22
2.3814892e-22
3.981710633e-22
6.392765807e-22
1.131546105e-21
1.924952392e-21
2.896395007e-21
4.931826658e-21
8.308159326e-21
1.43853246e-20
2.397499287e-20
3.926672031e-20
6.065173542e-20
8.522615867e-20
1.20681737e-19
1.60821385e-19
1.981769293e-19
2.373560544e-19
2.624529393e-19
2.81456895e-19
2.923887424e-19
2.962916791e-19
3.112626161e-19
3.214762341e-19
3.330911277e-19
3.442988051e-19
3.502354179e-19
3.572044437e-19
3.587182815e-19
3.678754076e-19
3.738719113e-19
3.758628948e-19
3.715624496e-19
1.998861658e-20
1.806573065e-20
1.602956232e-20
1.375351993e-20
1.171347221e-20
1.00974125e-20
8.407079269e-21
6.871744323e-21
5.17099155e-21
4.364587878e-21
3.70579719e-21
2.993131114e-21
2.411293078e-21
2.041535955e-21
1.602907261e-21
1.252670582e-21
1.00836791e-21
8.676474262e-22
6.557921564e-22
5.136805147e-22
4.100770946e-22
3.544667171e-22
2.986902337e-22
2.313242007e-22
1.906671932e-22
1.59389834e-22
1.299225238e-22
1.05826823e-22
8.627362642e-23
7.723551263e-23
6.832766082e-23
5.630510812e-23
4.65009703e-23
4.41421205e-23
4.203704252e-23
3.996634606e-23
3.60227697e-23
3.001827379e-23
2.834341485e-23
2.939292764e-23
2.934353207e-23
2.842816738e-23
2.765205308e-23
2.675918507e-23
2.685219176e-23
2.724943591e-23
2.888555621e-23
3.033215966e-23
3.281758768e-23
3.569140761e-23
3.986448707e-23
4.768929076e-23
5.978733258e-23
7.061277037e-23
9.201874324e-23
1.20436257e-22
1.618589503e-22
2.201834264e-22
2.900376328e-22
3.932735951e-22
5.619169079e-22
7.834852255e-22
1.157886675e-21
1.650980899e-21
2.238257456e-21
3.334077575e-21
5.314722763e-21
8.906334358e-21
1.510603419e-20
2.363717548e-20
4.169304686e-20
7.067257377e-20
1.072829929e-19
1.772011366e-19
2.96538533e-19
5.137177657e-19
8.501300008e-19
1.379596772e-18
2.09007816e-18
2.882357991e-18
4.144199616e-18
5.501846911e-18
6.854754379e-18
7.974117829e-18
8.799104677e-18
9.280400581e-18
9.540970466e-18
9.721242628e-18
9.981775364e-18
1.021144117e-17
1.055233891e-17
1.090796081e-17
1.11030567e-17
1.128760454e-17
1.134283426e-17
1.150612712e-17
1.162466355e-17
1.164846676e-17
1.155550202e-17
7.928910595e-19
7.161400623e-19
6.339060868e-19
5.454462321e-19
4.609378347e-19
4.030139485e-19
3.388532266e-19
2.74314031e-19
2.07332581e-19
1.745461002e-19
1.483499041e-19
1.181648208e-19
9.652483759e-20
8.137293095e-20
6.33022935e-20
5.027101741e-20
4.102529784e-20
3.536943248e-20
2.630652752e-20
2.050902936e-20
1.623229765e-20
1.419645909e-20
1.197320212e-20
9.220553553e-21
7.600725988e-21
6.417149068e-21
5.174191335e-21
4.210746087e-21
3.426411784e-21
3.048434948e-21
2.710420817e-21
2.236311459e-21
1.847997638e-21
1.750873638e-21
1.687143904e-21
1.591044946e-21
1.439778741e-21
1.206076333e-21
1.125990353e-21
1.179324434e-21
1.171062342e-21
1.119332883e-21
1.100171195e-21
1.057633103e-21
1.062242786e-21
1.063753261e-21
1.141787703e-21
1.199530761e-21
1.291152512e-21
1.399876727e-21
1.567194322e-21
1.866763624e-21
2.352545942e-21
2.762991539e-21
3.548992331e-21
4.720584886e-21
6.281055755e-21
8.570832556e-21
1.112806673e-20
1.528492529e-20
2.146854391e-20
2.973043565e-20
4.402021582e-20
6.43880397e-20
8.45424051e-20
1.252662893e-19
1.995210072e-19
3.319076313e-19
5.658756888e-19
8.537626548e-19
1.536309766e-18
2.575896299e-18
3.865725939e-18
6.435972769e-18
1.055906534e-17
1.835411881e-17
2.999864114e-17
4.890976755e-17
7.617565697e-17
9.958513892e-17
1.4244598e-16
1.880002422e-16
2.348912554e-16
2.658563844e-16
2.918280246e-16
3.029264963e-16
3.104747799e-16
3.134028034e-16
3.184201121e-16
3.230991902e-16
3.346117637e-16
3.448382968e-16
3.524722983e-16
3.556423396e-16
3.559596222e-16
3.600909812e-16
3.618232563e-16
3.590977347e-16
3.565537546e-16
3.219004802e-17
2.821932528e-17
2.500130114e-17
2.148936223e-17
1.878923905e-17
1.598504939e-17
1.35468744e-17
1.095243406e-17
8.298499993e-18
6.973748418e-18
5.906297347e-18
4.763862893e-18
3.842031109e-18
3.24355751e-18
2.521318117e-18
2.012560653e-18
1.625895829e-18
1.406740189e-18
1.083493749e-18
8.27948493e-19
6.440388479e-19
5.622088368e-19
4.776805334e-19
3.728542603e-19
3.04844245e-19
2.570181453e-19
2.050045067e-19
1.670410347e-19
1.373584475e-19
1.200397436e-19
1.091109649e-19
8.869550002e-20
7.465256691e-20
6.949680231e-20
6.675511584e-20
6.343044659e-20
5.736107466e-20
4.766709664e-20
4.526118608e-20
4.689661336e-20
4.672044117e-20
4.536346995e-20
4.352831326e-20
4.154024171e-20
4.192668563e-20
4.198313376e-20
4.51926848e-20
4.775524769e-20
5.078805493e-20
5.470729303e-20
6.190743338e-20
7.241174554e-20
9.285922328e-20
1.084005609e-19
1.375115062e-19
1.833432937e-19
2.448246956e-19
3.319998005e-19
4.242148497e-19
5.929129988e-19
8.307086226e-19
1.127739001e-18
1.664513457e-18
2.447998256e-18
3.174263032e-18
4.711911655e-18
7.456351392e-18
1.23288622e-17
2.121903672e-17
3.172868688e-17
5.632859405e-17
9.520767653e-17
1.397987326e-16
2.317222022e-16
3.795535278e-16
6.560740977e-16
1.055516276e-15
1.726127589e-15
2.690833737e-15
3.442311591e-15
4.921670181e-15
6.386820268e-15
8.017181299e-15
8.971527639e-15
9.695742232e-15
9.763070406e-15
1.006143789e-14
1.012558146e-14
1.014551292e-14
1.024863192e-14
1.062886588e-14
1.090926761e-14
1.113163427e-14
1.12504346e-14
1.096254492e-14
1.115917611e-14
1.118554339e-14
1.111543072e-14
1.093990182e-14
1.281567092e-15
1.162328379e-15
9.827381627e-16
8.503705835e-16
7.535058153e-16
6.346087441e-16
5.342192677e-16
4.383632287e-16
3.32116334e-16
2.770024748e-16
2.330901871e-16
1.901978249e-16
1.536752592e-16
1.294325742e-16
1.010207438e-16
8.031217318e-17
6.590880194e-17
5.548940381e-17
4.363963019e-17
3.291139427e-17
2.571753612e-17
2.213433498e-17
1.907774035e-17
1.49059841e-17
1.205528319e-17
1.023754261e-17
8.086066528e-18
6.595875329e-18
5.446351794e-18
4.736173779e-18
4.3982913e-18
3.518607981e-18
2.980085105e-18
2.779021167e-18
2.656795665e-18
2.52876659e-18
2.278085882e-18
1.876939575e-18
1.851310174e-18
1.902274141e-18
1.868439752e-18
1.802906843e-18
1.719704484e-18
1.598299552e-18
1.65273056e-18
1.609302857e-18
1.784077202e-18
1.885073286e-18
1.986070057e-18
2.171460551e-18
2.466125513e-18
2.889696512e-18
3.628742977e-18
4.239678189e-18
5.421109762e-18
7.105415741e-18
9.545438498e-18
1.32050925e-17
1.685889477e-17
2.294679004e-17
3.188087606e-17
4.264167555e-17
6.456913493e-17
9.27586422e-17
1.186325526e-16
1.776000079e-16
2.773775267e-16
4.566151555e-16
7.958718381e-16
1.178288886e-15
2.080416668e-15
3.537788149e-15
4.994745297e-15
8.405960739e-15
1.344563953e-14
2.3342389e-14
3.786084695e-14
6.010546375e-14
9.75114415e-14
1.182280078e-13
1.71835131e-13
2.211850685e-13
2.691357762e-13
3.026912123e-13
3.251881356e-13
3.20553372e-13
3.249420999e-13
3.291290976e-13
3.209565953e-13
3.290535548e-13
3.361413951e-13
3.437354568e-13
3.492925678e-13
3.532809016e-13
3.517132864e-13
3.511796563e-13
3.479918153e-13
3.427834869e-13
3.344253712e-13
5.103682612e-14
4.772968901e-14
3.944620146e-14
3.430330129e-14
3.004243694e-14
2.552682803e-14
2.065278657e-14
1.760466709e-14
1.327726843e-14
1.113639426e-14
9.489720402e-15
7.594538406e-15
6.094893249e-15
5.160073165e-15
4.001616011e-15
3.19795114e-15
2.629315868e-15
2.211164913e-15
1.751630179e-15
1.302892923e-15
1.03183681e-15
8.883244601e-16
7.61844012e-16
5.936823601e-16
4.855962728e-16
4.100986465e-16
3.189363185e-16
2.640626889e-16
2.143737856e-16
1.91709159e-16
1.748128769e-16
1.394121505e-16
1.185800497e-16
1.113739806e-16
1.058380409e-16
1.006816144e-16
9.076870042e-17
7.364861936e-17
7.436824647e-17
7.57519948e-17
7.522638646e-17
7.286864399e-17
6.792008853e-17
6.313908258e-17
6.523127612e-17
6.537403742e-17
7.042942133e-17
7.413526589e-17
7.959837785e-17
8.589684769e-17