/*--------------------------------*- C++ -*----------------------------------*\
| =========                 |                                                 |
| \\      /  F ield         | OpenFOAM: The Open Source CFD Toolbox           |
|  \\    /   O peration     | Version:  v1706                                 |
|   \\  /    A nd           | Web:      www.OpenFOAM.com                      |
|    \\/     M anipulation  |                                                 |
\*---------------------------------------------------------------------------*/
FoamFile
{
    version     2.0;
    format      ascii;
    class       volScalarField;
    location    "0.00272";
    object      X_N+;
}
// * * * * * * * * * * * * * * * * * * * * * * * * * * * * * * * * * * * * * //

dimensions      [0 0 0 0 0 0 0];


internalField   nonuniform List<scalar> 
11682
(
7.132117804e-66
5.477574113e-66
5.738987508e-66
5.252037713e-66
4.755458467e-66
3.217893167e-66
2.536426295e-66
2.084682572e-66
9.962588772e-67
8.031917722e-67
7.698596219e-67
6.30855188e-67
3.882859347e-67
2.865971403e-67
1.886216279e-67
1.200065384e-67
1.420096741e-67
1.136810071e-67
5.477453906e-68
3.408204099e-68
2.435517978e-68
1.946310494e-68
1.521788249e-68
7.300889712e-69
7.003336028e-69
5.362455277e-69
4.014492613e-69
2.931316946e-69
2.427089647e-69
2.122878015e-69
1.637375504e-69
1.296207047e-69
9.96300485e-70
7.558960283e-70
7.11756925e-70
6.734174538e-70
3.92047505e-70
1.232897928e-70
7.580670255e-71
2.109220408e-70
6.428951841e-70
1.265552396e-69
1.156602217e-69
7.176112756e-70
7.365242935e-70
5.559964926e-70
9.944961243e-70
1.242922782e-69
1.134100764e-69
9.971651117e-70
8.960142691e-70
1.455343595e-69
2.182567398e-69
3.75436158e-69
5.775832668e-69
8.995686614e-69
1.400246944e-68
1.634038033e-68
3.662772211e-68
6.490854299e-68
9.458860337e-68
1.96372636e-67
3.215037824e-67
3.567141726e-67
9.855367378e-67
2.283332691e-66
5.289901604e-66
9.200903843e-66
2.734507636e-65
7.427251174e-65
1.628824449e-64
3.911768355e-64
8.73511135e-64
1.827500673e-63
4.384533524e-63
1.108396203e-62
2.517137606e-62
4.915374528e-62
1.003002817e-61
1.5771048e-61
2.832600428e-61
3.976221184e-61
6.443441936e-61
8.412659668e-61
9.840436285e-61
1.06528376e-60
1.229829562e-60
1.277411596e-60
1.33629742e-60
1.502120088e-60
1.540592235e-60
1.847526322e-60
2.067215744e-60
2.227253968e-60
2.392046533e-60
2.500406162e-60
2.574559011e-60
2.623587907e-60
2.58867011e-60
1.502976711e-63
1.372299749e-63
1.267529331e-63
1.183835872e-63
1.052942267e-63
7.415056322e-64
5.477186394e-64
4.664042953e-64
2.283844183e-64
1.782328598e-64
1.680132153e-64
1.343958984e-64
8.424320298e-65
6.095851777e-65
4.134537045e-65
2.624022942e-65
3.652825086e-65
2.580714965e-65
1.228408386e-65
7.57713703e-66
5.329395455e-66
4.64873747e-66
3.442918173e-66
2.163146683e-66
1.503636788e-66
1.222804911e-66
9.222694096e-67
6.176013328e-67
5.408796409e-67
4.774546592e-67
3.790820084e-67
3.083501288e-67
2.256396913e-67
1.699363673e-67
1.603137477e-67
1.528415692e-67
9.016466504e-68
2.6061436e-68
1.429889912e-68
3.877456354e-68
1.187735615e-67
2.323109019e-67
2.221435509e-67
1.709164072e-67
1.559243704e-67
1.842938898e-67
2.283690277e-67
2.792916628e-67
2.510564891e-67
2.157252691e-67
2.227340435e-67
3.361451101e-67
5.000827121e-67
8.165762121e-67
1.268391645e-66
1.917840159e-66
3.04447912e-66
4.415247515e-66
7.823162976e-66
1.40769686e-65
2.589800777e-65
4.290015971e-65
6.806358233e-65
1.12917004e-64
1.999547788e-64
4.708497748e-64
1.076814519e-63
2.547262278e-63
5.715377916e-63
1.488681366e-62
3.556079978e-62
7.866861591e-62
1.752735764e-61
3.60748055e-61
8.748420526e-61
2.154136889e-60
4.964642184e-60
9.848389755e-60
1.92642889e-59
3.165329158e-59
5.186673628e-59
8.749755948e-59
1.203756346e-58
1.557512032e-58
1.862041709e-58
2.075296113e-58
2.274967382e-58
2.303245117e-58
2.343638471e-58
2.74896745e-58
3.000418024e-58
3.331025557e-58
3.671658809e-58
3.929665814e-58
4.203166822e-58
4.34096542e-58
4.470004862e-58
4.552907972e-58
4.522603165e-58
3.752878524e-61
3.007934617e-61
2.720607476e-61
2.640136201e-61
2.278897595e-61
1.588194657e-61
1.156545036e-61
1.029569361e-61
5.109288616e-62
3.908410722e-62
3.683566476e-62
2.800403206e-62
1.743728434e-62
1.327928043e-62
9.317224865e-63
5.839912929e-63
8.569494636e-63
5.774302589e-63
2.76511823e-63
1.677283907e-63
1.151170968e-63
1.060902711e-63
7.850483398e-64
4.849034513e-64
3.641474573e-64
2.768590824e-64
2.105159125e-64
1.539454227e-64
1.244686939e-64
1.095729867e-64
8.754996536e-65
6.996219525e-65
5.063415668e-65
3.85744471e-65
3.776414498e-65
3.423664461e-65
2.079218148e-65
5.969171506e-66
2.685735487e-66
7.15926042e-66
2.215187363e-65
4.297995946e-65
4.33853165e-65
3.371240245e-65
3.273861402e-65
4.079587327e-65
5.009526262e-65
6.216413373e-65
5.538004949e-65
4.579908201e-65
4.830006474e-65
7.123506274e-65
1.141328826e-64
1.757279369e-64
2.712465098e-64
3.97801194e-64
6.59365375e-64
8.912143586e-64
1.640947824e-63
3.015140227e-63
5.51742878e-63
9.47182623e-63
1.511950944e-62
2.347376931e-62
3.961136433e-62
9.638818011e-62
2.160009184e-61
5.198527275e-61
1.153968724e-60
2.947834123e-60
7.136583436e-60
1.579597582e-59
3.471442122e-59
7.043752974e-59
1.710401148e-58
4.306580907e-58
9.546318357e-58
1.884072388e-57
3.673269073e-57
5.910901414e-57
1.046188644e-56
1.676603944e-56
2.223232192e-56
2.865409128e-56
3.354208777e-56
3.674748672e-56
4.102592474e-56
4.102190419e-56
4.334348745e-56
4.891483968e-56
5.247931643e-56
5.823721291e-56
6.433178021e-56
6.876556797e-56
7.337981939e-56
7.310932102e-56
7.707577096e-56
7.850475245e-56
7.825564977e-56
8.399779466e-59
7.009155598e-59
6.162966962e-59
5.880438333e-59
4.753661091e-59
3.655981655e-59
2.438276625e-59
2.264568008e-59
1.127599689e-59
8.508309333e-60
8.240494156e-60
5.866061404e-60
3.773131687e-60
3.283914903e-60
2.061781601e-60
1.346935602e-60
2.000859444e-60
1.286062684e-60
6.273215245e-61
3.722314937e-61
2.517880391e-61
2.408576706e-61
1.810148206e-61
1.104539616e-61
8.151226162e-62
6.74770595e-62
4.797695163e-62
3.438725857e-62
2.780194987e-62
2.525973181e-62
2.074023765e-62
1.586071819e-62
1.132076354e-62
8.894250291e-63
8.88615713e-63
7.947179709e-63
4.67212642e-63
1.359317565e-63
4.793180335e-64
1.325134805e-63
4.275880998e-63
9.493126574e-63
8.954269934e-63
7.273899479e-63
7.122832396e-63
8.775187072e-63
1.108798153e-62
1.38444292e-62
1.223788801e-62
9.474047777e-63
1.050471756e-62
1.592215876e-62
2.541468996e-62
3.757726497e-62
5.77695745e-62
8.917376113e-62
1.426585799e-61
1.740802141e-61
3.405370461e-61
6.353164863e-61
1.169604951e-60
1.993926791e-60
3.204967483e-60
4.870134598e-60
8.148788208e-60
1.972212731e-59
4.342048485e-59
1.052875953e-58
2.398708258e-58
5.836257819e-58
1.428706961e-57
3.214910302e-57
6.867451319e-57
1.349747594e-56
3.223789065e-56
8.368913241e-56
1.833198377e-55
3.607697212e-55
7.028810941e-55
1.0877459e-54
1.975283604e-54
3.130051767e-54
4.098929697e-54
5.230185823e-54
5.977664483e-54
6.223078264e-54
7.353847127e-54
7.325438359e-54
7.911032467e-54
8.326831062e-54
9.714974727e-54
1.049263203e-53
1.131009895e-53
1.204350655e-53
1.269632688e-53
1.325460087e-53
1.351072122e-53
1.364508843e-53
1.354766404e-53
1.771719222e-56
1.572619972e-56
1.388290741e-56
1.300536689e-56
9.171592534e-57
8.014949395e-57
5.296212569e-57
4.956125342e-57
2.582110413e-57
1.849318342e-57
1.858229939e-57
1.283302687e-57
7.966533606e-58
7.269965329e-58
4.670460232e-58
2.952197173e-58
4.339986552e-58
2.833333879e-58
1.422456626e-58
8.259860375e-59
5.792562222e-59
5.398811346e-59
4.141952695e-59
2.632013756e-59
1.834207578e-59
1.530582442e-59
1.084588359e-59
7.73894069e-60
6.223389016e-60
5.644249765e-60
4.676834134e-60
3.559106109e-60
2.471808482e-60
1.984883737e-60
1.986218969e-60
1.771349146e-60
1.096594251e-60
2.954961505e-61
1.142742698e-61
2.51351026e-61
8.192393855e-61
1.8707099e-60
1.987106356e-60
1.629766431e-60
1.617697174e-60
1.880210172e-60
2.497954475e-60
3.094596256e-60
2.707691721e-60
2.117550067e-60
2.267117215e-60
3.683863035e-60
5.696684897e-60
7.999045702e-60
1.255875843e-59
1.911201205e-59
3.039761565e-59
4.490938922e-59
7.052254164e-59
1.328693776e-58
2.465709672e-58
4.023652241e-58
6.883337199e-58
9.776856634e-58
1.831356254e-57
4.092937631e-57
9.00733758e-57
2.123891129e-56
4.704494663e-56
1.16213835e-55
2.831788478e-55
6.593613612e-55
1.363222534e-54
2.605494983e-54
6.496131938e-54
1.612005916e-53
3.521271044e-53
6.835093856e-53
1.347737981e-52
2.197082459e-52
3.712972012e-52
5.8244615e-52
7.648470806e-52
9.599320171e-52
1.057106668e-51
1.14194573e-51
1.308274081e-51
1.261264639e-51
1.455666604e-51
1.585317952e-51
1.738914624e-51
1.850493914e-51
1.975859081e-51
2.092672065e-51
2.103958248e-51
2.293312862e-51
2.32394008e-51
2.349506152e-51
2.342351698e-51
4.102323877e-54
3.498087898e-54
3.198444211e-54
2.718278027e-54
2.277146148e-54
1.759090362e-54
1.202376425e-54
1.080066463e-54
5.663126636e-55
3.969523605e-55
4.090765497e-55
2.930294819e-55
1.928708975e-55
1.61031059e-55
1.007191529e-55
6.557704364e-56
1.042193792e-55
6.312933988e-56
3.199546008e-56
1.830981464e-56
1.31430299e-56
1.188151861e-56
9.216397258e-57
6.025179297e-57
4.283289223e-57
3.483382597e-57
2.444879819e-57
1.763047652e-57
1.405422776e-57
1.260069989e-57
1.045011934e-57
7.912493468e-58
5.695301042e-58
4.607860106e-58
4.470377411e-58
3.915838578e-58
2.437001111e-58
6.41412504e-59
2.299993586e-59
4.898007741e-59
1.57245044e-58
3.673666796e-58
4.191724605e-58
3.569770434e-58
3.581842175e-58
4.083732247e-58
5.703168773e-58
6.950152015e-58
6.051707832e-58
4.604264336e-58
4.775600717e-58
8.019971771e-58
1.272369364e-57
1.801240069e-57
2.884226861e-57
3.888341905e-57
6.461485436e-57
9.625435899e-57
1.510004477e-56
2.765064167e-56
5.165925019e-56
8.99748722e-56
1.498285476e-55
2.10532072e-55
3.773971499e-55
8.454439264e-55
1.952152051e-54
4.321948204e-54
9.073720599e-54
2.282737594e-53
5.576961714e-53
1.29601601e-52
2.694955887e-52
5.234492205e-52
1.207435222e-51
3.0808759e-51
6.74140254e-51
1.369008847e-50
2.605058283e-50
4.077760572e-50
6.898988539e-50
1.07918409e-49
1.448279625e-49
1.764364796e-49
2.001067273e-49
2.129919542e-49
2.338590274e-49
2.336517284e-49
2.59567086e-49
2.806314526e-49
3.115259936e-49
3.286518735e-49
3.447491917e-49
3.580618191e-49
3.878000246e-49
4.003388927e-49
4.012184763e-49
4.030726969e-49
4.043272751e-49
9.432427821e-52
7.695550745e-52
7.022729393e-52
6.472790462e-52
5.108224445e-52
3.894826886e-52
2.673944571e-52
2.345619584e-52
1.256799781e-52
9.606235379e-53
8.978203318e-53
6.536272544e-53
4.381268416e-53
3.576137789e-53
2.132850283e-53
1.482586724e-53
2.350160295e-53
1.470080369e-53
7.151509499e-54
4.063305683e-54
2.962687179e-54
2.609308581e-54
2.031686268e-54
1.359068574e-54
9.599269932e-55
7.905258834e-55
5.513235813e-55
4.000617582e-55
3.245430544e-55
2.937280343e-55
2.328866294e-55
1.737713615e-55
1.224559991e-55
1.051166251e-55
1.010023045e-55
8.658503369e-56
5.241774984e-56
1.356972192e-56
4.580286294e-57
9.874277112e-57
3.072035281e-56
6.775665809e-56
8.71779211e-56
7.60074336e-56
7.990439551e-56
9.539610479e-56
1.281529292e-55
1.558966259e-55
1.389894592e-55
1.010850375e-55
1.121851086e-55
1.68847333e-55
2.794913353e-55
3.929810645e-55
6.200771204e-55
9.296207636e-55
1.384043084e-54
2.063557563e-54
3.151230471e-54
5.74704631e-54
1.077154172e-53
1.873190779e-53
3.238282165e-53
4.726647581e-53
7.761194664e-53
1.740577758e-52
4.057168274e-52
8.860656786e-52
1.866420094e-51
4.599649082e-51
1.103461653e-50
2.523446752e-50
5.313438039e-50
1.041882844e-49
2.171064143e-49
5.846578825e-49
1.282835519e-48
2.640481936e-48
4.950474376e-48
8.045082527e-48
1.280779801e-47
1.993979612e-47
2.752558155e-47
3.252213737e-47
3.65037676e-47
4.024719761e-47
4.129195048e-47
4.214733182e-47
4.653022244e-47
4.870045288e-47
5.525637201e-47
5.880796804e-47
6.040579928e-47
5.867647352e-47
6.70564581e-47
6.941052359e-47
7.232968236e-47
7.269592266e-47
7.114468959e-47
2.076260573e-49
1.783144381e-49
1.674403876e-49
1.412676559e-49
1.107534491e-49
8.751817603e-50
6.362040932e-50
5.102982598e-50
2.778877846e-50
2.179609618e-50
1.969085297e-50
1.486058797e-50
1.012697508e-50
8.103628203e-51
5.113664311e-51
3.318399972e-51
5.705303616e-51
3.227315196e-51
1.584684404e-51
9.069340898e-52
6.609966449e-52
6.016871857e-52
4.429050185e-52
3.054427811e-52
2.108677812e-52
1.770630572e-52
1.242289476e-52
8.896467718e-53
7.23369305e-53
6.632253447e-53
5.177945594e-53
3.74998072e-53
2.813474468e-53
2.533585596e-53
2.263354599e-53
1.942041254e-53
1.205975184e-53
2.938257104e-54
1.025632313e-54
2.038567358e-54
6.097028406e-54
1.48584186e-53
1.910529105e-53
1.648615221e-53
1.787974021e-53
2.161430461e-53
2.864761611e-53
3.481587522e-53
3.26925825e-53
2.153860932e-53
2.4573137e-53
3.976788024e-53
6.119368446e-53
8.579873294e-53
1.33163773e-52
1.965088047e-52
2.881853863e-52
4.362650424e-52
6.750152382e-52
1.207536375e-51
2.235936702e-51
3.890301642e-51
6.82101705e-51
1.00935739e-50
1.580073894e-50
3.552553726e-50
8.41220012e-50
1.869359047e-49
3.772433309e-49
9.120192169e-49
2.208066155e-48
4.938585674e-48
1.044292386e-47
2.011406203e-47
4.727033176e-47
1.107367981e-46
2.417085652e-46
5.029539675e-46
9.36652145e-46
1.504119713e-45
2.36535373e-45
3.702242832e-45
5.078775723e-45
5.911811656e-45
6.654931733e-45
7.267556491e-45
7.296407992e-45
7.292955443e-45
8.16837391e-45
9.041611827e-45
9.835013117e-45
1.041385511e-44
1.059892612e-44
1.06965032e-44
1.164401903e-44
1.221329705e-44
1.261681986e-44
1.248898275e-44
1.222094018e-44
4.643418753e-47
3.821934674e-47
3.809207761e-47
2.981825029e-47
2.42735869e-47
1.981823105e-47
1.390603462e-47
1.12021391e-47
6.138588505e-48
4.962791952e-48
4.347276254e-48
3.525776915e-48
2.349743976e-48
1.850032308e-48
1.149672481e-48
7.292316896e-49
1.282297242e-48
6.856196133e-49
3.488415102e-49
2.036488661e-49
1.485415076e-49
1.350512681e-49
9.518526142e-50
6.830668783e-50
4.50494942e-50
3.857457599e-50
2.782806692e-50
1.965144067e-50
1.612477298e-50
1.497457495e-50
1.151528242e-50
8.031782215e-51
6.129630407e-51
5.683319983e-51
4.937857352e-51
4.411335308e-51
2.784271258e-51
6.701502371e-52
2.142672877e-52
4.222182014e-52
1.199303797e-51
2.929523179e-51
4.066913359e-51
3.712273407e-51
3.974066153e-51
4.795639851e-51
6.383138241e-51
7.765593528e-51
7.317529145e-51
5.036510429e-51
5.372154422e-51
8.559801519e-51
1.334484221e-50
1.863914099e-50
2.868886078e-50
4.020528475e-50
6.037657451e-50
9.157936841e-50
1.423961722e-49
2.565869773e-49
4.631154125e-49
8.056368133e-49
1.409126949e-48
2.107919429e-48
3.185816704e-48
6.958710634e-48
1.731058762e-47
3.868955055e-47
7.203453233e-47
1.828038804e-46
4.467204111e-46
1.022610261e-45
2.042870761e-45
3.853148178e-45
8.87055131e-45
2.079697409e-44
4.489086896e-44
9.412683871e-44
1.761044798e-43
2.804212074e-43
4.409040491e-43
6.969977948e-43
9.430172899e-43
1.142085577e-42
1.199227745e-42
1.316587937e-42
1.314493718e-42
1.268410327e-42
1.374915972e-42
1.590693647e-42
1.751341799e-42
1.849201719e-42
1.864326546e-42
1.847798693e-42
2.025521529e-42
2.119094194e-42
2.193714451e-42
2.135981161e-42
2.089615478e-42
1.056267001e-44
7.991641202e-45
8.784908629e-45
6.937949278e-45
5.498765977e-45
4.459289785e-45
3.053161615e-45
2.501274132e-45
1.349473653e-45
1.118487119e-45
9.694546992e-46
7.871197895e-46
5.492839349e-46
4.183499404e-46
2.637245953e-46
1.595030148e-46
2.868689336e-46
1.407951496e-46
7.659319154e-47
4.545835943e-47
3.375009107e-47
3.017970565e-47
2.238708088e-47
1.481118711e-47
1.029677271e-47
8.209723739e-48
6.179466031e-48
4.662834252e-48
3.603917789e-48
3.366872501e-48
2.564391138e-48
1.778228346e-48
1.315278045e-48
1.251982901e-48
1.130764539e-48
9.741998625e-49
6.018427385e-49
1.420576117e-49
4.39802501e-50
9.070241202e-50
2.246668311e-49
5.674057622e-49
8.66850931e-49
8.271856332e-49
8.743228123e-49
1.063944909e-48
1.426070715e-48
1.735166104e-48
1.653780139e-48
1.099091482e-48
1.161307556e-48
1.789312341e-48
2.893166478e-48
4.02631728e-48
6.19736299e-48
9.119857675e-48
1.333864536e-47
1.962340203e-47
3.052421149e-47
5.352068896e-47
9.60427014e-47
1.663868609e-46
2.879536945e-46
4.361750524e-46
6.415931309e-46
1.370541543e-45
3.543924487e-45
7.962406197e-45
1.750304437e-44
3.733875687e-44
9.08213919e-44
2.071633034e-43
4.012220618e-43
7.786675933e-43
1.685984081e-42
3.909964436e-42
8.254504694e-42
1.751515125e-41
3.298735428e-41
5.180165279e-41
8.37970636e-41
1.321653932e-40
1.819432342e-40
2.078038299e-40
2.290310512e-40
2.409588865e-40
2.407429679e-40
2.396965028e-40
2.610457145e-40
2.806175295e-40
3.089652783e-40
3.26886489e-40
3.263770309e-40
3.16700271e-40
3.543762196e-40
3.722028986e-40
3.825195531e-40
3.798164604e-40
3.634493924e-40
2.44421588e-42
1.857682879e-42
1.922870656e-42
1.47893019e-42
1.218169389e-42
9.838661965e-43
6.871826871e-43
5.653969944e-43
2.956830348e-43
2.481591296e-43
2.169347432e-43
1.743598473e-43
1.267422956e-43
9.556212583e-44
5.859723155e-44
3.54027799e-44
6.353245011e-44
3.411345013e-44
1.691792908e-44
9.866386383e-45
7.502656041e-45
6.753483914e-45
4.932923161e-45
3.167466307e-45
2.481398135e-45
1.891162799e-45
1.36857997e-45
1.059841823e-45
8.098410272e-46
7.51231556e-46
5.761360502e-46
3.894536449e-46
2.648438358e-46
2.889241526e-46
2.492617295e-46
2.207774169e-46
1.278856063e-46
2.935621689e-47
8.770409804e-48
1.970969723e-47
4.102887336e-47
1.039663835e-46
1.842260977e-46
1.822382313e-46
2.019736078e-46
2.362367739e-46
3.194592636e-46
3.907913479e-46
3.75017013e-46
2.419291188e-46
2.510719209e-46
4.012161802e-46
6.227459575e-46
8.548126505e-46
1.323610406e-45
1.973278503e-45
2.866469115e-45
4.342837841e-45
6.641505967e-45
1.125975981e-44
2.009219352e-44
3.425318266e-44
6.251404456e-44
9.073511705e-44
1.27213118e-43
3.139902523e-43
7.262504852e-43
1.673005704e-42
3.577833408e-42
7.587036684e-42
1.803191068e-41
4.149856974e-41
7.883989029e-41
1.503731544e-40
3.293199344e-40
7.351497431e-40
1.681479444e-39
3.320514782e-39
6.104793843e-39
9.646862943e-39
1.566080027e-38
2.440355231e-38
3.415869118e-38
3.793052744e-38
4.171433948e-38
4.448013185e-38
4.258717758e-38
4.396042516e-38
4.637312332e-38
4.902574186e-38
5.420523831e-38
5.789146728e-38
5.567224305e-38
6.006560726e-38
6.326236217e-38
6.626115613e-38
6.756098523e-38
6.620392667e-38
6.263893705e-38
5.405774639e-40
4.35876381e-40
4.189026879e-40
3.160061112e-40
2.724312767e-40
2.121601975e-40
1.601629977e-40
1.280128491e-40
6.501447941e-41
5.545456255e-41
4.819947771e-41
3.817824319e-41
2.837527882e-41
2.141009944e-41
1.30486455e-41
8.087347442e-42
1.392739849e-41
7.277363966e-42
3.685553688e-42
2.087703113e-42
1.643987089e-42
1.507094841e-42
1.064985696e-42
6.753202281e-43
5.539509556e-43
4.168554708e-43
3.049911571e-43
2.370958554e-43
1.839969056e-43
1.662664339e-43
1.31974705e-43
8.757358101e-44
6.323795355e-44
6.420800113e-44
5.565235374e-44
4.836315607e-44
2.935028567e-44
6.031457286e-45
1.892891014e-45
4.370273774e-45
7.506638751e-45
2.095358379e-44
3.94484537e-44
3.808289708e-44
4.499177998e-44
5.225390459e-44
7.158981899e-44
8.865137922e-44
8.661410491e-44
5.307520191e-44
5.395549212e-44
8.652421576e-44
1.338177821e-43
1.750380027e-43
2.83034611e-43
4.136726606e-43
6.110147407e-43
1.000123534e-42
1.42589912e-42
2.400684223e-42
4.238941404e-42
6.88807791e-42
1.328534199e-41
1.901707073e-41
2.462806651e-41
6.379011743e-41
1.499024361e-40
3.399727887e-40
7.163771665e-40
1.505058414e-39
3.596967391e-39
8.201331574e-39
1.529711522e-38
2.888019083e-38
6.042580716e-38
1.448901207e-37
3.219879137e-37
6.17990712e-37
1.07060308e-36
1.844204444e-36
2.985153033e-36
4.727855561e-36
6.269026404e-36
7.271097851e-36
7.489332734e-36
7.981493714e-36
8.12212834e-36
7.83034112e-36
8.160489924e-36
8.533631851e-36
9.494693585e-36
1.02528025e-35
9.758926046e-36
1.043799072e-35
1.086576437e-35
1.147141163e-35
1.180002798e-35
1.152798995e-35
1.074527933e-35
1.141317537e-37
9.740943904e-38
9.133703707e-38
7.139536841e-38
6.074862667e-38
4.761970591e-38
3.726090851e-38
2.934187559e-38
1.510869827e-38
1.25382179e-38
1.068326513e-38
8.431897119e-39
6.272992444e-39
4.790453806e-39
2.906683068e-39
1.779470111e-39
3.024519548e-39
1.577814213e-39
7.799313938e-40
5.230772352e-40
3.611098812e-40
3.336853873e-40
2.345612825e-40
1.477792537e-40
1.237790281e-40
9.543758208e-41
6.816906083e-41
5.393506701e-41
4.093367176e-41
3.653344011e-41
3.073758742e-41
1.994892992e-41
1.393222324e-41
1.432912077e-41
1.262667475e-41
1.06681994e-41
6.693780094e-42
1.254237873e-42
3.981068762e-43
9.918882477e-43
1.483163645e-42
4.028922015e-42
8.863668972e-42
9.23150196e-42
1.004950448e-41
1.143316299e-41
1.601306884e-41
1.988588568e-41
2.013519109e-41
1.144330787e-41
1.149063624e-41
1.878737001e-41
2.942141925e-41
3.441156478e-41
6.015786504e-41
9.298380591e-41
1.303769988e-40
2.155741679e-40
2.967963261e-40
5.220452545e-40
8.944494518e-40
1.562305618e-39
2.831924404e-39
3.827044537e-39
5.152861279e-39
1.303339309e-38
3.162812558e-38
7.036405087e-38
1.414090447e-37
2.881356535e-37
7.282588107e-37
1.631308332e-36
2.862899666e-36
5.44153352e-36
1.247415485e-35
3.03749613e-35
6.220458853e-35
1.20712372e-34
2.067219766e-34
3.35838194e-34
5.778199308e-34
8.806271434e-34
1.134079655e-33
1.319550883e-33
1.279989894e-33
1.429142918e-33
1.463575651e-33
1.376574157e-33
1.432975102e-33
1.494442227e-33
1.671024691e-33
1.813245397e-33
1.81667857e-33
1.879710091e-33
1.872123501e-33
1.988163718e-33
2.036529199e-33
1.988788998e-33
1.834317027e-33
2.644410231e-35
2.117209354e-35
1.931607721e-35
1.750661109e-35
1.347732232e-35
1.021371687e-35
8.28153297e-36
6.514114704e-36
3.559957511e-36
2.843215396e-36
2.413968836e-36
1.886270897e-36
1.364915124e-36
1.070901474e-36
6.444922102e-37
3.948065093e-37
6.620199628e-37
3.716093063e-37
1.611340314e-37
1.183155903e-37
7.986124508e-38
7.293474853e-38
5.439762495e-38
3.52498612e-38
2.774631824e-38
2.155844709e-38
1.446910879e-38
1.235799102e-38
9.072939076e-39
8.004300606e-39
7.003764215e-39
4.583700312e-39
3.150918628e-39
3.214998788e-39
2.837965249e-39
2.446526639e-39
1.553261984e-39
2.674349927e-40
8.697291912e-41
2.373245928e-40
2.790038799e-40
7.925563332e-40
1.91627905e-39
2.017517322e-39
2.209758067e-39
2.453890851e-39
3.569930754e-39
4.473184467e-39
4.63017591e-39
2.436049953e-39
2.603793542e-39
4.127130744e-39
6.0311194e-39
8.333846885e-39
1.299868714e-38
2.009874733e-38
2.954233154e-38
4.677907657e-38
5.884091975e-38
1.145297791e-37
1.893333414e-37
3.274399708e-37
5.944547955e-37
8.23559848e-37
1.036716996e-36
2.695488143e-36
6.323166074e-36
1.413177175e-35
2.708824304e-35
5.380901496e-35
1.422733105e-34
3.373351014e-34
5.642766524e-34
1.069369963e-33
2.426228926e-33
5.882275435e-33
1.207112207e-32
2.361778537e-32
3.780937113e-32
6.027404696e-32
1.075743767e-31
1.629732218e-31
1.969469036e-31
2.394377836e-31
2.469761945e-31
2.575293604e-31
2.641617571e-31
2.333679527e-31
2.504338756e-31
2.6216673e-31
2.941528349e-31
3.197939337e-31
3.255190546e-31
3.311291276e-31
3.097358641e-31
3.332719051e-31
3.434897748e-31
3.380835128e-31
3.139248192e-31
5.466562116e-33
4.809466891e-33
4.404989306e-33
3.812888383e-33
3.016228819e-33
2.212963797e-33
1.946353431e-33
1.456730584e-33
8.034152528e-34
6.401696831e-34
5.504516682e-34
4.027641965e-34
2.847816291e-34
2.392634047e-34
1.414677044e-34
8.830156157e-35
1.508133113e-34
8.165813244e-35
3.468504636e-35
2.674171324e-35
1.78304161e-35
1.586347015e-35
1.211613446e-35
8.060134678e-36
6.257318437e-36
4.99459936e-36
3.370374403e-36
2.743345598e-36
2.004926388e-36
1.743985689e-36
1.540727178e-36
1.044570744e-36
7.180035339e-37
7.136142537e-37
6.479223581e-37
5.77644503e-37
3.549202599e-37
5.589744712e-38
1.963195965e-38
6.036111884e-38
5.34569324e-38
1.500166086e-37
4.150333002e-37
4.404018483e-37
4.869580834e-37
5.15531893e-37
7.907208693e-37
1.066629169e-36
1.055476254e-36
5.174447275e-37
5.711261945e-37
9.049941307e-37
1.432860887e-36
1.737877425e-36
2.721852339e-36
4.355603951e-36
6.774048696e-36
1.009342144e-35
1.410584729e-35
2.514247962e-35
3.999647675e-35
6.946592415e-35
1.244300828e-34
1.634340715e-34
2.084294966e-34
5.567697296e-34
1.255917784e-33
2.823455551e-33
5.90746317e-33
1.061949761e-32
2.778780576e-32
6.614592113e-32
1.283007316e-31
2.010602408e-31
4.570367383e-31
1.13394418e-30
2.292667984e-30
4.582888638e-30
6.8062771e-30
1.043588432e-29
2.002796238e-29
3.009343595e-29
3.959912813e-29
4.358258922e-29
4.66595735e-29
4.588873186e-29
4.74013735e-29
4.513738165e-29
4.418417517e-29
4.553194382e-29
5.166159658e-29
5.60673092e-29
5.775818957e-29
5.817034844e-29
5.529850103e-29
5.763037521e-29
5.826156484e-29
5.659828373e-29
5.398213729e-29
1.248456285e-30
1.059309354e-30
9.400538384e-31
8.212120851e-31
6.257458596e-31
4.869616378e-31
4.25858982e-31
3.25216461e-31
1.798758359e-31
1.435051447e-31
1.228094027e-31
8.850475483e-32
6.596663028e-32
5.353073958e-32
3.062758819e-32
1.954033814e-32
3.649822544e-32
1.948533279e-32
8.081121912e-33
6.063839716e-33
3.951363843e-33
3.533250045e-33
2.821083715e-33
1.880343076e-33
1.434284586e-33
1.158258806e-33
7.389967081e-34
6.027658829e-34
4.479389793e-34
3.766512495e-34
3.327508507e-34
2.349957513e-34
1.643114612e-34
1.594995931e-34
1.481514734e-34
1.317472309e-34
8.162207123e-35
1.196259245e-35
4.529663806e-36
1.626533694e-35
1.066448481e-35
2.810440301e-35
9.260731788e-35
9.554469424e-35
1.078504563e-34
1.065933688e-34
1.740512813e-34
2.42446976e-34
2.385096687e-34
1.144800022e-34
1.258122518e-34
1.952850622e-34
3.145443495e-34
3.853264861e-34
5.762852928e-34
9.470711899e-34
1.473094201e-33
2.132244253e-33
2.879174011e-33
5.47881431e-33
8.489630811e-33
1.459299951e-32
2.614751665e-32
3.811240189e-32
4.165610264e-32
1.142542456e-31
2.58724991e-31
5.626033219e-31
1.199224746e-30
1.992359707e-30
5.438679922e-30
1.247341479e-29
2.533768889e-29
4.023908019e-29
8.683462275e-29
2.172206125e-28
4.277848303e-28
8.821916073e-28
1.538088167e-27
2.062773054e-27
3.759300782e-27
5.533234663e-27
7.373240861e-27
7.563248845e-27
8.397883535e-27
7.827364965e-27
8.352131154e-27
8.087301693e-27
7.72706705e-27
7.984725791e-27
9.172550109e-27
9.808212793e-27
1.022351319e-26
1.015292877e-26
9.52706313e-27
9.994613693e-27
1.00227271e-26
9.424331997e-27
9.009475232e-27
2.976979608e-28
2.286981519e-28
1.983062114e-28
1.770720406e-28
1.534909683e-28
1.083926972e-28
8.88325004e-29
7.300815888e-29
3.997879417e-29
3.173456261e-29
2.664860348e-29
2.077468001e-29
1.463324381e-29
1.193442772e-29
6.861969035e-30
4.29061864e-30
8.241025907e-30
4.207243413e-30
2.132258289e-30
1.399465104e-30
8.900682114e-31
7.607469725e-31
6.34109956e-31
4.360786933e-31
3.288656335e-31
2.616868067e-31
1.602193814e-31
1.312192565e-31
1.011041055e-31
8.214985223e-32
7.667886617e-32
5.281054878e-32
3.931416792e-32
3.641998338e-32
3.302025236e-32
2.992567999e-32
1.883717308e-32
2.424577056e-33
1.206029857e-33
4.596987921e-33
2.248858343e-33
5.921011807e-33
2.039628593e-32
2.018976852e-32
2.398109388e-32
2.301301366e-32
3.806757211e-32
5.553190539e-32
5.330965748e-32
2.527990899e-32
2.811569231e-32
4.18073703e-32
6.85684305e-32
8.2555678e-32
1.266656507e-31
2.031076671e-31
3.213758914e-31
4.585153324e-31
5.735909395e-31
1.177493555e-30
1.824401198e-30
3.060163826e-30
5.602817522e-30
8.061263832e-30
8.105418522e-30
2.325386854e-29
5.287589365e-29
1.122894305e-28
2.445673582e-28
4.224852542e-28
1.081024087e-27
2.585133229e-27
4.996325192e-27
7.870976039e-27
1.665232665e-26
4.161099542e-26
8.018355071e-26
1.646962346e-25
3.000369376e-25
3.869017126e-25
7.108198971e-25
9.913848244e-25
1.342058294e-24
1.389808281e-24
1.532415709e-24
1.289473468e-24
1.445174005e-24
1.461656192e-24
1.343745152e-24
1.43135743e-24
1.630597268e-24
1.714171193e-24
1.769640998e-24
1.794565095e-24
1.555460888e-24
1.708308278e-24
1.715898857e-24
1.633931346e-24
1.517029589e-24
6.36089855e-26
5.719814717e-26
4.223995257e-26
3.863294581e-26
3.387872649e-26
2.469151227e-26
1.785581515e-26
1.634494347e-26
8.877024503e-27
6.759895223e-27
5.639295413e-27
4.603837849e-27
3.233919242e-27
2.640207047e-27
1.573196873e-27
9.403387862e-28
1.993756088e-27
8.86395353e-28
4.850443789e-28
3.040989203e-28
2.017670718e-28
1.623599112e-28
1.415602345e-28
9.797818493e-29
7.123836503e-29
5.858226635e-29
3.469224988e-29
2.834995965e-29
2.208536015e-29
1.847363784e-29
1.784522741e-29
1.184427642e-29
8.871761365e-30
8.476218931e-30
7.628703509e-30
6.762443811e-30
4.304381523e-30
4.828814527e-31
3.26300395e-31
1.467385219e-30
5.033094397e-31
1.208740268e-30
4.533864162e-30
3.930690886e-30
5.359629837e-30
4.641339392e-30
8.266496138e-30
1.23200034e-29
1.163596736e-29
5.66320108e-30
6.304581998e-30
9.844628665e-30
1.434409544e-29
1.809166468e-29
2.882027372e-29
4.386529796e-29
6.948623266e-29
1.054318786e-28
1.340042197e-28
2.51521419e-28
3.761502338e-28
6.303771408e-28
1.268244152e-27
1.726977948e-27
1.5462388e-27
4.75673284e-27
1.086760638e-26
2.244586504e-26
5.005337948e-26
9.062213317e-26
2.238457375e-25
5.262639133e-25
9.789089322e-25
1.557807121e-24
3.027427287e-24
7.89959988e-24
1.589857064e-23
3.014451748e-23
6.147657942e-23
6.989681791e-23
1.344017123e-22
1.927439493e-22
2.409306357e-22
2.673172044e-22
2.890478586e-22
2.421937611e-22
2.551313202e-22
2.694127086e-22
2.290883368e-22
2.583677005e-22
2.71410564e-22
2.908728582e-22
2.986367783e-22
3.033657584e-22
3.004837171e-22
3.045372363e-22
3.001249092e-22
2.818045909e-22
2.582022173e-22
1.481103731e-23
1.376381565e-23
1.003372091e-23
8.537280278e-24
7.414276869e-24
5.70291293e-24
3.485376114e-24
3.59542532e-24
1.963609433e-24
1.508465959e-24
1.355544208e-24
1.019265685e-24
7.018156835e-25
5.759110893e-25
3.381957818e-25
2.059450198e-25
4.487693696e-25
2.017293186e-25
1.078983796e-25
6.502143432e-26
4.521890613e-26
3.760906167e-26
3.139343808e-26
2.220687999e-26
1.690140862e-26
1.331424303e-26
7.647590325e-27
6.463570587e-27
4.733433054e-27
4.392566764e-27
3.919845366e-27
2.631631784e-27
1.971864156e-27
1.95669232e-27
1.738189739e-27
1.514123341e-27
9.848912854e-28
9.456509321e-29
8.306015167e-29
4.268372294e-28
1.298611297e-28
2.985048625e-28
1.016805027e-27
8.94505363e-28
1.195261198e-27
1.19041814e-27
1.808859021e-27
2.695639769e-27
2.797976374e-27