/*--------------------------------*- C++ -*----------------------------------*\
| =========                 |                                                 |
| \\      /  F ield         | OpenFOAM: The Open Source CFD Toolbox           |
|  \\    /   O peration     | Version:  v1706                                 |
|   \\  /    A nd           | Web:      www.OpenFOAM.com                      |
|    \\/     M anipulation  |                                                 |
\*---------------------------------------------------------------------------*/
FoamFile
{
    version     2.0;
    format      ascii;
    class       volScalarField;
    location    "0.00272";
    object      X_N2+;
}
// * * * * * * * * * * * * * * * * * * * * * * * * * * * * * * * * * * * * * //

dimensions      [0 0 0 0 0 0 0];


internalField   nonuniform List<scalar> 
11682
(
1.266214005e-60
8.778485643e-61
9.436719642e-61
7.47857523e-61
6.331501244e-61
4.601954197e-61
4.012523481e-61
3.287595852e-61
1.685641986e-61
1.386369106e-61
1.211483144e-61
1.032931893e-61
6.72281244e-62
5.69454766e-62
4.294979682e-62
2.972780442e-62
2.599482483e-62
2.874476838e-62
2.038003738e-62
1.382193304e-62
9.370098472e-63
6.290904402e-63
5.274929299e-63
2.641729227e-63
2.53875765e-63
1.782105298e-63
1.301036245e-63
1.015395922e-63
8.039656993e-64
6.884398453e-64
5.397073182e-64
4.327466524e-64
3.669264014e-64
2.894551567e-64
2.892194294e-64
4.295018956e-64
8.025156504e-64
1.448446244e-63
2.284532688e-63
2.480204734e-63
2.494866682e-63
2.458873129e-63
1.994308187e-63
1.126292053e-63
8.923878195e-64
4.083035442e-64
4.049629474e-64
4.112989304e-64
4.212438797e-64
4.375012664e-64
3.814519762e-64
4.22487617e-64
5.251106223e-64
8.159394261e-64
1.13267839e-63
1.730852729e-63
2.585453901e-63
3.26610189e-63
6.616060339e-63
1.102574404e-62
1.527809307e-62
3.164499393e-62
5.394520428e-62
6.047919727e-62
1.44353579e-61
2.559198818e-61
4.907820975e-61
8.314359632e-61
2.22116505e-60
5.753779089e-60
1.182147872e-59
2.902558121e-59
6.150669385e-59
1.175911097e-58
2.340396974e-58
5.548900152e-58
1.194625162e-57
2.340298762e-57
4.631319176e-57
7.406880685e-57
1.277923556e-56
1.821739302e-56
2.986371567e-56
4.110001911e-56
5.002804201e-56
5.761719717e-56
7.21763563e-56
8.273863922e-56
9.165429925e-56
1.004292834e-55
1.018282898e-55
1.181444469e-55
1.279527239e-55
1.351077967e-55
1.43015057e-55
1.49962827e-55
1.561642343e-55
1.619637424e-55
1.653452395e-55
1.857807859e-58
1.476681035e-58
1.543835211e-58
1.178890957e-58
1.027276713e-58
7.937443692e-59
6.159829826e-59
5.270628566e-59
2.792289259e-59
2.12943146e-59
1.871851243e-59
1.594494201e-59
1.076785538e-59
8.372656722e-60
6.444865647e-60
4.464700381e-60
4.720137987e-60
4.608134034e-60
3.130620094e-60
2.104297475e-60
1.435099902e-60
1.039008137e-60
8.071360333e-61
5.513489742e-61
3.819185671e-61
2.78556239e-61
2.01435102e-61
1.53924465e-61
1.233269707e-61
1.062827348e-61
8.51390162e-62
7.326603731e-62
5.757902258e-62
4.431261817e-62
4.188980453e-62
5.951023578e-62
9.618316274e-62
1.611787306e-61
2.611083019e-61
2.997783418e-61
3.0361217e-61
3.068854119e-61
2.599693681e-61
1.859590444e-61
1.263292078e-61
8.332909149e-62
6.484172921e-62
6.338060184e-62
6.395639493e-62
6.674599124e-62
6.330652613e-62
6.810303358e-62
8.283986051e-62
1.242528811e-61
1.797005827e-61
2.606095606e-61
3.871796435e-61
5.926701071e-61
9.969879566e-61
1.668495822e-60
3.042424745e-60
4.854270776e-60
8.069645396e-60
1.338199898e-59
2.09320584e-59
3.696047346e-59
7.097234573e-59
1.506062993e-58
3.32968757e-58
8.230929901e-58
1.954210629e-57
4.137765463e-57
8.833067515e-57
1.627729598e-56
3.268473512e-56
7.521147364e-56
1.707367868e-55
3.344426501e-55
6.345994648e-55
1.04455925e-54
1.655949118e-54
2.705582606e-54
3.941572287e-54
5.341279906e-54
6.801797878e-54
8.014581624e-54
9.3176186e-54
1.042833476e-53
1.104955241e-53
1.280462956e-53
1.383151196e-53
1.485222136e-53
1.581915164e-53
1.660172963e-53
1.75226614e-53
1.821660837e-53
1.888354815e-53
1.957960528e-53
2.004473643e-53
3.056110941e-56
2.217082164e-56
2.314734662e-56
1.829850739e-56
1.653729751e-56
1.206261699e-56
9.281374829e-57
8.150063552e-57
4.303772905e-57
3.252746887e-57
2.849442756e-57
2.393213095e-57
1.585392305e-57
1.224579042e-57
9.839737291e-58
6.702093948e-58
7.50401324e-58
7.265972014e-58
4.745995933e-58
3.163269695e-58
2.139236812e-58
1.612831484e-58
1.239263647e-58
8.299076717e-59
6.1682175e-59
4.127865737e-59
3.105632275e-59
2.54222467e-59
1.939374206e-59
1.637409202e-59
1.287272069e-59
1.141888871e-59
8.887651984e-60
6.762398899e-60
6.63557723e-60
7.977815217e-60
1.168814764e-59
1.933635642e-59
2.804619021e-59
3.332922399e-59
3.406969804e-59
3.620658428e-59
3.314576666e-59
2.381841849e-59
1.692756383e-59
1.223765543e-59
9.622363399e-60
9.646126755e-60
9.567583361e-60
9.992310553e-60
9.399723492e-60
9.92873837e-60
1.279919789e-59
1.867449593e-59
2.690433609e-59
3.757248814e-59
5.784387946e-59
8.443542569e-59
1.473397647e-58
2.53779446e-58
4.524226087e-58
7.528298197e-58
1.251877221e-57
1.919329223e-57
2.872748476e-57
5.300400074e-57
1.003634849e-56
2.171034702e-56
4.713989392e-56
1.158939125e-55
2.769429684e-55
5.812092786e-55
1.251450891e-54
2.262813822e-54
4.495993706e-54
1.050339894e-53
2.309973571e-53
4.46125031e-53
8.519741837e-53
1.352930375e-52
2.310193253e-52
3.684486678e-52
5.115990225e-52
6.916436496e-52
8.6486379e-52
1.003457613e-51
1.167556534e-51
1.278734961e-51
1.378484498e-51
1.557878902e-51
1.639016399e-51
1.772647776e-51
1.918424552e-51
2.019430698e-51
2.127443956e-51
2.136470559e-51
2.239369492e-51
2.3124459e-51
2.378294874e-51
4.716394489e-54
3.536582089e-54
3.644586253e-54
2.840281507e-54
2.626067474e-54
1.974425619e-54
1.388383582e-54
1.26168938e-54
6.5759535e-55
4.974618528e-55
4.407205857e-55
3.529708515e-55
2.446840237e-55
2.041887658e-55
1.470340213e-55
1.095893375e-55
1.275315872e-55
1.137996272e-55
7.260029574e-56
4.77871391e-56
3.154143328e-56
2.535068139e-56
1.957126925e-56
1.229584674e-56
9.267806881e-57
6.803775333e-57
4.868832951e-57
3.822005923e-57
2.960656626e-57
2.598520289e-57
2.106418571e-57
1.804865595e-57
1.378678447e-57
1.07881979e-57
1.054887949e-57
1.143236411e-57
1.414238118e-57
2.172132556e-57
2.724955665e-57
3.526766608e-57
3.978542942e-57
5.021635324e-57
4.264749688e-57
3.281078431e-57
2.269557588e-57
1.730209878e-57
1.421185525e-57
1.473779494e-57
1.433464054e-57
1.453453741e-57
1.382292925e-57
1.490119491e-57
1.944850916e-57
2.796796626e-57
3.995409142e-57
5.725621123e-57
8.776390862e-57
1.134736903e-56
2.165112997e-56
3.786261192e-56
6.734308734e-56
1.119835668e-55
1.825007044e-55
2.738222202e-55
3.910786061e-55
7.435829194e-55
1.394416038e-54
3.094238339e-54
6.96538999e-54
1.617077501e-53
3.9506121e-53
8.409305019e-53
1.759702117e-52
3.086412353e-52
5.989728523e-52
1.445919938e-51
3.116391068e-51
5.991197043e-51
1.136720516e-50
1.754254767e-50
3.083546044e-50
4.858528703e-50
6.542944245e-50
8.801597796e-50
1.086895318e-49
1.209789308e-49
1.463420815e-49
1.559340892e-49
1.71009972e-49
1.834652085e-49
2.066798557e-49
2.196716842e-49
2.332016878e-49
2.437052382e-49
2.545443686e-49
2.6401521e-49
2.704257259e-49
2.758186685e-49
2.814342643e-49
7.093428469e-52
5.54832983e-52
5.767038035e-52
4.5600624e-52
3.802858236e-52
3.140285399e-52
2.092760082e-52
1.951793168e-52
1.076818786e-52
7.483092659e-53
7.06747916e-53
5.303920271e-53
3.483812948e-53
3.105516481e-53
2.31832159e-53
1.667937707e-53
1.879650187e-53
1.750949573e-53
1.127804339e-53
7.272342474e-54
4.884640129e-54
4.01526501e-54
3.124288468e-54
1.931807636e-54
1.377950255e-54
1.028285374e-54
7.639293512e-55
5.707747649e-55
4.576329591e-55
4.015966077e-55
3.31856807e-55
2.822553281e-55
2.109052148e-55
1.629060817e-55
1.6114577e-55
1.642204929e-55
1.842507225e-55
2.379706417e-55
3.131644652e-55
3.615473293e-55
4.466449106e-55
6.284219077e-55
5.999636731e-55
4.589944785e-55
3.229426993e-55
2.427589574e-55
2.124622534e-55
2.249521916e-55
2.149578227e-55
2.209456187e-55
2.031217221e-55
2.31609916e-55
2.997816499e-55
4.124928192e-55
5.933269352e-55
8.518161923e-55
1.325240794e-54
2.000938696e-54
3.160284623e-54
5.62965839e-54
1.002353581e-53
1.618347018e-53
2.682711879e-53
3.830153657e-53
6.141796852e-53
1.055279892e-52
1.943727491e-52
4.365875176e-52
9.766077605e-52
2.29009939e-51
5.618592549e-51
1.253728683e-50
2.486128513e-50
4.205900802e-50
8.637092024e-50
1.976126332e-49
4.19498674e-49
7.859685356e-49
1.510749953e-48
2.527764356e-48
4.115023215e-48
6.421093541e-48
8.430945882e-48
1.126449145e-47
1.338330251e-47
1.525688999e-47
1.826612907e-47
1.914689135e-47
2.177351282e-47
2.345116401e-47
2.508055406e-47
2.653487337e-47
2.820843403e-47
2.953625343e-47
2.952536849e-47
3.143520149e-47
3.192381493e-47
3.256191871e-47
3.330300522e-47
1.129165373e-49
8.840572606e-50
9.594309386e-50
6.832947007e-50
6.613532032e-50
4.931843277e-50
3.360078929e-50
3.003630952e-50
1.64010421e-50
1.102857895e-50
1.099874222e-50
8.599800886e-51
5.692795849e-51
4.808322911e-51
3.534161833e-51
2.503879369e-51
3.080263594e-51
2.675191685e-51
1.753279588e-51
1.110157043e-51
7.601709901e-52
6.271818614e-52
4.834052e-52
2.973463639e-52
2.117940397e-52
1.570365783e-52
1.185613699e-52
8.603415683e-53
7.118748224e-53
6.151961955e-53
5.192558586e-53
4.342403275e-53
3.335318585e-53
2.543875524e-53
2.464856351e-53
2.402136654e-53
2.396788153e-53
2.686062814e-53
3.124919042e-53
3.563814618e-53
4.965271453e-53
7.967019802e-53
8.193784513e-53
6.47881672e-53
4.422588751e-53
3.342595654e-53
3.287960767e-53
3.457191581e-53
3.24178446e-53
3.27112671e-53
2.947523838e-53
3.50997925e-53
4.716299894e-53
6.37388626e-53
9.616865924e-53
1.24011571e-52
2.018731195e-52
3.018701812e-52
4.773746673e-52
8.305218236e-52
1.486783146e-51
2.549004624e-51
4.074821247e-51
5.709926507e-51
8.862707783e-51
1.503562709e-50
2.938901891e-50
6.179532403e-50
1.311009612e-49
3.165958406e-49
7.83117646e-49
1.767665305e-48
3.493046014e-48
6.05869633e-48
1.163797945e-47
2.69242205e-47
5.645237559e-47
1.078096774e-46
2.047057859e-46
3.242220645e-46
5.422397998e-46
8.445385906e-46
1.125841532e-45
1.448583653e-45
1.749449999e-45
1.997344416e-45
2.299746006e-45
2.424659636e-45
2.66852622e-45
2.844299139e-45
3.077499598e-45
3.209024259e-45
3.391981899e-45
3.51707189e-45
3.670994755e-45
3.744353535e-45
3.734617615e-45
3.810407801e-45
3.947939534e-45
1.853889253e-47
1.40419467e-47
1.477168803e-47
1.1433269e-47
1.065155435e-47
7.55524699e-48
5.314523967e-48
4.59854402e-48
2.535643365e-48
1.773105079e-48
1.698733943e-48
1.308786225e-48
8.681044862e-49
7.539039399e-49
5.267837413e-49
3.843472325e-49
4.733051328e-49
4.331300143e-49
2.687827228e-49
1.683821802e-49
1.183947858e-49
9.65305404e-50
7.485763093e-50
4.558347073e-50
3.205074037e-50
2.433229416e-50
1.82334763e-50
1.318430294e-50
1.126294066e-50
9.794996594e-51
8.094677072e-51
6.668616412e-51
4.967153021e-51
3.87197535e-51
3.793245541e-51
3.540630615e-51
3.164181011e-51
2.986668146e-51
3.093911077e-51
3.582356082e-51
5.646007255e-51
9.863665709e-51
1.09672147e-50
8.76765357e-51
6.100115312e-51
4.974263776e-51
5.034060931e-51
5.326460762e-51
5.05156441e-51
4.965687868e-51
4.69443522e-51
5.155406673e-51
7.232802857e-51
9.591204672e-51
1.443497002e-50
2.072631456e-50
3.126553794e-50
4.642539631e-50
7.009651368e-50
1.214804994e-49
2.20874713e-49
3.770190954e-49
6.37200936e-49
9.05629781e-49
1.300092423e-48
2.173246779e-48
4.230747665e-48
8.680474959e-48
1.862400222e-47
4.510568238e-47
1.083784019e-46
2.445631443e-46
4.898255836e-46
8.56923662e-46
1.490085549e-45
3.642051128e-45
7.573367829e-45
1.463706093e-44
2.737671863e-44
4.486811351e-44
7.144332942e-44
1.098518831e-43
1.533210601e-43
1.877040626e-43
2.228132874e-43
2.602151368e-43
2.853831071e-43
3.063814841e-43
3.324716131e-43
3.434069477e-43
3.752217203e-43
3.941462602e-43
4.073577501e-43
4.030895648e-43
4.371192365e-43
4.446289553e-43
4.618896223e-43
4.737975843e-43
4.795172593e-43
2.931026082e-45
2.347755688e-45
2.357288546e-45
1.782303112e-45
1.639054649e-45
1.153845975e-45
9.087098494e-46
7.024873276e-46
3.907644094e-46
2.741519983e-46
2.596318271e-46
2.130835073e-46
1.363635151e-46
1.19494989e-46
8.719029845e-47
5.896622016e-47
8.004111166e-47
6.681178161e-47
4.127393447e-47
2.542110244e-47
1.786542627e-47
1.544396518e-47
1.149013867e-47
7.092777253e-48
4.878647734e-48
3.821136592e-48
2.812060342e-48
2.003476105e-48
1.722819634e-48
1.515107822e-48
1.255902089e-48
1.019936956e-48
7.819897344e-49
6.318789766e-49
5.890724342e-49
5.361222266e-49
4.561957371e-49
3.411909758e-49
3.315572878e-49
3.71718414e-49
6.975410608e-49
1.453716528e-48
1.566964616e-48
1.185499399e-48
8.597771133e-49
7.425372819e-49
7.726638589e-49
8.14134044e-49
8.260369621e-49
7.387218955e-49
7.035023319e-49
8.282550519e-49
1.105111052e-48
1.460488059e-48
2.162219678e-48
3.095009232e-48
4.587715536e-48
7.079018786e-48
1.060270995e-47
1.786318389e-47
3.287761841e-47
5.561962668e-47
9.660462193e-47
1.404590176e-46
1.930664985e-46
3.163667148e-46
6.122946035e-46
1.271155817e-45
2.606946866e-45
6.231990832e-45
1.493628508e-44
3.332852525e-44
6.882878005e-44
1.178992028e-43
2.322882986e-43
4.928697679e-43
1.010239455e-42
1.996444757e-42
3.658787672e-42
5.884033611e-42
9.283608191e-42
1.422075751e-41
1.984613745e-41
2.422354531e-41
2.851074677e-41
3.26405489e-41
3.499869725e-41
3.698186494e-41
4.044526237e-41
4.331764835e-41
4.555093089e-41
4.754406009e-41
4.846090565e-41
4.877131599e-41
5.143054932e-41
5.336176435e-41
5.513096342e-41
5.602705367e-41
5.675228225e-41
4.696619903e-43
3.623959105e-43
3.660210849e-43
2.703073028e-43
2.460336701e-43
1.778926778e-43
1.393475911e-43
1.063392092e-43
6.0395728e-44
4.386610908e-44
3.967569398e-44
3.485754966e-44
2.165212304e-44
1.899294507e-44
1.382283429e-44
8.910937836e-45
1.262735434e-44
1.014256738e-44
6.324739149e-45
3.861428098e-45
2.724208776e-45
2.413253526e-45
1.717263595e-45
1.137627961e-45
7.302566003e-46
5.900258039e-46
4.35534231e-46
3.036728553e-46
2.647534132e-46
2.361744208e-46
1.954882629e-46
1.543852691e-46
1.188456953e-46
9.749484323e-47
8.843864428e-47
8.60096038e-47
6.980821164e-47
4.486389228e-47
3.510114927e-47
3.966244237e-47
9.674844671e-47
2.095289134e-46
2.236736614e-46
1.67052905e-46
1.224981183e-46
1.091205352e-46
1.161551331e-46
1.238518524e-46
1.265997551e-46
1.188511129e-46
1.066522238e-46
1.253412589e-46
1.684388789e-46
2.223056902e-46
3.253591377e-46
4.447503573e-46
6.585772493e-46
1.031234225e-45
1.551414842e-45
2.698024779e-45
4.887956702e-45
8.24533227e-45
1.430671437e-44
2.120682576e-44
2.847702752e-44
4.437947011e-44
8.825965811e-44
1.829970677e-43
3.484150249e-43
8.601574278e-43
2.081797675e-42
4.803647507e-42
9.602511094e-42
1.61131204e-41
3.095978781e-41
6.574085995e-41
1.332215133e-40
2.666607474e-40
4.877421922e-40
7.724342191e-40
1.202621576e-39
1.852069095e-39
2.578057669e-39
3.311783907e-39
3.626305328e-39
4.124953402e-39
4.30027839e-39
4.371917629e-39
4.753086594e-39
5.264960743e-39
5.57110325e-39
5.763095008e-39
5.792559966e-39
5.639288904e-39
5.995221695e-39
6.254623726e-39
6.532678979e-39
6.544714342e-39
6.671644091e-39
7.432772018e-41
5.394006657e-41
6.09126453e-41
4.487847066e-41
3.813783768e-41
2.763995708e-41
2.065194941e-41
1.606759868e-41
9.167171957e-42
7.117619823e-42
6.137130606e-42
5.474773173e-42
3.538705053e-42
2.994104239e-42
2.251190739e-42
1.340617886e-42
1.994295958e-42
1.481392454e-42
9.634449179e-43
5.947039112e-43
4.302432109e-43
3.71607106e-43
2.791703071e-43
1.792677244e-43
1.171109438e-43
8.895342156e-44
6.759911223e-44
4.98544597e-44
4.075694476e-44
3.698140855e-44
3.049675757e-44
2.401675601e-44
1.798911321e-44
1.495223861e-44
1.39851015e-44
1.315168857e-44
1.025731881e-44
5.90750942e-45
3.844519445e-45
4.600367024e-45
1.35809494e-44
3.108986745e-44
3.287721846e-44
2.387797418e-44
1.769904199e-44
1.620295011e-44
1.747878807e-44
1.883132288e-44
1.954929337e-44
1.766564114e-44
1.573288189e-44
1.829851059e-44
2.559834971e-44
3.404534067e-44
4.976924049e-44
6.862698083e-44
1.001205449e-43
1.483697096e-43
2.274052994e-43
3.946831961e-43
7.202365364e-43
1.217262427e-42
2.08017465e-42
3.115427109e-42
4.12671939e-42
6.01381778e-42
1.256021392e-41
2.598834931e-41
5.788781442e-41
1.216202109e-40
2.993729987e-40
6.834177774e-40
1.334453491e-39
2.313930638e-39
4.087187485e-39
8.672060632e-39
1.708540087e-38
3.529850653e-38
6.542009926e-38
1.008483413e-37
1.616393851e-37
2.465722485e-37
3.459003803e-37
4.321399467e-37
4.954783167e-37
5.298826585e-37
5.450472483e-37
5.642869962e-37
6.184672229e-37
6.500923838e-37
6.799396079e-37
6.962806769e-37
6.963937313e-37
6.504379263e-37
7.098920263e-37
7.390202869e-37
7.71662215e-37
7.911658939e-37
7.934904359e-37
1.215138942e-38
8.632265121e-39
9.464892923e-39
6.84783235e-39
5.678834348e-39
4.206744505e-39
3.041091085e-39
2.482462431e-39
1.389308092e-39
1.104675989e-39
9.672066419e-40
8.642078181e-40
5.945874137e-40
4.779869935e-40
3.451968565e-40
2.038170007e-40
3.140902966e-40
2.553786202e-40
1.481339643e-40
8.982589696e-41
6.765364034e-41
5.711739087e-41
4.283589937e-41
2.76994882e-41
1.934943496e-41
1.434930223e-41
1.04521775e-41
7.962991878e-42
6.268779926e-42
5.767258308e-42
4.706379416e-42
3.592886156e-42
2.578587774e-42
2.404083337e-42
2.128864802e-42
2.08797493e-42
1.48530098e-42
7.887955058e-43
4.276408841e-43
5.748395586e-43
1.927376855e-42
4.526250369e-42
4.928550759e-42
3.58449688e-42
2.71475626e-42
2.420929566e-42
2.63345767e-42
2.859160037e-42
2.954923768e-42
2.657901117e-42
2.333293363e-42
2.824342214e-42
3.861874144e-42
5.188105262e-42
7.48871072e-42
1.04288947e-41
1.520851284e-41
2.164842168e-41
3.378708354e-41
5.769589555e-41
1.060973686e-40
1.769755685e-40
3.13348698e-40
4.558762815e-40
5.883424796e-40
9.701641483e-40
1.791745038e-39
3.877261092e-39
8.434264757e-39
1.73949491e-38
4.172576079e-38
9.669604637e-38
1.840339737e-37
3.150030103e-37
5.636311536e-37
1.125342048e-36
2.408904935e-36
4.751948144e-36
8.70577754e-36
1.325370892e-35
2.09405161e-35
3.178230109e-35
4.615454614e-35
5.477873067e-35
6.414715837e-35
6.919852565e-35
6.7269627e-35
7.247800293e-35
7.659069669e-35
7.925433001e-35
8.241012919e-35
8.412034206e-35
8.143219623e-35
8.569059579e-35
8.914811541e-35
9.194006507e-35
9.396892328e-35
9.48324981e-35
9.424990054e-35
1.966772342e-36
1.470340909e-36
1.448526359e-36
1.002403084e-36
8.57561013e-37
6.430244215e-37
4.654598578e-37
3.937152758e-37
2.069596507e-37
1.675530855e-37
1.524599305e-37
1.324360625e-37
9.544307952e-38
7.488958663e-38
5.251390231e-38
3.283883681e-38
4.926528913e-38
3.806961811e-38
2.294713462e-38
1.307198019e-38
1.043724887e-38
8.781686737e-39
6.443636892e-39
4.145574518e-39
2.995335016e-39
2.273346087e-39
1.613264905e-39
1.219310635e-39
9.724144941e-40
8.874602325e-40
7.218556598e-40
5.421913377e-40
4.16395422e-40
3.714655124e-40
3.231580196e-40
3.173605622e-40
2.258891665e-40
1.075277476e-40
5.211972276e-41
7.748858354e-41
2.770615353e-40
7.243243164e-40
7.4433405e-40
5.205937101e-40
4.095483562e-40
3.669836833e-40
3.987685458e-40
4.353345268e-40
4.496943289e-40
4.064020399e-40
3.455871362e-40
4.20964363e-40
5.75163544e-40
7.606461268e-40
1.132030269e-39
1.541452922e-39
2.252679248e-39
3.482040151e-39
4.997190738e-39
8.379185271e-39
1.576404439e-38
2.524125114e-38
4.663634075e-38
6.780592155e-38
8.1410071e-38
1.375961539e-37
2.576428161e-37
5.604036945e-37
1.218592768e-36
2.463684787e-36
5.835807366e-36
1.354513076e-35
2.507883784e-35
4.274522e-35
7.262715616e-35
1.499209218e-34
3.225525694e-34
6.143865625e-34
1.108437418e-33
1.833934384e-33
2.762145156e-33
4.346631429e-33
5.972561599e-33
7.4582703e-33
8.114365675e-33
8.69199504e-33
8.834765653e-33
8.94511339e-33
9.287709736e-33
9.441365449e-33
9.850758303e-33
1.017671872e-32
9.678407035e-33
1.011992068e-32
1.053819698e-32
1.099030448e-32
1.139228627e-32
1.144730723e-32
1.122411199e-32
2.962329796e-34
2.397563758e-34
2.203610017e-34
1.536519778e-34
1.315167836e-34
1.031123281e-34
7.186660306e-35
6.30616588e-35
3.184315014e-35
2.565741243e-35
2.302849537e-35
2.019660964e-35
1.512840034e-35
1.176925687e-35
7.965692087e-36
5.005396003e-36
7.553320461e-36
5.797056688e-36
3.455630965e-36
2.211016707e-36
1.603898713e-36
1.356093349e-36
9.688288996e-37
6.058970981e-37
4.639784055e-37
3.575119411e-37
2.516013112e-37
1.863364098e-37
1.471892359e-37
1.34745911e-37
1.125664284e-37
8.177321035e-38
6.162762333e-38
5.723389392e-38
5.088946488e-38
4.711987445e-38
3.430830665e-38
1.496070563e-38
6.421126309e-39
1.048190069e-38
4.449658472e-38
1.140051848e-37
1.196077604e-37
8.667487493e-38
6.34780355e-38
5.617913038e-38
6.075904173e-38
6.524585782e-38
7.04884179e-38
6.072281858e-38
4.940793341e-38
6.237642307e-38
8.790716461e-38
1.03844647e-37
1.684014929e-37
2.371535008e-37
3.202832501e-37
5.151484824e-37
7.174216838e-37
1.224738314e-36
2.321865988e-36
4.046017236e-36
7.117957616e-36
9.968862102e-36
1.1930252e-35
1.949887518e-35
3.941111521e-35
8.394227555e-35
1.711888848e-34
3.416947496e-34
8.478116179e-34
1.899417395e-33
3.331667302e-33
5.700209844e-33
1.035933279e-32
2.246829366e-32
4.317354994e-32
8.188762986e-32
1.499007872e-31
2.401574588e-31
3.878933917e-31
5.759924064e-31
7.646085695e-31
9.430142045e-31
9.600424267e-31
1.0705247e-30
1.099593271e-30
1.086926072e-30
1.12383942e-30
1.127735022e-30
1.180132148e-30
1.232045947e-30
1.217401375e-30
1.25766305e-30
1.285281941e-30
1.34356585e-30
1.377462039e-30
1.375495015e-30
1.326423807e-30
4.921458294e-32
3.640594971e-32
3.327641667e-32
2.717491325e-32
2.006112814e-32
1.589204215e-32
1.127791822e-32
9.722056274e-33
5.102176604e-33
4.028097341e-33
3.518919282e-33
3.126092218e-33
2.337231865e-33
1.838490629e-33
1.20893929e-33
7.656494724e-34
1.138391521e-33
9.376326762e-34
5.070707823e-34
3.469043345e-34
2.459312712e-34
2.093844649e-34
1.508180329e-34
9.587118167e-35
7.156494573e-35
5.385070558e-35
3.735535938e-35
2.975430029e-35
2.234211687e-35
2.052846236e-35
1.775409336e-35
1.278479952e-35
9.27331699e-36
8.937728921e-36
7.801372803e-36
7.122652972e-36
5.476716842e-36
2.190678194e-36
8.338449746e-37
1.488142513e-36
6.862058284e-36
1.927301296e-35
1.868446593e-35
1.303912996e-35
9.557983664e-36
8.432960164e-36
9.300059975e-36
9.821348435e-36
1.116054468e-35
8.983103921e-36
7.469381308e-36
9.323503243e-36
1.257442115e-35
1.7129268e-35
2.59395869e-35
3.548756164e-35
4.987710274e-35
7.749218396e-35
9.762848235e-35
1.817383904e-34
3.417498487e-34
5.895459221e-34
1.059875494e-33
1.514432006e-33
1.668891788e-33
2.787566061e-33
5.698838939e-33
1.213734048e-32
2.354934563e-32
4.583052934e-32
1.18445207e-31
2.80631066e-31
4.69197493e-31
7.984707578e-31
1.441157965e-30
3.055748971e-30
5.889940367e-30
1.101787282e-29
1.909993474e-29
3.042492991e-29
5.15542469e-29
7.592003354e-29
9.419103375e-29
1.19000168e-28
1.25681155e-28
1.331768977e-28
1.359795429e-28
1.265523171e-28
1.348712897e-28
1.365215668e-28
1.429406687e-28
1.500232073e-28
1.493499163e-28
1.518979885e-28
1.466243118e-28
1.559608775e-28
1.61759853e-28
1.627118352e-28
1.55453608e-28
7.308147876e-30
5.730152632e-30
5.282069627e-30
4.275451677e-30
3.138927172e-30
2.462587461e-30
1.858744782e-30
1.524640555e-30
7.989495134e-31
6.345800773e-31
5.575124869e-31
4.642451633e-31
3.443385661e-31
2.854946276e-31
1.833721512e-31
1.207306222e-31
1.733756264e-31
1.422400397e-31
7.531349684e-32
5.488124842e-32
3.821895445e-32
3.209361649e-32
2.254025518e-32
1.425009041e-32
1.084708422e-32
8.259981122e-33
5.971821157e-33
4.646087678e-33
3.390596723e-33
3.139971585e-33
2.740463563e-33
2.030033624e-33
1.398344028e-33
1.364801903e-33
1.23254249e-33
1.130687802e-33
8.404828753e-34
3.103970451e-34
1.107934797e-34
2.193618313e-34
1.07599617e-33
3.198016896e-33
2.872516498e-33
1.953602562e-33
1.432438101e-33
1.246472548e-33
1.426117539e-33
1.596478823e-33
1.743437002e-33
1.304870688e-33
1.116012364e-33
1.41465306e-33
2.024283408e-33
2.453810804e-33
3.801333621e-33
5.341105142e-33
7.880477887e-33
1.191150476e-32
1.603800947e-32
2.73235749e-32
4.931375893e-32
8.713477234e-32
1.553655957e-31
2.093920969e-31
2.346753652e-31
3.991595685e-31
8.133182163e-31
1.736507527e-30
3.582467299e-30
6.497954954e-30
1.65439412e-29
3.919887725e-29
7.381681739e-29
1.064396701e-28
1.918337416e-28
4.189808994e-28
7.965717606e-28
1.472819063e-27
2.355818303e-27
3.66653027e-27
6.697479378e-27
9.924823073e-27
1.315586847e-26
1.519061603e-26
1.656062949e-26
1.683903175e-26
1.69580508e-26
1.648565035e-26
1.63519251e-26
1.619586398e-26
1.703774223e-26
1.805646754e-26
1.821154757e-26
1.847044475e-26
1.802705368e-26
1.852165161e-26
1.895524281e-26
1.898817625e-26
1.858193881e-26
1.11886907e-27
8.776912361e-28
8.023322854e-28
6.522499692e-28
4.646907973e-28
3.848140909e-28
3.032193865e-28
2.384959489e-28
1.271031602e-28
9.997887755e-29
8.819246737e-29
6.952204489e-29
5.421959206e-29
4.42393822e-29
2.747488301e-29
1.90144414e-29
2.973224154e-29
2.40701436e-29
1.190020783e-29
8.594358538e-30
5.760855106e-30
5.046440473e-30
3.549761511e-30
2.215650245e-30
1.678382259e-30
1.327240482e-30
9.23909974e-31
7.188991256e-31
5.206724016e-31
4.677506848e-31
4.158472052e-31
3.124943436e-31
2.155310177e-31
2.071380143e-31
1.953824297e-31
1.748107134e-31
1.32180744e-31
4.700713208e-32
1.466487304e-32
3.311897893e-32
1.74313288e-31
5.32589328e-31
4.568201408e-31
2.917816538e-31
2.141648864e-31
1.796790059e-31
2.191151477e-31
2.504327388e-31
2.70167152e-31
1.939969372e-31
1.672929723e-31
2.123530383e-31
3.104117255e-31
3.741443718e-31
5.47162983e-31
8.198861064e-31
1.179789107e-30
1.785837141e-30
2.334027016e-30
4.202296079e-30
7.139952797e-30
1.260733501e-29
2.262102649e-29
3.364416614e-29
3.361595202e-29
5.738510576e-29
1.182294889e-28
2.454379735e-28
5.179701168e-28
8.41813259e-28
2.310959189e-27
5.299234654e-27
1.037357794e-26
1.479482355e-26
2.53748649e-26
5.750007223e-26
1.063882675e-25
2.028268174e-25
3.6376683e-25
4.818091011e-25
8.749004754e-25
1.296342793e-24
1.765815037e-24
1.891978611e-24
2.090958226e-24
2.055915764e-24
2.102756813e-24
2.019962194e-24
1.951366677e-24
1.902123287e-24
2.041707103e-24
2.165609567e-24
2.241496154e-24
2.228568166e-24
2.159927892e-24
2.219605816e-24
2.243828232e-24
2.182452241e-24
2.165142727e-24
1.884951642e-25
1.315716505e-25
1.204686319e-25
9.70403541e-26
7.94378002e-26
5.864346045e-26
4.760091346e-26
3.734458174e-26
2.005976879e-26
1.568574186e-26
1.363390896e-26
1.132282501e-26
8.366121394e-27
6.867793677e-27
4.258045159e-27
2.960104633e-27
4.591427747e-27
3.686745104e-27
2.102015062e-27
1.407654135e-27
8.77779883e-28
7.592394584e-28
5.482312098e-28
3.636169418e-28
2.659982861e-28
2.088787172e-28
1.400081661e-28
1.098919328e-28
8.272339607e-29
6.900413763e-29
6.669122731e-29
4.788514729e-29
3.544833162e-29
3.157659286e-29
2.930752978e-29
2.716932183e-29
2.055911997e-29
6.621501578e-30
1.984099995e-30
5.048191729e-30
2.991424525e-29
1.085902063e-28
7.264263835e-29
4.276917716e-29
3.181599373e-29
2.705018304e-29
3.379567759e-29
4.030616545e-29
4.1865936e-29
2.84169367e-29
2.554603564e-29
3.083100374e-29
4.804136703e-29
5.792229154e-29
8.017445148e-29
1.218684666e-28
1.792107192e-28
2.650438713e-28
3.270312167e-28
6.440352089e-28
1.080416461e-27
1.828343061e-27
3.268698965e-27
4.845892898e-27
4.678175943e-27
8.290568906e-27
1.694350462e-26
3.426311451e-26
7.485601803e-26
1.223678006e-25
3.169637139e-25
7.595042776e-25
1.450365332e-24
1.999873203e-24
3.490611726e-24
7.870755322e-24
1.4024548e-23
2.749048262e-23
4.940421883e-23
6.357845795e-23
1.163461677e-22
1.665797789e-22
2.325852126e-22
2.468010082e-22
2.663861553e-22
2.396659163e-22
2.57637515e-22
2.509409615e-22
2.327592485e-22
2.26652551e-22
2.476599363e-22
2.609659094e-22
2.705401165e-22
2.737664842e-22
2.407657778e-22
2.571088261e-22
2.602430836e-22
2.567705182e-22
2.483574305e-22
2.926505148e-23
2.361547291e-23
1.781823113e-23
1.472417819e-23
1.266965186e-23
8.988059201e-24
7.059933228e-24
5.91097515e-24
3.160060755e-24
2.405116602e-24
2.031229351e-24
1.772561297e-24
1.312698289e-24
1.070813466e-24
6.760494885e-25
4.544310121e-25
7.776248774e-25
5.460981996e-25
3.380615917e-25
2.17299509e-25
1.371710405e-25
1.116213921e-25
8.495554631e-26
5.699609443e-26
3.988712548e-26
3.219309335e-26
2.084232436e-26
1.649849757e-26
1.257921073e-26
1.026142237e-26
1.076178714e-26
7.343842451e-27
5.55983293e-27
4.960320752e-27
4.504706456e-27
4.222913651e-27
3.166390415e-27
9.1312914e-28
2.848370392e-28
8.819543793e-28
5.626177468e-27
2.304287412e-26
1.185495577e-26
5.824642803e-27
4.714055591e-27
3.625822841e-27
5.155951861e-27
6.273762436e-27
6.337559613e-27
4.397557424e-27
4.030766406e-27
5.024479427e-27
7.12199419e-27
8.808921775e-27
1.257989076e-26
1.803990779e-26
2.723096612e-26
4.349353206e-26
5.433283001e-26
9.764489079e-26
1.582848963e-25
2.637036269e-25
5.043382423e-25
7.049884305e-25
6.344777203e-25
1.217100227e-24
2.391158006e-24
4.76013898e-24
1.078567695e-23
1.784196465e-23
4.48398642e-23
1.088159391e-22
1.997990553e-22
2.767378707e-22
4.521056809e-22
1.067522939e-21
1.972932807e-21
3.536673798e-21
7.367386301e-21
8.2307599e-21
1.591679444e-20
2.273596422e-20
2.928196331e-20
3.235058401e-20
3.540501882e-20
3.006587359e-20
3.121818617e-20
3.207354402e-20
2.701321883e-20
2.823817036e-20
2.93857466e-20
3.093712231e-20
3.187177469e-20
3.267220952e-20
3.167508293e-20
3.170712479e-20
3.112474144e-20
2.997495666e-20
2.82754952e-20
4.550280199e-21
4.16772227e-21
2.864248857e-21
2.405416765e-21
1.971714647e-21
1.452314131e-21
9.625178815e-22
9.458315744e-22
4.960137903e-22
3.864579721e-22
3.439672825e-22
2.769172986e-22
1.99085806e-22
1.662058005e-22
1.02516469e-22
6.918663634e-23
1.235742162e-22
8.405273951e-23
5.350259405e-23
3.295596174e-23
2.177028718e-23
1.769990715e-23
1.315105428e-23
8.816104593e-24
6.436244514e-24
5.07504715e-24
3.103484325e-24
2.614259558e-24
1.859323466e-24
1.689121199e-24
1.638691475e-24
1.120722603e-24
8.601164229e-25
7.862742178e-25
6.964738885e-25
6.538204721e-25
4.943729802e-25
1.232387472e-25
3.879136264e-26
1.580480855e-25
1.270458777e-24
6.320492867e-24
2.066472532e-24
8.854284164e-25
7.040814816e-25
6.156244993e-25
7.850499093e-25
9.63040983e-25
1.059828069e-24
6.694658504e-25
6.129261286e-25
7.669350439e-25