/*--------------------------------*- C++ -*----------------------------------*\
| =========                 |                                                 |
| \\      /  F ield         | OpenFOAM: The Open Source CFD Toolbox           |
|  \\    /   O peration     | Version:  v1706                                 |
|   \\  /    A nd           | Web:      www.OpenFOAM.com                      |
|    \\/     M anipulation  |                                                 |
\*---------------------------------------------------------------------------*/
FoamFile
{
    version     2.0;
    format      ascii;
    class       volScalarField;
    location    "0.00272";
    object      X_NO;
}
// * * * * * * * * * * * * * * * * * * * * * * * * * * * * * * * * * * * * * //

dimensions      [0 0 0 0 0 0 0];


internalField   nonuniform List<scalar> 
11682
(
9.173581286e-46
8.113866051e-46
7.349578008e-46
6.266355143e-46
5.445979514e-46
4.648730047e-46
4.072477817e-46
3.279643985e-46
2.437034022e-46
2.093631011e-46
1.770240113e-46
1.439865999e-46
1.119820467e-46
9.558812688e-47
7.837625389e-47
6.137295036e-47
4.621438148e-47
4.104660756e-47
3.330664319e-47
2.603524312e-47
2.043319801e-47
1.649621141e-47
1.43733882e-47
1.064311792e-47
9.331950614e-48
7.665902335e-48
6.322032752e-48
5.200500995e-48
4.324918178e-48
3.753954298e-48
3.239408352e-48
2.752760539e-48
2.416076508e-48
2.137685834e-48
2.007668312e-48
1.932274336e-48
1.745655974e-48
1.510284596e-48
1.412855254e-48
1.369298746e-48
1.407637022e-48
1.46316509e-48
1.445756469e-48
1.332216715e-48
1.432448368e-48
1.345457358e-48
1.535411983e-48
1.713749124e-48
1.899282162e-48
2.171523864e-48
2.417645812e-48
2.871236867e-48
3.535647492e-48
4.591359527e-48
5.916619054e-48
8.045143425e-48
1.101286245e-47
1.462927441e-47
2.17935587e-47
3.096755114e-47
4.238041146e-47
6.485031975e-47
9.785796637e-47
1.378649176e-46
2.346273561e-46
3.740584967e-46
6.087594207e-46
9.804271985e-46
1.803850486e-45
3.30154687e-45
5.760602945e-45
1.066113789e-44
1.903464884e-44
3.427002518e-44
6.169351653e-44
1.162409067e-43
2.132397004e-43
3.738874511e-43
6.306142829e-43
9.642024086e-43
1.488989963e-42
2.099983653e-42
2.976525021e-42
3.929932346e-42
4.849006788e-42
5.756502604e-42
6.828348886e-42
7.886916679e-42
8.98711833e-42
1.003770031e-41
1.084907391e-41
1.203569018e-41
1.299213072e-41
1.383753391e-41
1.465546239e-41
1.54123317e-41
1.611052038e-41
1.675275824e-41
1.729328468e-41
3.805848704e-44
3.474844729e-44
3.13717412e-44
2.645503701e-44
2.308019562e-44
2.018060177e-44
1.704325994e-44
1.394732416e-44
1.045967878e-44
8.762072404e-45
7.423161447e-45
6.046952816e-45
4.765150058e-45
3.969090868e-45
3.272115314e-45
2.561136112e-45
2.02489133e-45
1.737823686e-45
1.39753971e-45
1.090055853e-45
8.575299888e-46
7.058150525e-46
6.024295358e-46
4.860196122e-46
3.903222454e-46
3.239828468e-46
2.655889308e-46
2.18173808e-46
1.813977287e-46
1.580186424e-46
1.370832354e-46
1.186275011e-46
1.017207564e-46
8.960893078e-47
8.355566383e-47
8.196283754e-47
7.35518999e-47
6.306981049e-47
5.945628132e-47
5.839695958e-47
5.95356036e-47
6.104134649e-47
6.011037036e-47
5.868961335e-47
5.978203643e-47
6.145106143e-47
6.51723901e-47
7.143204197e-47
7.878056352e-47
9.019741937e-47
1.027592235e-46
1.209899479e-46
1.476766984e-46
1.894903371e-46
2.471539734e-46
3.303573399e-46
4.506448287e-46
6.28765206e-46
8.9051219e-46
1.262477617e-45
1.857312802e-45
2.643605367e-45
3.953923433e-45
6.132016773e-45
9.380087978e-45
1.484942244e-44
2.410574506e-44
4.094649705e-44
7.189324378e-44
1.293193024e-43
2.346616268e-43
4.135497475e-43
7.359488738e-43
1.306524788e-42
2.350790534e-42
4.377693131e-42
8.136449619e-42
1.420469792e-41
2.358289772e-41
3.627861684e-41
5.420798593e-41
7.893570959e-41
1.080813165e-40
1.41629725e-40
1.764296656e-40
2.100412187e-40
2.426675857e-40
2.785196319e-40
3.111503403e-40
3.520959651e-40
3.859565905e-40
4.176668295e-40
4.47199343e-40
4.744711838e-40
5.010968914e-40
5.249521835e-40
5.472423318e-40
5.682897832e-40
5.860247251e-40
1.547871116e-42
1.374348515e-42
1.244182822e-42
1.059011536e-42
9.317108428e-43
8.022303591e-43
6.763641505e-43
5.587501134e-43
4.181437219e-43
3.491335417e-43
2.95346299e-43
2.403200958e-43
1.882690275e-43
1.566454209e-43
1.307824021e-43
1.015009744e-43
8.112725842e-44
6.992037937e-44
5.566531403e-44
4.331611653e-44
3.403985279e-44
2.825114656e-44
2.406907515e-44
1.937609506e-44
1.586126437e-44
1.281055822e-44
1.060606692e-44
8.898460267e-45
7.300127303e-45
6.31664047e-45
5.436048864e-45
4.748236365e-45
4.062716047e-45
3.57121369e-45
3.393229524e-45
3.26542428e-45
2.965187595e-45
2.585314709e-45
2.367324497e-45
2.343682508e-45
2.362891386e-45
2.39348096e-45
2.370602686e-45
2.29197668e-45
2.349995472e-45
2.458820937e-45
2.584402509e-45
2.829171141e-45
3.101320282e-45
3.556867247e-45
4.046359401e-45
4.731677503e-45
5.840556132e-45
7.43379673e-45
9.669855238e-45
1.278121844e-44
1.756351424e-44
2.418854038e-44
3.453416765e-44
4.928038957e-44
7.181853557e-44
1.030886836e-43
1.540930801e-43
2.33087058e-43
3.520701104e-43
5.621908141e-43
9.061484966e-43
1.540870928e-42
2.688801515e-42
4.814391648e-42
8.710839425e-42
1.521303789e-41
2.707002479e-41
4.755763443e-41
8.499254693e-41
1.585421892e-40
2.910935598e-40
5.037471649e-40
8.354071919e-40
1.265688081e-39
1.91814598e-39
2.764029044e-39
3.719575585e-39
4.849822616e-39
5.980074494e-39
7.059838067e-39
8.135317745e-39
9.219043615e-39
1.031113589e-38
1.153969651e-38
1.250649477e-38
1.351912165e-38
1.450030215e-38
1.537124411e-38
1.618871568e-38
1.67608365e-38
1.748337616e-38
1.810477318e-38
1.866854056e-38
6.175665556e-41
5.513854058e-41
4.995394773e-41
4.22321445e-41
3.761654908e-41
3.24846248e-41
2.677582988e-41
2.237420136e-41
1.664373303e-41
1.393488446e-41
1.17797772e-41
9.488754558e-42
7.54043893e-42
6.393330899e-42
5.1786107e-42
4.132749041e-42
3.337913987e-42
2.810062584e-42
2.218574862e-42
1.721213401e-42
1.344352346e-42
1.134406398e-42
9.695962369e-43
7.667226794e-43
6.31619198e-43
5.226537417e-43
4.25251852e-43
3.53576009e-43
2.908179576e-43
2.544982931e-43
2.204792499e-43
1.911965142e-43
1.625161545e-43
1.443572777e-43
1.37499136e-43
1.314666614e-43
1.18561185e-43
1.044748992e-43
9.190734132e-44
9.310997025e-44
9.508470135e-44
9.826610412e-44
9.354017155e-44
9.14744441e-44
9.226039356e-44
9.733527719e-44
1.023032753e-43
1.121986528e-43
1.219465536e-43
1.391123739e-43
1.586269314e-43
1.860646271e-43
2.300411669e-43
2.914354115e-43
3.773852246e-43
5.011044891e-43
6.866108752e-43
9.148691707e-43
1.337090906e-42
1.91135095e-42
2.776967247e-42
3.972223052e-42
5.889944622e-42
8.828606981e-42
1.312329469e-41
2.111150367e-41
3.386023149e-41
5.780644581e-41
1.018405335e-40
1.785830256e-40
3.241433579e-40
5.648151713e-40
9.928797707e-40
1.721384075e-39
3.044973683e-39
5.723117154e-39
1.04053825e-38
1.791180968e-38
2.952535822e-38
4.417780579e-38
6.711162109e-38
9.5856665e-38
1.275553495e-37
1.648856296e-37
2.022645547e-37
2.346760492e-37
2.718937609e-37
3.041685797e-37
3.40486202e-37
3.745811325e-37
4.119750365e-37
4.416959269e-37
4.69186265e-37
4.961992737e-37
5.198486966e-37
5.413077763e-37
5.610403788e-37
5.774722595e-37
5.929693329e-37
2.451189212e-39
2.201528626e-39
2.00941926e-39
1.70714542e-39
1.486318073e-39
1.311676308e-39
1.06159649e-39
8.975707229e-40
6.786856126e-40
5.543188524e-40
4.7646401e-40
3.758668928e-40
2.949102638e-40
2.542447693e-40
2.081954924e-40
1.652813989e-40
1.316761634e-40
1.12498794e-40
8.895114091e-41
6.858260731e-41
5.381722543e-41
4.574861924e-41
3.925390983e-41
3.083969014e-41
2.508369929e-41
2.079712921e-41
1.71074487e-41
1.402516027e-41
1.163913084e-41
1.019016232e-41
8.871831373e-42
7.69409342e-42
6.49556926e-42
5.743013047e-42
5.511188305e-42
5.26200814e-42
4.807347848e-42
4.18625904e-42
3.814522416e-42
3.691238768e-42
3.775956215e-42
3.898649685e-42
3.786623551e-42
3.667788674e-42
3.694354996e-42
3.846605789e-42
4.063739982e-42
4.45148556e-42
4.796080446e-42
5.503248057e-42
6.212419702e-42
7.390056234e-42
9.089672334e-42
1.138676289e-41
1.472303594e-41
1.952685457e-41
2.680832513e-41
3.715569178e-41
5.173187998e-41
7.417763041e-41
1.074845147e-40
1.520975626e-40
2.253299581e-40
3.322808709e-40
5.097568053e-40
7.953085664e-40
1.263729698e-39
2.162461351e-39
3.812267543e-39
6.664466588e-39
1.210011765e-38
2.124267739e-38
3.652743968e-38
6.237385791e-38
1.118707176e-37
2.064510507e-37
3.722878881e-37
6.332341217e-37
1.043560991e-36
1.593339977e-36
2.353352891e-36
3.333925032e-36
4.37091741e-36
5.629750396e-36
6.801161546e-36
7.908073918e-36
9.090612378e-36
1.007379767e-35
1.135475407e-35
1.242893319e-35
1.342239262e-35
1.433599967e-35
1.521287508e-35
1.602130676e-35
1.657189782e-35
1.735024354e-35
1.787568685e-35
1.837179303e-35
1.884071978e-35
9.85972024e-38
8.852318112e-38
8.245709639e-38
6.786603545e-38
6.16771472e-38
5.301762672e-38
4.293822858e-38
3.600266385e-38
2.711538788e-38
2.195425856e-38
1.916203964e-38
1.5275345e-38
1.199316971e-38
1.016637026e-38
8.296166099e-39
6.581532634e-39
5.346165807e-39
4.497560537e-39
3.578949017e-39
2.740798268e-39
2.162145144e-39
1.841601524e-39
1.575873351e-39
1.234778982e-39
1.003877855e-39
8.299830389e-40
6.872617189e-40
5.573633718e-40
4.675835536e-40
4.073677263e-40
3.567535681e-40
3.0799275e-40
2.620354766e-40
2.307342302e-40
2.209994405e-40
2.10672571e-40
1.926757726e-40
1.685972072e-40
1.518247432e-40
1.459123468e-40
1.492979663e-40
1.543742101e-40
1.515397332e-40
1.47629307e-40
1.463273355e-40
1.511548866e-40
1.633447457e-40
1.771131947e-40
1.888979028e-40
2.160854612e-40
2.429910852e-40
2.921156527e-40
3.626748013e-40
4.509147494e-40
5.904232887e-40
7.588770211e-40
1.052778285e-39
1.450481583e-39
2.021569582e-39
2.875702783e-39
4.158260409e-39
5.966479461e-39
8.701285779e-39
1.272517775e-38
1.93429854e-38
3.000501656e-38
4.837765912e-38
8.116622576e-38
1.408613128e-37
2.472503333e-37
4.49802571e-37
7.878013656e-37
1.343392613e-36
2.30368565e-36
4.044705817e-36
7.459587205e-36
1.334623396e-35
2.26526566e-35
3.718150286e-35
5.562450359e-35
8.237361412e-35
1.161130454e-34
1.520237831e-34
1.926071889e-34
2.327272826e-34
2.696520417e-34
3.051163689e-34
3.368912298e-34
3.739804615e-34
4.068969416e-34
4.393927567e-34
4.654761864e-34
4.930072684e-34
5.157388791e-34
5.388644673e-34
5.559200806e-34
5.6855681e-34
5.83544477e-34
5.997057083e-34
4.009375734e-36
3.576401038e-36
3.317554227e-36
2.783382073e-36
2.515690073e-36
2.12950989e-36
1.733209186e-36
1.442907639e-36
1.089068702e-36
8.891249882e-37
7.707978599e-37
6.087254266e-37
4.784321875e-37
4.094511043e-37
3.292402321e-37
2.64048692e-37
2.131788849e-37
1.829946058e-37
1.434297927e-37
1.095464446e-37
8.716299946e-38
7.400084291e-38
6.342414962e-38
4.939062421e-38
3.999381995e-38
3.327493901e-38
2.754365282e-38
2.226192905e-38
1.885912609e-38
1.646376884e-38
1.434810617e-38
1.2325042e-38
1.040647815e-38
9.214701163e-39
8.874960994e-39
8.412526405e-39
7.665586326e-39
6.71152578e-39
6.043272813e-39
5.828203555e-39
5.912049072e-39
6.025673047e-39
6.001894722e-39
5.865223207e-39
5.810977975e-39
6.073138696e-39
6.549225258e-39
7.066659336e-39
7.518111601e-39
8.560749874e-39
9.762975644e-39
1.147817848e-38
1.437024005e-38
1.772146346e-38
2.318786714e-38
3.066743655e-38
4.174105847e-38
5.715087588e-38
7.850870882e-38
1.112742049e-37
1.611048874e-37
2.30388501e-37
3.406416585e-37
4.966401035e-37
7.38579048e-37
1.13880079e-36
1.829007407e-36
3.041469882e-36
5.288191212e-36
9.284440678e-36
1.67130436e-35
2.907370838e-35
4.944046363e-35
8.474038366e-35
1.444671087e-34
2.694483721e-34
4.789593051e-34
8.108004425e-34
1.322811229e-33
1.989198278e-33
2.891688964e-33
4.04125353e-33
5.330994504e-33
6.624761106e-33
7.924090843e-33
9.190719114e-33
1.02200128e-32
1.128697291e-32
1.240455898e-32
1.334289692e-32
1.438430472e-32
1.523492034e-32
1.596525273e-32
1.649652765e-32
1.73340749e-32
1.783901297e-32
1.841277999e-32
1.889371478e-32
1.925646776e-32
1.618809191e-34
1.469887704e-34
1.344661008e-34
1.123699875e-34
1.016140714e-34
8.555600664e-35
7.188235998e-35
5.791927745e-35
4.376208993e-35
3.561516122e-35
3.092992181e-35
2.486052204e-35
1.92640225e-35
1.657112331e-35
1.345508594e-35
1.061002492e-35
8.745247503e-36
7.357309117e-36
5.762638596e-36
4.37674049e-36
3.481789353e-36
3.010211884e-36
2.553321532e-36
1.984141063e-36
1.598432638e-36
1.341592917e-36
1.105619975e-36
8.872561581e-37
7.541132819e-37
6.606437359e-37
5.766766034e-37
4.93396797e-37
4.197971125e-37
3.753710354e-37
3.578564887e-37
3.37168251e-37
3.095266261e-37
2.665871029e-37
2.470899378e-37
2.347562645e-37
2.372660018e-37
2.449853196e-37
2.410053535e-37
2.323642241e-37
2.322049857e-37
2.443763574e-37
2.635281569e-37
2.817986829e-37
3.041877381e-37
3.379167239e-37
3.860010827e-37
4.616562758e-37
5.695527318e-37
6.99867764e-37
9.109489119e-37
1.204310428e-36
1.631909412e-36
2.258642727e-36
3.085109672e-36
4.316515541e-36
6.259499547e-36
8.896222567e-36
1.324782254e-35
1.939614975e-35
2.840697896e-35
4.339499502e-35
6.94227082e-35
1.159557088e-34
1.975399788e-34
3.46725373e-34
6.202936136e-34
1.067427728e-33
1.825035269e-33
3.09939024e-33
5.45986041e-33
9.763654981e-33
1.719928774e-32
2.928059908e-32
4.71398113e-32
7.012970569e-32
1.01323262e-31
1.406790362e-31
1.847567917e-31
2.281629216e-31
2.705797095e-31
3.102713242e-31
3.418925784e-31
3.739248208e-31
4.09027573e-31
4.432543222e-31
4.709643139e-31
4.963237851e-31
5.17264296e-31
5.348008944e-31
5.571157119e-31
5.751494916e-31
5.914924098e-31
6.044696872e-31
6.152734229e-31
6.593640561e-33
5.92413591e-33
5.404886269e-33
4.517247131e-33
4.078094994e-33
3.450397706e-33
2.906137471e-33
2.323712645e-33
1.766501509e-33
1.444841394e-33
1.241727768e-33
1.01658179e-33
7.791708679e-34
6.719792888e-34
5.456804558e-34
4.250617469e-34
3.528493907e-34
2.949158252e-34
2.319627714e-34
1.752674486e-34
1.395329071e-34
1.219275459e-34
1.021845724e-34
8.062514473e-35
6.373247738e-35
5.397620358e-35
4.449036712e-35
3.539525991e-35
3.026126064e-35
2.66190826e-35
2.322656284e-35
1.973306195e-35
1.679718437e-35
1.506453021e-35
1.429235849e-35
1.376552075e-35
1.262454008e-35
1.088794305e-35
9.959109154e-36
9.445510628e-36
9.730507266e-36
9.8286725e-36
9.622006747e-36
9.28282879e-36
9.29306993e-36
9.785915799e-36
1.054033646e-35
1.122961693e-35
1.210820077e-35
1.366339163e-35
1.537064661e-35
1.831713492e-35
2.259504739e-35
2.767880134e-35
3.587216733e-35
4.686170446e-35
6.339215554e-35
8.815467559e-35
1.204037224e-34
1.692660129e-34
2.439207936e-34
3.448665319e-34
5.12931514e-34
7.556279449e-34
1.095357976e-33
1.642851137e-33
2.639932513e-33
4.396816011e-33
7.360803638e-33
1.294626791e-32
2.310286734e-32
4.018020554e-32
6.70588289e-32
1.135776173e-31
1.981583307e-31
3.532334581e-31
6.173404217e-31
1.050951654e-30
1.681979926e-30
2.481572431e-30
3.552516083e-30
4.923087879e-30
6.433219442e-30
8.003417929e-30
9.246894497e-30
1.053219803e-29
1.143938348e-29
1.232012228e-29
1.342798321e-29
1.45667724e-29
1.547687088e-29
1.622902595e-29
1.679713996e-29
1.71601627e-29
1.786577712e-29
1.844858248e-29
1.901005743e-29
1.931985447e-29
1.967019358e-29
2.675280791e-31
2.369351478e-31
2.232303259e-31
1.867090027e-31
1.655689633e-31
1.399492198e-31
1.164935294e-31
9.321307532e-32
7.101947186e-32
5.929169749e-32
5.01122259e-32
4.123499352e-32
3.181663131e-32
2.728519623e-32
2.242745385e-32
1.702922408e-32
1.426404164e-32
1.172057026e-32
9.335196705e-33
7.063657985e-33
5.662337715e-33
4.927820448e-33
4.195159008e-33
3.27519741e-33
2.600091493e-33
2.162261747e-33
1.795694473e-33
1.447515852e-33
1.218019614e-33
1.077304956e-33
9.39565176e-34
7.977222863e-34
6.729853053e-34
6.051795069e-34
5.802369162e-34
5.54476585e-34
5.06768813e-34
4.383119968e-34
4.009868502e-34
3.849590257e-34
3.959751655e-34
3.952711573e-34
3.85861583e-34
3.705262942e-34
3.730512609e-34
3.930550081e-34
4.219331608e-34
4.482353682e-34
4.844141258e-34
5.410137135e-34
6.076925082e-34
7.205517151e-34
8.978927361e-34
1.100038673e-33
1.42386583e-33
1.859576631e-33
2.50488478e-33
3.440670371e-33
4.701148137e-33
6.589622372e-33
9.502306999e-33
1.340657609e-32
1.982282197e-32
2.921425426e-32
4.216993529e-32
6.170043238e-32
1.001434958e-31
1.661975029e-31
2.905379418e-31
4.888655798e-31
8.719221841e-31
1.505300341e-30
2.476578285e-30
4.238839767e-30
7.186503277e-30
1.277140535e-29
2.204137836e-29
3.776147191e-29
6.059236492e-29
8.766900969e-29
1.264341507e-28
1.737719888e-28
2.262886272e-28
2.792307898e-28
3.243245686e-28
3.604901201e-28
3.878766563e-28
4.172546601e-28
4.540913681e-28
4.834342224e-28
5.102035535e-28
5.317181953e-28
5.480634675e-28
5.514592067e-28
5.765803711e-28
5.937948171e-28
6.117894925e-28
6.24896666e-28
6.324676201e-28
1.098239639e-29
9.662828517e-30
9.077648681e-30
7.573214003e-30
6.654549235e-30
5.640657159e-30
4.662401416e-30
3.767402939e-30
2.863531662e-30
2.410820948e-30
2.040792515e-30
1.68510944e-30
1.32046261e-30
1.115166315e-30
9.079730183e-31
6.858996353e-31
5.778147784e-31
4.892280111e-31
3.769239245e-31
2.837644125e-31
2.304232337e-31
1.994477132e-31
1.700238042e-31
1.330179646e-31
1.071177341e-31
8.839756734e-32
7.260563692e-32
5.909205368e-32
4.918022102e-32
4.371518364e-32
3.80193208e-32
3.193805358e-32
2.66279895e-32
2.471230398e-32
2.337094598e-32
2.262772688e-32
2.021248835e-32
1.752703085e-32
1.600897967e-32
1.577754096e-32
1.603012312e-32
1.575410614e-32
1.553430107e-32
1.498871934e-32
1.519704036e-32
1.580009206e-32
1.690718381e-32
1.792235384e-32
1.928450882e-32
2.15457909e-32
2.412446122e-32
2.883932511e-32
3.571301383e-32
4.382752464e-32
5.638678136e-32
7.376536822e-32
9.946546901e-32
1.34494896e-31
1.848659454e-31
2.574560693e-31
3.707819278e-31
5.204708207e-31
7.739863591e-31
1.12805452e-30
1.622453883e-30
2.438808717e-30
3.809537595e-30
6.393259989e-30
1.111613817e-29
1.854418684e-29
3.275116003e-29
5.655864184e-29
9.188386514e-29
1.558205139e-28
2.647942685e-28
4.593334693e-28
8.1235742e-28
1.36892134e-27
2.182654828e-27
3.11879608e-27
4.46485133e-27
6.091015553e-27
8.009734358e-27
9.666759009e-27
1.12535624e-26
1.246906809e-26
1.310429224e-26
1.418815358e-26
1.520747416e-26
1.606617309e-26
1.68448862e-26
1.747065382e-26
1.781364991e-26
1.848809011e-26
1.905641439e-26
1.953788998e-26
1.993830023e-26
2.023701997e-26
2.039764561e-26
4.53738722e-28
4.035422028e-28
3.685968194e-28
3.035960469e-28
2.691061885e-28
2.283853247e-28
1.889870654e-28
1.543291188e-28
1.152387788e-28
9.733949118e-29
8.363105994e-29
6.847546864e-29
5.42858364e-29
4.546474888e-29
3.676965414e-29
2.825447404e-29
2.349220702e-29
1.966897154e-29
1.532147085e-29
1.131117653e-29
9.353533475e-30
8.08757836e-30
6.877055719e-30
5.37239237e-30
4.351865471e-30
3.62159626e-30
2.940541244e-30
2.389879241e-30
1.995562233e-30
1.771887083e-30
1.538590982e-30
1.283643644e-30
1.090206857e-30
1.00047333e-30
9.407606223e-31
9.146844134e-31
8.164114403e-31
7.003327679e-31
6.494675799e-31
6.508697493e-31
6.467506608e-31
6.409224887e-31
6.261112208e-31
6.014642654e-31
6.15476318e-31
6.382059463e-31
6.792856527e-31
7.183763692e-31
7.689034233e-31
8.660347231e-31
9.614630714e-31
1.147012136e-30
1.4189894e-30
1.733122074e-30
2.242216724e-30
2.914550714e-30
3.934755897e-30
5.430726643e-30
7.291186158e-30
1.00543827e-29
1.457125575e-29
2.014970032e-29
3.022030397e-29
4.414070825e-29
6.186712707e-29
9.322233557e-29
1.454127532e-28
2.449035227e-28
4.267548253e-28
7.042200269e-28
1.234834392e-27
2.126228758e-27
3.396871067e-27
5.754263108e-27
9.604521396e-27
1.677837758e-26
2.952500012e-26
4.925053394e-26
7.807920281e-26
1.136728662e-25
1.585484837e-25
2.18593875e-25
2.814095896e-25
3.43799228e-25
3.899422407e-25
4.280398393e-25
4.524926407e-25
4.784227771e-25
5.077362477e-25
5.313973774e-25
5.558648106e-25
5.764271812e-25
5.83174249e-25
6.027037746e-25
6.205494442e-25
6.371748603e-25
6.519027141e-25
6.597682664e-25
6.615024109e-25
1.841613204e-26
1.675624738e-26
1.497315926e-26
1.233816477e-26
1.097240179e-26
9.405496576e-27
7.680094588e-27
6.363528187e-27
4.682143941e-27
3.941664726e-27
3.386330196e-27
2.784042525e-27
2.235188207e-27
1.863269198e-27
1.491369543e-27
1.147949642e-27
9.517703341e-28
7.98543428e-28
6.196284344e-28
4.708875212e-28
3.806922138e-28
3.292705029e-28
2.789220131e-28
2.158986763e-28
1.776237462e-28
1.485645961e-28
1.199349113e-28
9.652919796e-29
8.055804442e-29
7.164372947e-29
6.254813528e-29
5.160634965e-29
4.367448171e-29
4.057975539e-29
3.842695444e-29
3.67955963e-29
3.298008675e-29
2.806257403e-29
2.61469225e-29
2.652924873e-29
2.67757028e-29
2.587948914e-29
2.5703568e-29
2.511341219e-29
2.519225129e-29
2.59305577e-29
2.738689228e-29
2.868848331e-29
3.0991127e-29
3.467811757e-29
3.799981243e-29
4.567830035e-29
5.695147787e-29
6.727701758e-29
8.89064409e-29
1.166976868e-28
1.537058765e-28
2.144443385e-28
2.856489419e-28
3.944436285e-28
5.739254342e-28
8.096264411e-28
1.196936444e-27
1.728635106e-27
2.411133917e-27
3.575547505e-27
5.683748313e-27
9.539726049e-27
1.630294622e-26
2.669929386e-26
4.733109639e-26
8.038738859e-26
1.250541056e-25
2.124235299e-25
3.596404899e-25
6.371111058e-25
1.078787966e-24
1.794611019e-24
2.85444476e-24
4.100144313e-24
5.790583583e-24
7.812770258e-24
9.914037211e-24
1.200556651e-23
1.328191203e-23
1.465587229e-23
1.545012151e-23
1.613378793e-23
1.700964374e-23
1.763982923e-23
1.842573772e-23
1.910610184e-23
1.948032387e-23
2.004267788e-23
2.051567704e-23
2.104273018e-23
2.141658223e-23
2.159157619e-23
2.150736186e-23
7.713562235e-25
6.842288039e-25
6.101998003e-25
5.252521746e-25
4.481413323e-25
3.849894019e-25
3.15183932e-25
2.602359986e-25
1.929187907e-25
1.613189586e-25
1.376987251e-25
1.13986076e-25
9.169407978e-26
7.654933005e-26
6.067729602e-26
4.678293645e-26
3.850354984e-26
3.306086251e-26
2.499568928e-26
1.930484693e-26
1.554228558e-26
1.346637708e-26
1.145268484e-26
8.899829505e-27
7.272921395e-27
6.035740742e-27
4.841135037e-27
3.963525815e-27
3.261602649e-27
2.907815818e-27
2.562048158e-27
2.101547188e-27
1.763338681e-27
1.659844964e-27
1.560291396e-27
1.489240464e-27
1.358687277e-27
1.142110931e-27
1.062795771e-27
1.08848354e-27
1.094999636e-27
1.066521515e-27
1.050217347e-27
1.021501102e-27
1.025262212e-27
1.049903105e-27
1.108446376e-27
1.148618394e-27
1.258805782e-27
1.389814045e-27
1.52985921e-27
1.827903207e-27
2.252315576e-27
2.75689427e-27
3.580463974e-27
4.653044162e-27
6.186210281e-27
8.528887813e-27
1.10578486e-26
1.557445158e-26
2.27319354e-26
3.174585763e-26
4.732195202e-26
6.858739246e-26
9.303181602e-26
1.379591752e-25
2.195105672e-25
3.69263736e-25
6.224674871e-25
1.006405019e-24
1.803425275e-24
3.10667978e-24
4.700027442e-24
8.006222505e-24
1.349116015e-23
2.357715699e-23
3.981502129e-23
6.610637394e-23
1.033714913e-22
1.467674259e-22
2.095329506e-22
2.805343033e-22
3.474557042e-22
4.202947679e-22
4.675832125e-22
5.04875264e-22
5.28092767e-22
5.393695766e-22
5.709336529e-22
5.920493372e-22
6.152422913e-22
6.377155746e-22
6.496293526e-22
6.641439018e-22
6.68160024e-22
6.877601667e-22
7.012545358e-22
7.071388477e-22
7.006417686e-22
3.151782027e-23
2.834510536e-23
2.530241235e-23
2.180957754e-23
1.85046292e-23
1.588196203e-23
1.313926751e-23
1.074954623e-23
7.924358293e-24
6.644012473e-24
5.681053596e-24
4.628789225e-24
3.7255572e-24
3.152421266e-24
2.477857056e-24
1.933960353e-24
1.563525101e-24
1.351374732e-24
1.017497675e-24
7.985122566e-25
6.403304809e-25
5.524975598e-25
4.663627797e-25
3.607022012e-25
2.96880176e-25
2.467101865e-25
1.99945165e-25
1.624372061e-25
1.324223292e-25
1.187349978e-25
1.047007059e-25
8.660880643e-26
7.137431084e-26
6.772560605e-26
6.427548589e-26
6.131262846e-26
5.541007153e-26
4.620410028e-26
4.356707916e-26
4.4987629e-26
4.496433471e-26
4.371742655e-26
4.276394926e-26
4.165907904e-26
4.17992106e-26
4.245910854e-26
4.503210181e-26
4.713329274e-26
5.109931374e-26
5.564914994e-26
6.171387889e-26
7.380352811e-26
9.226542676e-26
1.090380356e-25
1.428059682e-25
1.863305976e-25
2.513661732e-25
3.426798521e-25
4.52362577e-25
6.19315319e-25
8.975736772e-25
1.258616026e-24
1.867005884e-24
2.662930492e-24
3.613611134e-24
5.350769246e-24
8.497345743e-24
1.432233806e-23
2.454025412e-23
3.872086341e-23
6.915494001e-23
1.189716804e-22
1.820190129e-22
2.997167209e-22
5.023058473e-22
8.796663144e-22
1.47780437e-21
2.431100783e-21
3.729236765e-21
5.207422696e-21
7.568450548e-21
1.010877706e-20
1.267740614e-20
1.488153415e-20
1.654824594e-20
1.757037068e-20
1.817928791e-20
1.868992751e-20
1.932077962e-20
1.983885973e-20
2.056190721e-20
2.133550433e-20
2.176154337e-20
2.219585723e-20
2.235804735e-20
2.27554532e-20
2.307426861e-20
2.320537671e-20
2.309427181e-20
1.299715058e-21
1.169811677e-21
1.042222369e-21
9.029003673e-22
7.573010141e-22
6.61703202e-22
5.518761427e-22
4.465658738e-22
3.29335962e-22
2.752685553e-22
2.358741847e-22
1.89035593e-22
1.545702625e-22
1.302939787e-22
1.012046478e-22
8.049520408e-23
6.617953309e-23
5.735277367e-23
4.233234266e-23
3.306424881e-23
2.624734999e-23
2.297280769e-23
1.936084054e-23
1.48446014e-23
1.223849817e-23
1.028437989e-23
8.23141332e-24
6.671956467e-24
5.415988536e-24
4.83127414e-24
4.283601509e-24
3.548906751e-24
2.92075364e-24
2.770138209e-24
2.666772468e-24
2.515760304e-24
2.288747167e-24
1.918958166e-24
1.785019267e-24
1.866844715e-24
1.853096805e-24
1.775087598e-24
1.759590881e-24
1.703453011e-24
1.710369639e-24
1.711603997e-24
1.837749671e-24
1.924285921e-24
2.075348991e-24
2.252706491e-24
2.503909115e-24
2.986036482e-24
3.749079924e-24
4.402184943e-24
5.687552497e-24
7.567519806e-24
1.008515826e-23
1.381201039e-23
1.795534623e-23
2.498055757e-23
3.556790392e-23
4.968518698e-23
7.392454655e-23
1.084847212e-22
1.421898773e-22
2.089189237e-22
3.321983346e-22
5.564759818e-22
9.611117301e-22
1.458307032e-21
2.671909858e-21
4.550846384e-21
6.883583825e-21
1.142248289e-20
1.87379661e-20
3.306452341e-20
5.491612909e-20
9.104477554e-20
1.442185415e-19
1.898803048e-19
2.753458098e-19
3.664456203e-19
4.619655803e-19
5.267688613e-19
5.829016557e-19
6.09105693e-19
6.284686578e-19
6.396907571e-19
6.541953936e-19
6.660853858e-19
6.927652778e-19
7.172465743e-19
7.359362477e-19
7.448383988e-19
7.481010026e-19
7.595827905e-19
7.661333129e-19
7.627618172e-19
7.607120099e-19
5.5429882e-20
4.815967044e-20
4.30592154e-20
3.726456053e-20
3.242328651e-20
2.751370066e-20
2.316841535e-20
1.866537103e-20
1.374352147e-20
1.145886852e-20
9.793143707e-21
7.948402033e-21
6.407842486e-21
5.412180612e-21
4.195555254e-21
3.364556001e-21
2.73174467e-21
2.382227013e-21
1.821747517e-21
1.395167988e-21
1.08334377e-21
9.482911827e-22
8.041994838e-22
6.263577268e-22
5.111470621e-22
4.28582621e-22
3.384253974e-22
2.745789614e-22
2.254417654e-22
1.969079225e-22
1.79191793e-22
1.458370359e-22
1.224157692e-22
1.138033434e-22
1.092990037e-22
1.039437123e-22
9.457182301e-23
7.862869475e-23
7.427333734e-23
7.709664821e-23
7.670047283e-23
7.475714097e-23
7.230522122e-23
6.953705901e-23
7.016713085e-23
7.02658682e-23
7.555990393e-23
7.960995755e-23
8.469908224e-23
9.107376681e-23
1.02606239e-22
1.19938847e-22
1.537828389e-22
1.797946148e-22
2.28428424e-22
3.057539992e-22
4.088619423e-22
5.559124451e-22
7.11062437e-22
1.012725655e-21
1.439285376e-21
1.971403071e-21
2.922948079e-21
4.318243115e-21
5.592625964e-21
8.225491811e-21
1.300228561e-20
2.166717197e-20
3.795178979e-20
5.703365111e-20
1.032176137e-19
1.77740236e-19
2.63113101e-19
4.33682248e-19
7.121914413e-19
1.251926524e-18
2.046418308e-18
3.42298412e-18
5.426401985e-18
6.985427207e-18
1.014439306e-17
1.330430669e-17
1.6906279e-17
1.905566095e-17
2.074335652e-17
2.098575358e-17
2.181580302e-17
2.212460852e-17
2.229456334e-17
2.257693408e-17
2.356656087e-17
2.432860653e-17
2.494620867e-17
2.531072763e-17
2.466594204e-17
2.524931501e-17
2.542678053e-17
2.537828912e-17
2.508453652e-17
2.337159725e-18
2.102684067e-18
1.783713016e-18
1.553970651e-18
1.37625367e-18
1.150599847e-18
9.645789073e-19
7.869297578e-19
5.774397723e-19
4.769666176e-19
4.050543533e-19
3.329836846e-19
2.691743573e-19
2.265074059e-19
1.761802501e-19
1.410262753e-19
1.164449008e-19
9.865064793e-20
7.712834643e-20
5.816224775e-20
4.530725437e-20
3.908164615e-20
3.365395227e-20
2.625880487e-20
2.112745752e-20
1.782780838e-20
1.391047106e-20
1.129789638e-20
9.321587982e-21
8.072454596e-21
7.549013689e-21
6.027890376e-21
5.095757495e-21
4.737503481e-21
4.525212243e-21
4.318496977e-21
3.914440087e-21
3.227138433e-21
3.18324072e-21
3.274319496e-21
3.206144994e-21
3.099149471e-21
2.98264801e-21
2.78976745e-21
2.887738164e-21
2.801494643e-21
3.117600933e-21
3.282017135e-21
3.45407811e-21
3.771495222e-21
4.275192377e-21
5.002051221e-21
6.27260208e-21
7.346442657e-21
9.411091315e-21
1.238234658e-20
1.668844554e-20
2.321878983e-20
2.969950469e-20
4.12167276e-20
5.816596315e-20
7.836022104e-20
1.193678179e-19
1.723339052e-19
2.201000111e-19
3.270008795e-19
5.082641987e-19
8.457490397e-19
1.507213704e-18
2.240764754e-18
4.038686596e-18
7.033169077e-18
9.989906894e-18
1.673314924e-17
2.681184657e-17
4.750524556e-17
7.852759411e-17
1.276372916e-16
2.12376489e-16
2.576622782e-16
3.816050074e-16
4.969520073e-16
6.115502413e-16
6.941058965e-16
7.525448157e-16
7.429711703e-16
7.598980805e-16
7.771588908e-16
7.595733689e-16
7.833973137e-16
8.052051619e-16
8.284751895e-16
8.469452028e-16
8.611199025e-16
8.594309092e-16
8.616858877e-16
8.569716245e-16
8.474265782e-16
8.297299228e-16
9.891844634e-17
9.23776404e-17
7.614909973e-17
6.696587589e-17
5.838727258e-17
4.920960172e-17
3.944988289e-17
3.35909838e-17
2.440052116e-17
2.025444095e-17
1.747026542e-17
1.406559925e-17
1.126725557e-17
9.535350443e-18
7.355498242e-18
5.932220733e-18
4.912411912e-18
4.153939516e-18
3.27738589e-18
2.430026398e-18
1.922556173e-18
1.656421972e-18
1.418079784e-18
1.101910846e-18
8.963087e-19
7.514723288e-19
5.744346158e-19
4.750774485e-19
3.844333862e-19
3.433518551e-19
3.14939823e-19
2.503130699e-19
2.124704899e-19
1.988664168e-19
1.885468576e-19
1.801023048e-19
1.636775946e-19
1.326571451e-19
1.346365522e-19
1.370524656e-19
1.358907572e-19
1.316183374e-19
1.236871783e-19
1.157159147e-19
1.195989595e-19
1.197717159e-19
1.293831797e-19
1.355962855e-19
1.458477501e-19
1.566921175e-19
1.77506289e-19
2.062443753e-19
2.634539e-19