/*--------------------------------*- C++ -*----------------------------------*\
| =========                 |                                                 |
| \\      /  F ield         | OpenFOAM: The Open Source CFD Toolbox           |
|  \\    /   O peration     | Version:  v1706                                 |
|   \\  /    A nd           | Web:      www.OpenFOAM.com                      |
|    \\/     M anipulation  |                                                 |
\*---------------------------------------------------------------------------*/
FoamFile
{
    version     2.0;
    format      ascii;
    class       volScalarField;
    location    "0.00272";
    object      X_O;
}
// * * * * * * * * * * * * * * * * * * * * * * * * * * * * * * * * * * * * * //

dimensions      [0 0 0 0 0 0 0];


internalField   nonuniform List<scalar> 
11682
(
6.355962509e-32
6.353838245e-32
6.356503121e-32
6.360956836e-32
6.367974078e-32
6.365389025e-32
6.371293334e-32
6.373665243e-32
6.382183113e-32
6.387599769e-32
6.388630315e-32
6.391132612e-32
6.404593814e-32
6.409655195e-32
6.409816046e-32
6.410956503e-32
6.423679875e-32
6.434327989e-32
6.434885045e-32
6.436049726e-32
6.457110606e-32
6.462344622e-32
6.46551896e-32
6.454371822e-32
6.489426476e-32
6.4977391e-32
6.496412526e-32
6.492113693e-32
6.519634284e-32
6.533993597e-32
6.530244789e-32
6.525106948e-32
6.559806562e-32
6.585009483e-32
6.581252524e-32
6.574125045e-32
6.56885494e-32
6.576900298e-32
6.64442413e-32
6.639927997e-32
6.631576084e-32
6.624182481e-32
6.614770974e-32
6.656897258e-32
6.679554911e-32
6.662500266e-32
6.715500434e-32
6.708506107e-32
6.717993937e-32
6.745429551e-32
6.731334449e-32
6.764639396e-32
6.773110119e-32
6.759375998e-32
6.812374197e-32
6.801734614e-32
6.806834576e-32
6.83476901e-32
6.827072836e-32
6.858055591e-32
6.861537566e-32
6.851275116e-32
6.914756759e-32
6.88739609e-32
6.898978859e-32
6.947194452e-32
6.924754578e-32
6.943980826e-32
6.970761024e-32
6.945529343e-32
7.004384566e-32
6.999983145e-32
6.986453775e-32
7.051279255e-32
7.022586426e-32
7.036942947e-32
7.056700216e-32
7.0641693e-32
7.087029871e-32
7.06440264e-32
7.162043271e-32
7.133930122e-32
7.098242165e-32
7.057999768e-32
7.017612729e-32
6.981179874e-32
6.952961725e-32
7.06367091e-32
7.120764891e-32
7.121974479e-32
7.104336557e-32
7.090338001e-32
7.073117827e-32
7.055715862e-32
7.039371056e-32
7.02430784e-32
7.010503023e-32
6.997933656e-32
6.986504481e-32
1.285308528e-31
1.286220195e-31
1.286274516e-31
1.286572692e-31
1.288054875e-31
1.288150422e-31
1.288725954e-31
1.289239028e-31
1.291476965e-31
1.292007487e-31
1.292207007e-31
1.292718516e-31
1.29568064e-31
1.296307621e-31
1.296354527e-31
1.296704655e-31
1.300444244e-31
1.301390805e-31
1.301520727e-31
1.301766964e-31
1.305899618e-31
1.307560615e-31
1.307716002e-31
1.308015723e-31
1.312188192e-31
1.314446807e-31
1.313917704e-31
1.313192015e-31
1.318338159e-31
1.321309554e-31
1.32110794e-31
1.320388673e-31
1.326582161e-31
1.331616044e-31
1.330724224e-31
1.329816134e-31
1.328581907e-31
1.32972867e-31
1.343260903e-31
1.343175864e-31
1.341715256e-31
1.339926281e-31
1.338043758e-31
1.348042584e-31
1.350980539e-31
1.351000347e-31
1.35840797e-31
1.356997729e-31
1.358767096e-31
1.364139402e-31
1.36286917e-31
1.368663508e-31
1.370502267e-31
1.367561944e-31
1.37771698e-31
1.376111815e-31
1.377009029e-31
1.384734353e-31
1.381439349e-31
1.387029303e-31
1.390711488e-31
1.386676926e-31
1.39820805e-31
1.397764199e-31
1.396319224e-31
1.405084037e-31
1.401607329e-31
1.407664901e-31
1.411168284e-31
1.406183232e-31
1.418178223e-31
1.417143899e-31
1.414480384e-31
1.426425045e-31
1.422278861e-31
1.424518452e-31
1.428886099e-31
1.431022036e-31
1.434785956e-31
1.431809192e-31
1.448138049e-31
1.446173259e-31
1.438753263e-31
1.430993176e-31
1.423695073e-31
1.416954412e-31
1.41031496e-31
1.42820986e-31
1.439264035e-31
1.442147008e-31
1.441132164e-31
1.438056313e-31
1.434676982e-31
1.431334956e-31
1.428197664e-31
1.425285118e-31
1.422590532e-31
1.420112739e-31
1.417813482e-31
1.935819144e-31
1.936005483e-31
1.93646992e-31
1.93718234e-31
1.939290256e-31
1.939668772e-31
1.940335755e-31
1.941202011e-31
1.944892438e-31
1.945211897e-31
1.945544135e-31
1.94632072e-31
1.950659373e-31
1.951540682e-31
1.951976318e-31
1.952080178e-31
1.957510095e-31
1.959302687e-31
1.959547191e-31
1.959928419e-31
1.96600161e-31
1.96863439e-31
1.968742737e-31
1.96918584e-31
1.97598931e-31
1.97863714e-31
1.97825151e-31
1.978152861e-31
1.984910299e-31
1.989198751e-31
1.988903725e-31
1.98815585e-31
1.996935775e-31
2.004263611e-31
2.003869946e-31
2.002220858e-31
2.000474381e-31
2.002566794e-31
2.021515145e-31
2.022455767e-31
2.020002597e-31
2.016918001e-31
2.014552523e-31
2.028548352e-31
2.033629821e-31
2.033230121e-31
2.044486744e-31
2.042966705e-31
2.045451242e-31
2.053227316e-31
2.051341088e-31
2.0597716e-31
2.063172048e-31
2.059048791e-31
2.073496885e-31
2.071656063e-31
2.072919578e-31
2.083100016e-31
2.079841908e-31
2.087722318e-31
2.09314852e-31
2.088427596e-31
2.104432429e-31
2.103447011e-31
2.102151571e-31
2.11444997e-31
2.110343399e-31
2.117607232e-31
2.123770762e-31
2.1174969e-31
2.134090736e-31
2.133316662e-31
2.129823104e-31
2.146357871e-31
2.141705838e-31
2.144589315e-31
2.150719198e-31
2.153911556e-31
2.159386457e-31
2.155354987e-31
2.177708093e-31
2.176268859e-31
2.167225611e-31
2.156049807e-31
2.145408063e-31
2.135104231e-31
2.125650428e-31
2.146296175e-31
2.162404775e-31
2.168159198e-31
2.167944462e-31
2.165021243e-31
2.161095916e-31
2.156630817e-31
2.152198273e-31
2.147791642e-31
2.143965242e-31
2.140367787e-31
2.137053846e-31
2.585585994e-31
2.586323947e-31
2.586865954e-31
2.587709835e-31
2.590604417e-31
2.591416574e-31
2.591949678e-31
2.593226883e-31
2.597607392e-31
2.59844952e-31
2.5987584e-31
2.599916093e-31
2.606103352e-31
2.607551646e-31
2.607238495e-31
2.608052983e-31
2.615227565e-31
2.617227864e-31
2.617563772e-31
2.618087749e-31
2.6259168e-31
2.629446415e-31
2.629753048e-31
2.630234619e-31
2.638996564e-31
2.643480654e-31
2.642584055e-31
2.642090977e-31
2.65109083e-31
2.657263875e-31
2.657028812e-31
2.655708243e-31
2.666985197e-31
2.67705829e-31
2.677033625e-31
2.674864087e-31
2.672067269e-31
2.675148088e-31
2.698554181e-31
2.70128638e-31
2.698548756e-31
2.69507877e-31
2.690812269e-31
2.708806201e-31
2.715734053e-31
2.715587979e-31
2.729988873e-31
2.728744929e-31
2.731846435e-31
2.741753064e-31
2.739989915e-31
2.750614122e-31
2.755146195e-31
2.750378224e-31
2.768425582e-31
2.767241212e-31
2.768563256e-31
2.780469477e-31
2.777900125e-31
2.787737464e-31
2.794818173e-31
2.789483682e-31
2.809141652e-31
2.808711204e-31
2.807032133e-31
2.822720234e-31
2.8185408e-31
2.827303354e-31
2.835734034e-31
2.828297852e-31
2.848294921e-31
2.84849317e-31
2.844598303e-31
2.864763395e-31
2.859894345e-31
2.863538159e-31
2.871166571e-31
2.875563187e-31
2.882578386e-31
2.877498811e-31
2.904115552e-31
2.904583239e-31
2.89452539e-31
2.880636395e-31
2.866702967e-31
2.852971118e-31
2.840829745e-31
2.862352887e-31
2.881842231e-31
2.890479624e-31
2.892639094e-31
2.890307148e-31
2.88632613e-31
2.880843647e-31
2.875676309e-31
2.870762753e-31
2.865309472e-31
2.860702007e-31
2.856382833e-31
3.235425899e-31
3.23640802e-31
3.236877474e-31
3.238519367e-31
3.241428301e-31
3.242644984e-31
3.243344862e-31
3.245234182e-31
3.250888381e-31
3.251623794e-31
3.252230472e-31
3.253195966e-31
3.260758285e-31
3.262841852e-31
3.262888279e-31
3.263755082e-31
3.272401143e-31
3.275090731e-31
3.275492555e-31
3.276237935e-31
3.28592805e-31
3.290293689e-31
3.291103865e-31
3.29163001e-31
3.301981245e-31
3.307755853e-31
3.306841507e-31
3.306114912e-31
3.316925517e-31
3.324953498e-31
3.324873969e-31
3.32324337e-31
3.336779832e-31
3.349433107e-31
3.349703994e-31
3.347154252e-31
3.343991997e-31
3.347121987e-31
3.376746995e-31
3.37982981e-31
3.376767275e-31
3.372413711e-31
3.367623944e-31
3.388425266e-31
3.397945015e-31
3.397944427e-31
3.414895337e-31
3.414289524e-31
3.417996257e-31
3.43027726e-31
3.428425608e-31
3.441090724e-31
3.446637179e-31
3.441372994e-31
3.46223647e-31
3.461961895e-31
3.463831951e-31
3.479222727e-31
3.475583989e-31
3.487069303e-31
3.495844489e-31
3.489944492e-31
3.51288639e-31
3.513258132e-31
3.512533314e-31
3.530064726e-31
3.52586477e-31
3.536215447e-31
3.546510552e-31
3.538744349e-31
3.561367206e-31
3.563096061e-31
3.558689455e-31
3.581521858e-31
3.577819955e-31
3.581551763e-31
3.590450498e-31
3.596120846e-31
3.604570382e-31
3.600111905e-31
3.629144432e-31
3.631591031e-31
3.621440686e-31
3.605883788e-31
3.589330229e-31
3.573322326e-31
3.558526534e-31
3.579807859e-31
3.602353219e-31
3.613813842e-31
3.61763077e-31
3.61688029e-31
3.613548069e-31
3.608509706e-31
3.602635275e-31
3.597143604e-31
3.591396558e-31
3.585936078e-31
3.580832309e-31
3.885626859e-31
3.886501678e-31
3.887202076e-31
3.8889341e-31
3.893350377e-31
3.89400483e-31
3.894987592e-31
3.897219723e-31
3.903842279e-31
3.904663071e-31
3.90558468e-31
3.907188418e-31
3.916270559e-31
3.918130564e-31
3.918333648e-31
3.919325065e-31
3.930079404e-31
3.932791909e-31
3.933518976e-31
3.934386733e-31
3.945654617e-31
3.95114267e-31
3.952301393e-31
3.952840016e-31
3.965198586e-31
3.971803688e-31
3.971095499e-31
3.970140258e-31
3.98270261e-31
3.992323985e-31
3.992620988e-31
3.990843045e-31
4.006742981e-31
4.021703506e-31
4.022328516e-31
4.019432258e-31
4.015720582e-31
4.019305024e-31
4.052922203e-31
4.058011102e-31
4.054882354e-31
4.049765788e-31
4.044286536e-31
4.067793433e-31
4.079558235e-31
4.079958184e-31
4.099613586e-31
4.099578543e-31
4.103755517e-31
4.117884263e-31
4.116350558e-31
4.130774032e-31
4.137970513e-31
4.132537252e-31
4.156088455e-31
4.156007996e-31
4.158553617e-31
4.175828812e-31
4.173149647e-31
4.185813859e-31
4.196298433e-31
4.190746183e-31
4.215640148e-31
4.217495797e-31
4.216813892e-31
4.236318692e-31
4.233237848e-31
4.244419671e-31
4.256057796e-31
4.248346349e-31
4.273432408e-31
4.276626229e-31
4.272278113e-31
4.29799164e-31
4.295192547e-31
4.300420803e-31
4.312002286e-31
4.32180303e-31
4.335364693e-31
4.335752391e-31
4.375051689e-31
4.389672786e-31
4.390967452e-31
4.387221299e-31
4.381500542e-31
4.374799746e-31
4.368578434e-31
4.398877235e-31
4.43340805e-31
4.457486394e-31
4.474405447e-31
4.484116958e-31
4.491120783e-31
4.494763573e-31
4.497462396e-31
4.497570651e-31
4.496025193e-31
4.495551132e-31
4.495775049e-31
4.536710489e-31
4.537230128e-31
4.538241443e-31
4.540547583e-31
4.545025723e-31
4.545823627e-31
4.546750745e-31
4.549467757e-31
4.557042771e-31
4.558431396e-31
4.559003988e-31
4.560684107e-31
4.571204701e-31
4.573423845e-31
4.573630354e-31
4.575027372e-31
4.586951618e-31
4.590943445e-31
4.591651396e-31
4.592554339e-31
4.605512953e-31
4.611817594e-31
4.613360496e-31
4.61394834e-31
4.628040625e-31
4.635721239e-31
4.635362272e-31
4.634380193e-31
4.648836608e-31
4.659926588e-31
4.660319524e-31
4.658465014e-31
4.676017741e-31
4.693317688e-31
4.694792085e-31
4.69169401e-31
4.687373642e-31
4.69131039e-31
4.728798246e-31
4.736053809e-31
4.732973659e-31
4.726826446e-31
4.720703819e-31
4.746790388e-31
4.760707537e-31
4.762150563e-31
4.783752775e-31
4.784612708e-31
4.789255754e-31
4.805295299e-31
4.804765169e-31
4.819986158e-31
4.828910401e-31
4.823153236e-31
4.848910465e-31
4.850726676e-31
4.853169757e-31
4.87189151e-31
4.869904842e-31
4.883982014e-31
4.896177655e-31
4.890669991e-31
4.917902521e-31
4.921268148e-31
4.920596195e-31
4.942007027e-31
4.939985306e-31
4.952295373e-31
4.966472232e-31
4.959836851e-31
4.988521563e-31
4.996423649e-31
4.997726107e-31
5.03539083e-31
5.049804708e-31
5.092576627e-31
5.167361237e-31
5.279930792e-31
5.454894189e-31
5.669221463e-31
6.0041331e-31
6.409912771e-31
6.860518507e-31
7.311696844e-31
7.762366399e-31
8.203956145e-31
8.559391264e-31
8.952433338e-31
9.380229818e-31
9.744379247e-31
1.015109831e-30
1.048640343e-30
1.07739048e-30
1.098555031e-30
1.132907874e-30
1.154248858e-30
1.178026395e-30
1.197839835e-30
1.21269417e-30
5.222804288e-31
5.2205886e-31
5.218811898e-31
5.215470968e-31
5.218244955e-31
5.215625515e-31
5.214220386e-31
5.213669049e-31
5.219028279e-31
5.218837877e-31
5.218715343e-31
5.219582692e-31
5.229998887e-31
5.232271014e-31
5.232249655e-31
5.232865311e-31
5.246102543e-31
5.250173524e-31
5.250891913e-31
5.25159092e-31
5.265899498e-31
5.273257131e-31
5.274902382e-31
5.275410307e-31
5.291058712e-31
5.299968806e-31
5.299792862e-31
5.298734009e-31
5.314635038e-31
5.327235514e-31
5.328072337e-31
5.326157321e-31
5.345695963e-31
5.365428216e-31
5.367380701e-31
5.363767657e-31
5.359256004e-31
5.363030475e-31
5.404969173e-31
5.414008241e-31
5.410803234e-31
5.404847838e-31
5.397469387e-31
5.425383939e-31
5.441644209e-31
5.444089294e-31
5.467595155e-31
5.46941178e-31
5.475175946e-31
5.492260981e-31
5.4922989e-31
5.509648146e-31
5.519484894e-31
5.513775134e-31
5.541337277e-31
5.544417579e-31
5.547667132e-31
5.56809652e-31
5.567182636e-31
5.58239676e-31
5.596799304e-31
5.592309493e-31
5.622634003e-31
5.628635352e-31
5.6305527e-31
5.65747743e-31
5.662874043e-31
5.688556492e-31
5.725994843e-31
5.760721489e-31
5.868052965e-31
6.007289975e-31
6.233229871e-31
6.658808689e-31
7.414730545e-31
8.826120095e-31
1.13153031e-30
1.5471914e-30
2.175713847e-30
3.000760005e-30
4.146995336e-30
5.647555804e-30
7.372253928e-30
9.092248723e-30
1.077874516e-29
1.23610661e-29
1.361213751e-29
1.483383108e-29
1.624014287e-29
1.764561852e-29
1.88226951e-29
1.991631005e-29
2.083126534e-29
2.161296757e-29
2.26458561e-29
2.349587837e-29
2.4272173e-29
2.488198389e-29
2.538833417e-29
7.48891755e-31
7.312729062e-31
7.17708434e-31
6.943072043e-31
6.832812615e-31
6.676888408e-31
6.542004444e-31
6.403012427e-31
6.276104503e-31
6.202476357e-31
6.155104746e-31
6.105351742e-31
6.061235317e-31
6.039756105e-31
6.010581764e-31
5.983401485e-31
5.981784014e-31
5.973899243e-31
5.960686996e-31
5.948649111e-31
5.956247036e-31
5.960828984e-31
5.958033998e-31
5.954117719e-31
5.966905461e-31
5.975256089e-31
5.973268881e-31
5.970082838e-31
5.986389055e-31
5.999791638e-31
6.000498212e-31
5.997685915e-31
6.018242135e-31
6.03991958e-31
6.042558138e-31
6.039019433e-31
6.033759276e-31
6.037456782e-31
6.082068114e-31
6.093286972e-31
6.090745223e-31
6.083994998e-31
6.075946068e-31
6.105799463e-31
6.124091175e-31
6.127639195e-31
6.153296038e-31
6.156240601e-31
6.162927223e-31
6.182461067e-31
6.183161125e-31
6.202275307e-31
6.214510967e-31
6.210149987e-31
6.241172558e-31
6.248145454e-31
6.256070574e-31
6.284113067e-31
6.291922032e-31
6.320743771e-31
6.356118664e-31
6.379086736e-31
6.45598741e-31
6.529163889e-31
6.623674281e-31
6.801717074e-31
7.0906928e-31
7.623862091e-31
8.532494328e-31
1.024950085e-30
1.348948314e-30
1.904999546e-30
2.794609238e-30
4.378384184e-30
7.331790054e-30
1.285718449e-29
2.24483363e-29
3.867045305e-29
6.285994302e-29
9.40881898e-29
1.369711583e-28
1.93909566e-28
2.582347708e-28
3.26334255e-28
3.808055181e-28
4.366887655e-28
4.759510455e-28
5.12447155e-28
5.604737794e-28
6.11597527e-28
6.53590164e-28
6.891182693e-28
7.169663606e-28
7.360488015e-28
7.716871357e-28
8.011825498e-28
8.298148277e-28
8.462699161e-28
8.638492248e-28
7.986847977e-30
7.091494134e-30
6.681083789e-30
5.61853571e-30
5.012543881e-30
4.314534753e-30
3.672046637e-30
3.062642657e-30
2.469785402e-30
2.167819743e-30
1.931752232e-30
1.704099257e-30
1.46270394e-30
1.34507371e-30
1.21956849e-30
1.080224113e-30
1.012905644e-30
9.502302016e-31
8.899602246e-31
8.325704371e-31
7.989042992e-31
7.810295054e-31
7.620874884e-31
7.387028086e-31
7.234864506e-31
7.140021664e-31
7.050580581e-31
6.966499709e-31
6.929462219e-31
6.913001617e-31
6.882631921e-31
6.846254526e-31
6.839111969e-31
6.848106995e-31
6.846803602e-31
6.837686566e-31
6.820743037e-31
6.808495161e-31
6.847790387e-31
6.85879748e-31
6.859796667e-31
6.852343012e-31
6.841575398e-31
6.869217994e-31
6.890661068e-31
6.900601536e-31
6.935124307e-31
6.945747658e-31
6.962218137e-31
6.997006329e-31
7.015515928e-31
7.064175807e-31
7.123533458e-31
7.171495874e-31
7.286966543e-31
7.410093963e-31
7.589297546e-31
7.865040652e-31
8.217230784e-31
8.770788423e-31
9.640667282e-31
1.080472443e-30
1.275530788e-30
1.560786294e-30
1.95318987e-30
2.558183249e-30
3.776564829e-30
5.916568866e-30
1.000980826e-29
1.667418926e-29
2.987517365e-29
5.232204365e-29
8.72925564e-29
1.523539468e-28
2.647985895e-28
4.808173106e-28
8.471823286e-28
1.484897383e-27
2.435297836e-27
3.586079241e-27
5.266166843e-27
7.407162511e-27
9.843259447e-27
1.232110937e-26
1.446382829e-26
1.619561519e-26
1.74881232e-26
1.882384295e-26
2.055043624e-26
2.198673986e-26
2.334597893e-26
2.447303547e-26
2.536432549e-26
2.569702953e-26
2.705142993e-26
2.800269517e-26
2.897884243e-26
2.969292744e-26
3.011132718e-26
3.295686145e-28
2.877759355e-28
2.67559508e-28
2.196052317e-28
1.915796241e-28
1.618041387e-28
1.324374255e-28
1.072052261e-28
8.067707875e-29
6.787069241e-29
5.761571764e-29
4.754768635e-29
3.737402076e-29
3.157033056e-29
2.568244848e-29
1.948327093e-29
1.651482513e-29
1.410730168e-29
1.102401286e-29
8.442605975e-30
6.966649461e-30
6.098114597e-30
5.252673138e-30
4.219359095e-30
3.516507116e-30
3.023873922e-30
2.597752686e-30
2.243050741e-30
1.98473452e-30
1.850134414e-30
1.703520379e-30
1.542186103e-30
1.406861306e-30
1.365327615e-30
1.332714923e-30
1.316000194e-30
1.252089474e-30
1.18145876e-30
1.148895535e-30
1.150561245e-30
1.157848369e-30
1.149657107e-30
1.144826738e-30
1.133887023e-30
1.143332453e-30
1.161702867e-30
1.194475092e-30
1.223474086e-30
1.262427504e-30
1.327585955e-30
1.400415462e-30
1.536750771e-30
1.735729956e-30
1.967591343e-30
2.332236429e-30
2.844845444e-30
3.601862232e-30
4.649066292e-30
6.172117394e-30
8.423220558e-30
1.205147869e-29
1.694004309e-29
2.522223824e-29
3.692100203e-29
5.31391314e-29
8.062445881e-29
1.282472749e-28
2.194626296e-28
3.883844083e-28
6.596296958e-28
1.192391772e-27
2.108778757e-27
3.48602555e-27
6.053124164e-27
1.056302792e-26
1.872932738e-26
3.383683864e-26
5.823488088e-26
9.4909127e-26
1.381240388e-25
2.012752294e-25
2.809550418e-25
3.764747019e-25
4.611492238e-25
5.41780684e-25
6.04633365e-25
6.380152634e-25
6.910142336e-25
7.428176831e-25
7.884676907e-25
8.323402621e-25
8.69118954e-25
8.906156753e-25
9.306379742e-25
9.651726257e-25
9.952585581e-25
1.020482043e-24
1.039003665e-24
1.049059704e-24
1.473075108e-26
1.302996214e-26
1.175859332e-26
9.530304868e-27
8.386367843e-27
7.093433575e-27
5.805831732e-27
4.742769806e-27
3.501139206e-27
2.954621945e-27
2.533583505e-27
2.069151437e-27
1.641281631e-27
1.371307587e-27
1.10063643e-27
8.422890915e-28
6.993874556e-28
5.866261838e-28
4.570788567e-28
3.363997662e-28
2.768099045e-28
2.381709926e-28
1.998901557e-28
1.540904905e-28
1.242373418e-28
1.031178004e-28
8.3364277e-29
6.751923538e-29
5.626669721e-29
5.017037941e-29
4.363938958e-29
3.629064667e-29
3.083516522e-29
2.854744038e-29
2.695907131e-29
2.626909788e-29
2.351867559e-29
2.015486529e-29
1.881628811e-29
1.909058288e-29
1.904023989e-29
1.887192163e-29
1.851858191e-29
1.781525881e-29
1.830360085e-29
1.902652201e-29
2.023267759e-29
2.141795e-29
2.30123014e-29
2.591655413e-29
2.885052959e-29
3.465073691e-29
4.318366516e-29
5.289191018e-29
6.895470586e-29
9.049961583e-29
1.231306929e-28
1.71757671e-28
2.330052263e-28
3.262940894e-28
4.832953052e-28
6.821883892e-28
1.040471195e-27
1.539765142e-27
2.169065393e-27
3.31858034e-27
5.301727228e-27
9.112516304e-27
1.613069032e-26
2.713297257e-26
4.874035275e-26
8.584357685e-26
1.393935396e-25
2.419120453e-25
4.144433607e-25
7.413207926e-25
1.326864749e-24
2.258237689e-24
3.655340069e-24
5.421129768e-24
7.717836696e-24
1.08633981e-23
1.423282508e-23
1.762627454e-23
2.015552686e-23
2.229168621e-23
2.368995074e-23
2.504726198e-23
2.666668984e-23
2.804183898e-23
2.954823367e-23
3.086271477e-23
3.139393355e-23
3.266453137e-23
3.382958464e-23
3.492428254e-23
3.588250575e-23
3.641743543e-23
3.656024133e-23
6.467685942e-25
5.848612117e-25
5.171977622e-25
4.202177894e-25
3.701798657e-25
3.167080415e-25
2.563461066e-25
2.11898164e-25
1.546650628e-25
1.302356318e-25
1.113583534e-25
9.122698428e-26
7.323574222e-26
6.098464506e-26
4.843194478e-26
3.71626515e-26
3.071505842e-26
2.581960436e-26
2.005949106e-26
1.52199456e-26
1.22000574e-26
1.050613502e-26
8.761501721e-27
6.68459059e-27
5.472276333e-27
4.558349223e-27
3.66361036e-27
2.938646939e-27
2.438296153e-27
2.174323719e-27
1.899970423e-27
1.557619065e-27
1.311480388e-27
1.227361922e-27
1.164711532e-27
1.115537956e-27
1.001762251e-27
8.462701354e-28
7.920560675e-28
8.14095472e-28
8.239001629e-28
7.966236353e-28
7.928605736e-28
7.737683229e-28
7.796681384e-28
8.054048657e-28
8.530125949e-28
8.964548328e-28
9.755696321e-28
1.094151063e-27
1.207267172e-27
1.467619043e-27
1.851674213e-27
2.199231741e-27
2.942451641e-27
3.910570492e-27
5.202699977e-27
7.345288479e-27
9.881309392e-27
1.386687777e-26
2.060774683e-26
2.965450409e-26
4.460825253e-26
6.518567886e-26
9.148415328e-26
1.379290619e-25
2.245450078e-25
3.841080141e-25
6.661981348e-25
1.110496568e-24
2.017131363e-24
3.501338161e-24
5.529407019e-24
9.634533639e-24
1.674961186e-23
3.027294275e-23
5.212252205e-23
8.836816762e-23
1.432715719e-22
2.092238442e-22
3.020226167e-22
4.161543209e-22
5.371225867e-22
6.588923488e-22
7.346889498e-22
8.164843266e-22
8.648764027e-22
9.032196608e-22
9.559677473e-22
9.968364969e-22
1.04913416e-21
1.095721945e-21
1.12365433e-21
1.162762736e-21
1.19564915e-21
1.232924048e-21
1.260077479e-21
1.273710654e-21
1.269931557e-21
2.918605925e-23
2.573648765e-23
2.271551205e-23
1.928692072e-23
1.631556685e-23
1.399309732e-23
1.137542959e-23
9.367343378e-24
6.911974132e-24
5.78543009e-24
4.910150416e-24
4.040814687e-24
3.246680999e-24
2.710319608e-24
2.133377272e-24
1.643393593e-24
1.344516063e-24
1.158086957e-24
8.761195408e-25
6.762528014e-25
5.391139896e-25
4.652499287e-25
3.893598636e-25
2.980950976e-25
2.423781009e-25
2.005377115e-25
1.603037984e-25
1.310471835e-25
1.072100565e-25
9.580901982e-26
8.453862841e-26
6.897218398e-26
5.750497159e-26
5.448182013e-26
5.141344714e-26
4.904148509e-26
4.474207537e-26
3.737406898e-26
3.500801614e-26
3.631412114e-26
3.658111447e-26
3.561745147e-26
3.50876641e-26
3.410048999e-26
3.437947486e-26
3.532110169e-26
3.744113648e-26
3.896680318e-26
4.295194459e-26
4.75267528e-26
5.282052009e-26
6.376451008e-26
7.942985992e-26
9.784146625e-26
1.284228621e-25
1.691296519e-25
2.271416349e-25
3.17017303e-25
4.147545031e-25
5.930803347e-25
8.808920109e-25
1.254982521e-24
1.902488771e-24
2.789043891e-24
3.810128986e-24
5.751562383e-24
9.362874847e-24
1.601876478e-23
2.738624877e-23
4.500038317e-23
8.262320665e-23
1.451842926e-22
2.226968168e-22
3.899272567e-22
6.736040018e-22
1.200450829e-21
2.05770052e-21
3.477479194e-21
5.533772825e-21
7.968611001e-21
1.163551717e-20
1.592006199e-20
2.006124697e-20
2.457471977e-20
2.757469114e-20
2.995730973e-20
3.14762849e-20
3.214559245e-20
3.415957791e-20
3.561708058e-20
3.728582852e-20
3.89348409e-20
3.990640881e-20
4.102262631e-20
4.142839461e-20
4.284235097e-20
4.38420599e-20
4.431777079e-20
4.396407079e-20
1.276723238e-21
1.14440309e-21
1.011964482e-21
8.580190471e-22
7.244485044e-22
6.198162973e-22
5.115609981e-22
4.163717721e-22
3.069200456e-22
2.574459485e-22
2.18821979e-22
1.768805132e-22
1.420146895e-22
1.202502377e-22
9.400686217e-23
7.33779406e-23
5.900478958e-23
5.104398978e-23
3.846495884e-23
3.015514051e-23
2.393171586e-23
2.057851088e-23
1.710436539e-23
1.305364313e-23
1.068402774e-23
8.867591336e-24
7.164895005e-24
5.811864775e-24
4.716734908e-24
4.231287731e-24
3.742316984e-24
3.073578433e-24
2.524805966e-24
2.405963812e-24
2.293200502e-24
2.187783548e-24
1.976985248e-24
1.640038626e-24
1.555926822e-24
1.625968813e-24
1.626217306e-24
1.577369837e-24
1.544066542e-24
1.502441942e-24
1.514816213e-24
1.543107089e-24
1.645721384e-24
1.732107996e-24
1.88514114e-24
2.057213548e-24
2.306942402e-24
2.785061136e-24
3.525326004e-24
4.184771562e-24
5.529933934e-24
7.322845982e-24
9.969033485e-24
1.375721409e-23
1.836260984e-23
2.548003902e-23
3.743202774e-23
5.344568703e-23
8.064209358e-23
1.16314969e-22
1.591946735e-22
2.401003747e-22
3.892006969e-22
6.665039619e-22
1.158498995e-21
1.851398117e-21
3.388276667e-21
5.935316009e-21
9.20920775e-21
1.558479777e-20
2.674428316e-20
4.77261537e-20
8.122141178e-20
1.360089605e-19
2.119885255e-19
2.993418635e-19
4.453143203e-19
6.074878031e-19
7.762415476e-19
9.217400517e-19
1.033251586e-18
1.103012764e-18
1.14676654e-18
1.179535392e-18
1.222872362e-18
1.262679946e-18
1.318916977e-18
1.378470639e-18
1.414684053e-18
1.449634361e-18
1.465496061e-18
1.497937081e-18
1.523335151e-18
1.5348479e-18
1.529371276e-18
5.63629067e-20
5.049108154e-20
4.45299946e-20
3.78670572e-20
3.169088875e-20
2.755024086e-20
2.298865826e-20
1.85069724e-20
1.370646519e-20
1.146416829e-20
9.755683422e-21
7.762764035e-21
6.329442513e-21
5.334088902e-21
4.127106148e-21
3.280400658e-21
2.678375581e-21
2.321964975e-21
1.7188589e-21
1.340557481e-21
1.053298399e-21
9.175816067e-22
7.630356611e-22
5.78713579e-22
4.737373311e-22
3.97605403e-22
3.174003055e-22
2.57235762e-22
2.08320312e-22
1.855687406e-22
1.650496023e-22
1.357829611e-22
1.116043888e-22
1.061045089e-22
1.024746613e-22
9.688091951e-23
8.797799969e-23
7.34277637e-23
6.877914916e-23
7.267280262e-23
7.224266608e-23
6.902817034e-23
6.839482486e-23
6.607547311e-23
6.668725752e-23
6.693186228e-23
7.238873483e-23
7.623957177e-23
8.251533159e-23
8.974175146e-23
1.009257703e-22
1.212829196e-22
1.543992564e-22
1.822186751e-22
2.36985061e-22
3.196748953e-22
4.304401077e-22
5.960570172e-22
7.835071631e-22
1.103544742e-21
1.591186612e-21
2.257051927e-21
3.412496301e-21
5.064097016e-21
6.696560281e-21
1.004006794e-20
1.626651657e-20
2.763135535e-20
4.833760955e-20
7.421649735e-20
1.390076568e-19
2.407497526e-19
3.693697742e-19
6.307100079e-19
1.059286104e-18
1.898911211e-18
3.189536924e-18
5.374589273e-18
8.650507222e-18
1.151841116e-17
1.706657889e-17
2.315563376e-17
2.973666236e-17
3.429299347e-17
3.826643196e-17
4.017314543e-17
4.167243968e-17
4.246171279e-17
4.354046076e-17
4.458804622e-17
4.674303033e-17
4.869878008e-17
5.024648195e-17
5.107686655e-17
5.143636185e-17
5.242434385e-17
5.301472732e-17
5.286344982e-17
5.275584208e-17
2.555181466e-18
2.213441615e-18
1.954207877e-18
1.65927691e-18
1.442674369e-18
1.216331883e-18
1.024060563e-18
8.230467193e-19
6.111315948e-19
5.101416549e-19
4.324281611e-19
3.489300739e-19
2.804296147e-19
2.367112874e-19
1.829905744e-19
1.463122546e-19
1.180866506e-19
1.027861832e-19
7.914748752e-20
6.036472445e-20
4.64956242e-20
4.041563049e-20
3.387163158e-20
2.608827571e-20
2.11590583e-20
1.773100379e-20
1.398424952e-20
1.135188345e-20
9.302113123e-21
8.119975319e-21
7.40300665e-21
5.991503528e-21
5.026796723e-21
4.68455615e-21
4.508059694e-21
4.298885102e-21
3.902317641e-21
3.228721888e-21
3.081662245e-21
3.216885552e-21
3.209325401e-21
3.121336008e-21
3.011912503e-21
2.886664716e-21
2.929455335e-21
2.940147385e-21
3.190205709e-21
3.382258953e-21
3.612538051e-21
3.90022055e-21
4.440911032e-21
5.229572489e-21
6.788198628e-21
7.963583287e-21
1.021081713e-20
1.381877327e-20
1.868357072e-20
2.569605606e-20
3.319238343e-20
4.771284342e-20
6.863016138e-20
9.531560956e-20
1.436078532e-19
2.14276392e-19
2.79925623e-19
4.205480067e-19
6.766600689e-19
1.141577043e-18
2.019566025e-18
3.072397075e-18
5.672058884e-18
9.922960835e-18
1.487326579e-17
2.528761375e-17
4.242096705e-17
7.56025958e-17
1.248671267e-16
2.113808551e-16
3.409313767e-16
4.436805695e-16
6.580565915e-16
8.770161976e-16
1.13441935e-15
1.293891837e-15
1.420572697e-15
1.442972574e-15
1.50804431e-15
1.533055987e-15
1.548998585e-15
1.579474374e-15
1.660333057e-15
1.722691994e-15
1.774930445e-15
1.808653797e-15
1.767871905e-15
1.815601832e-15
1.831865794e-15
1.830090042e-15
1.80907498e-15
1.133761589e-16
1.020218628e-16
8.546085313e-17
7.308823404e-17
6.451358616e-17
5.376850918e-17
4.493451106e-17
3.671417016e-17
2.725452936e-17
2.256024804e-17
1.898506054e-17
1.552028552e-17
1.249749064e-17
1.05211774e-17
8.17058424e-18
6.504164529e-18
5.341670345e-18
4.509345641e-18
3.555859173e-18
2.672374573e-18
2.06798824e-18
1.768945893e-18
1.505860555e-18
1.161469814e-18
9.305401233e-19
7.860684299e-19
6.132312322e-19
4.985307359e-19
4.104273524e-19
3.561857671e-19
3.326642986e-19
2.64550207e-19
2.235108959e-19
2.086235635e-19
1.996760566e-19
1.908195839e-19
1.725452517e-19
1.414334286e-19
1.408795995e-19
1.456519386e-19
1.430163839e-19
1.381464849e-19
1.324700843e-19
1.232771836e-19
1.285403828e-19
1.250237841e-19
1.402345685e-19
1.4867407e-19
1.571778434e-19
1.725579632e-19
1.973384122e-19
2.32879479e-19
2.951793803e-19
3.468544554e-19
4.487379017e-19
5.961251685e-19
8.114969778e-19
1.141451192e-18
1.473931136e-18
2.058176791e-18
2.934154873e-18
4.012660592e-18
6.214745936e-18
9.040133875e-18
1.164319156e-17
1.766487989e-17
2.800747876e-17
4.702270711e-17
8.441275566e-17
1.271246741e-16
2.333825506e-16
4.11377198e-16
5.913584957e-16
1.022695699e-15
1.671472983e-15
2.995408551e-15
4.995279576e-15
8.189436345e-15
1.383163146e-14
1.697190295e-14
2.567757457e-14
3.395197813e-14
4.248998638e-14
4.883609841e-14
5.332413572e-14
5.2937468e-14
5.438221252e-14
5.575951269e-14
5.469164856e-14
5.677334441e-14
5.868028171e-14
6.067350872e-14
6.225994284e-14
6.353388502e-14
6.3654135e-14
6.399796712e-14
6.377746381e-14
6.311897602e-14
6.181106752e-14
5.032147232e-15
4.687935603e-15
3.826958963e-15
3.291056162e-15
2.866554453e-15
2.412929861e-15
1.928411008e-15
1.644547308e-15
1.2143358e-15
1.011549389e-15
8.633885565e-16
6.906388642e-16
5.518187804e-16
4.672862009e-16
3.602983645e-16
2.885070718e-16
2.374148612e-16
2.001325904e-16
1.591819629e-16
1.177995287e-16
9.250528579e-17
7.913145096e-17
6.695916965e-17
5.150578007e-17
4.178777811e-17
3.508369024e-17
2.689761879e-17
2.224169219e-17
1.796597841e-17
1.608669924e-17
1.47176343e-17
1.166879707e-17
9.904944142e-18
9.317229256e-18
8.856730911e-18
8.460223209e-18
7.659912841e-18
6.1731121e-18
6.312949296e-18
6.462203679e-18
6.42334158e-18
6.232348089e-18
5.826166889e-18
5.423359367e-18
5.649667227e-18
5.675591504e-18
6.16571996e-18
6.510186575e-18
7.032266517e-18
7.608063546e-18
8.678934799e-18
1.018178685e-17