/*--------------------------------*- C++ -*----------------------------------*\
| =========                 |                                                 |
| \\      /  F ield         | OpenFOAM: The Open Source CFD Toolbox           |
|  \\    /   O peration     | Version:  v1706                                 |
|   \\  /    A nd           | Web:      www.OpenFOAM.com                      |
|    \\/     M anipulation  |                                                 |
\*---------------------------------------------------------------------------*/
FoamFile
{
    version     2.0;
    format      ascii;
    class       volScalarField;
    location    "0.00272";
    object      X_O2+;
}
// * * * * * * * * * * * * * * * * * * * * * * * * * * * * * * * * * * * * * //

dimensions      [0 0 0 0 0 0 0];


internalField   nonuniform List<scalar> 
11682
(
2.214114255e-59
1.580125169e-59
1.721407786e-59
1.55924676e-59
1.344340944e-59
1.011143709e-59
9.162699834e-60
7.576856054e-60
3.94149492e-60
3.268069335e-60
2.871541377e-60
2.501365883e-60
1.675240068e-60
1.432292327e-60
1.10204145e-60
7.530009406e-61
4.989376656e-61
5.284219209e-61
3.818071753e-61
2.635899493e-61
1.808536391e-61
1.246469214e-61
1.110773457e-61
5.996138663e-62
6.067172081e-62
4.434783426e-62
3.310506801e-62
2.619141326e-62
2.096246673e-62
1.805583445e-62
1.437571985e-62
1.162363617e-62
1.001636994e-62
7.923437787e-63
7.314576716e-63
8.184050522e-63
9.637469831e-63
1.288133993e-62
1.90634921e-62
2.248334753e-62
2.56430702e-62
2.762276328e-62
2.369039744e-62
1.415913512e-62
1.22235115e-62
6.230245421e-63
6.759380483e-63
7.098476032e-63
7.509789243e-63
8.505842396e-63
8.50192392e-63
1.050345432e-62
1.375423725e-62
2.138720079e-62
2.934474949e-62
4.417122152e-62
6.434585679e-62
7.918048639e-62
1.508620966e-61
2.368779193e-61
3.108096781e-61
6.123331933e-61
1.01947687e-60
1.161866438e-60
2.853683687e-60
5.358686096e-60
1.062074001e-59
1.805645124e-59
4.575498122e-59
1.106157999e-58
2.126678243e-58
5.025592179e-58
1.066134159e-57
2.14543877e-57
4.448064792e-57
1.064807073e-56
2.262984436e-56
4.334125172e-56
8.301949841e-56
1.294550326e-55
2.169592659e-55
3.023112579e-55
4.841953317e-55
6.574404765e-55
7.9361637e-55
9.11559665e-55
1.138625706e-54
1.309129457e-54
1.456312879e-54
1.597034593e-54
1.624948176e-54
1.882478742e-54
2.03810534e-54
2.15243047e-54
2.277882419e-54
2.389378563e-54
2.489328156e-54
2.582647719e-54
2.639758994e-54
3.123120452e-57
2.522463064e-57
2.696210036e-57
2.349239788e-57
2.077660336e-57
1.668377801e-57
1.340097754e-57
1.163419965e-57
6.245137174e-58
4.786558777e-58
4.234379103e-58
3.691370034e-58
2.566234271e-58
2.017860258e-58
1.585167955e-58
1.082837116e-58
8.560325265e-59
8.060335383e-59
5.599917073e-59
3.829920853e-59
2.645117859e-59
1.959969893e-59
1.622528736e-59
1.196452393e-59
8.755315504e-60
6.632482166e-60
4.888143144e-60
3.811241502e-60
3.076898155e-60
2.671945267e-60
2.169539098e-60
1.880044695e-60
1.500416858e-60
1.163762011e-60
1.043794849e-60
1.200396025e-60
1.291698149e-60
1.564382281e-60
2.328765765e-60
2.904113185e-60
3.311116851e-60
3.561159574e-60
3.126336774e-60
2.344558752e-60
1.717926081e-60
1.249217963e-60
1.046482319e-60
1.043851331e-60
1.086503705e-60
1.241339804e-60
1.351663678e-60
1.624922256e-60
2.074818976e-60
3.111657244e-60
4.451443653e-60
6.351810996e-60
9.188931268e-60
1.360292239e-59
2.17053264e-59
3.418406786e-59
5.883625736e-59
8.960004649e-59
1.456360863e-58
2.427988665e-58
3.958664661e-58
7.403206355e-58
1.471081895e-57
3.101019166e-57
6.575678766e-57
1.516765135e-56
3.365346671e-56
6.829213325e-56
1.456315251e-55
2.829663952e-55
5.939000523e-55
1.383253477e-54
3.102884017e-54
5.930359553e-54
1.088797233e-53
1.742660899e-53
2.683522456e-53
4.257975085e-53
6.093435478e-53
8.141157624e-53
1.028359678e-52
1.207520723e-52
1.401977027e-52
1.57582006e-52
1.677671933e-52
1.94410244e-52
2.103279094e-52
2.25861172e-52
2.404022553e-52
2.523128875e-52
2.662740796e-52
2.770832547e-52
2.874371375e-52
2.982135656e-52
3.055702895e-52
4.892980897e-55
3.599101956e-55
3.864200906e-55
3.474271183e-55
3.187741251e-55
2.413554825e-55
1.922395052e-55
1.717310743e-55
9.167789283e-56
6.969577715e-56
6.146238997e-56
5.294023795e-56
3.60284765e-56
2.81570954e-56
2.312142575e-56
1.549775686e-56
1.282063117e-56
1.209676163e-56
8.090981704e-57
5.483358901e-57
3.761163852e-57
2.894315914e-57
2.374444949e-57
1.72452417e-57
1.35174354e-57
9.368040477e-58
7.168564993e-58
5.998567842e-58
4.618351676e-58
3.926159476e-58
3.121629068e-58
2.793555613e-58
2.209245616e-58
1.698097706e-58
1.614123835e-58
1.684116847e-58
1.768542754e-58
2.097550069e-58
2.730993631e-58
3.521101978e-58
3.988076662e-58
4.313238879e-58
3.998970584e-58
2.983796822e-58
2.276222804e-58
1.800053311e-58
1.499256352e-58
1.512538335e-58
1.544547531e-58
1.77648117e-58
1.928725592e-58
2.277192383e-58
3.060503101e-58
4.46489865e-58
6.354022736e-58
8.735354823e-58
1.305667373e-57
1.848828575e-57
3.058725109e-57
4.959993538e-57
8.339396801e-57
1.322086001e-56
2.153316759e-56
3.321531889e-56
5.199547852e-56
1.017241223e-55
1.994414126e-55
4.281866743e-55
8.92135187e-55
2.047054459e-54
4.553091068e-54
9.124308846e-54
1.962115736e-53
3.742856231e-53
7.797641049e-53
1.847080525e-52
4.01984235e-52
7.566891751e-52
1.397414583e-51
2.153557448e-51
3.56022777e-51
5.519889174e-51
7.533685555e-51
1.003719703e-50
1.2454507e-50
1.440420497e-50
1.673474019e-50
1.842851408e-50
1.993025236e-50
2.255344526e-50
2.376717198e-50
2.56970744e-50
2.779164788e-50
2.926172953e-50
3.082206948e-50
3.100668977e-50
3.248647416e-50
3.356636893e-50
3.455561691e-50
7.191940279e-53
5.436966858e-53
5.805349063e-53
5.126942432e-53
4.846169864e-53
3.755701935e-53
2.739971699e-53
2.537570303e-53
1.334049801e-53
1.018197403e-53
9.062386843e-54
7.4562418e-54
5.304198607e-54
4.458222845e-54
3.291821478e-54
2.422787506e-54
2.06769796e-54
1.805630179e-54
1.178154566e-54
7.880605154e-55
5.283570736e-55
4.329345527e-55
3.576061286e-55
2.440561029e-55
1.944820539e-55
1.471848882e-55
1.069449499e-55
8.615469803e-56
6.727032825e-56
5.941396958e-56
4.862288715e-56
4.2174262e-56
3.271986996e-56
2.59126612e-56
2.486635474e-56
2.479775128e-56
2.400210746e-56
2.713639936e-56
2.963435215e-56
4.146669541e-56
5.028909163e-56
6.075799703e-56
5.098413687e-56
4.04898197e-56
2.997772414e-56
2.488329292e-56
2.133505391e-56
2.199781884e-56
2.195518397e-56
2.472030513e-56
2.722331881e-56
3.278765668e-56
4.445287093e-56
6.39016609e-56
9.004066071e-56
1.265822772e-55
1.883220002e-55
2.369144913e-55
4.287125345e-55
7.059514015e-55
1.182705436e-54
1.872810511e-54
2.990224643e-54
4.511549311e-54
6.747840678e-54
1.367022135e-53
2.657464008e-53
5.847939158e-53
1.263520952e-52
2.737821629e-52
6.205208256e-52
1.256682265e-51
2.622541542e-51
4.862930311e-51
9.922655537e-51
2.433140169e-50
5.192033362e-50
9.725044083e-50
1.781582194e-49
2.665400512e-49
4.529686038e-49
6.930378246e-49
9.16991514e-49
1.215531027e-48
1.491250942e-48
1.65737181e-48
1.997623704e-48
2.139059489e-48
2.353268758e-48
2.534606017e-48
2.852857564e-48
3.03246992e-48
3.217525315e-48
3.362627651e-48
3.513626603e-48
3.645115081e-48
3.736330254e-48
3.812665177e-48
3.893446789e-48
1.03115087e-50
8.085129981e-51
8.766126013e-51
7.848854562e-51
6.744520167e-51
5.708416979e-51
3.930782447e-51
3.749053495e-51
2.084789547e-51
1.463946969e-51
1.38900906e-51
1.067321366e-51
7.201282972e-52
6.444533532e-52
4.93514802e-52
3.532163013e-52
2.885465845e-52
2.648471436e-52
1.743007553e-52
1.140781039e-52
7.779006185e-53
6.532993301e-53
5.44673997e-53
3.654248977e-53
2.764856745e-53
2.119399979e-53
1.599871096e-53
1.227474294e-53
9.921835946e-54
8.762278397e-54
7.304556494e-54
6.306115457e-54
4.787848226e-54
3.739262512e-54
3.665879187e-54
3.588592834e-54
3.465520837e-54
3.481630469e-54
4.041582584e-54
4.870985924e-54
6.101305133e-54
7.592888951e-54
7.001566159e-54
5.524199002e-54
4.169324273e-54
3.40171968e-54
3.064822201e-54
3.19321436e-54
3.119793479e-54
3.583574014e-54
3.836379417e-54
4.883505908e-54
6.542271694e-54
9.007559798e-54
1.274513952e-53
1.792247251e-53
2.704667228e-53
3.951774221e-53
5.969500993e-53
1.001847541e-52
1.676676321e-52
2.579594987e-52
4.176200309e-52
6.002044331e-52
1.008125283e-51
1.856158261e-51
3.542880363e-51
7.907714921e-51
1.701263494e-50
3.718675258e-50
8.447075362e-50
1.786634873e-49
3.522377042e-49
6.312823952e-49
1.365392519e-48
3.181365061e-48
6.688135125e-48
1.220554896e-47
2.260723068e-47
3.665991973e-47
5.765098305e-47
8.72533489e-47
1.123008716e-46
1.479872161e-46
1.748819209e-46
1.987910932e-46
2.374197607e-46
2.504753657e-46
2.851573793e-46
3.078646336e-46
3.295097465e-46
3.489417265e-46
3.708549844e-46
3.883372639e-46
3.888338075e-46
4.13418753e-46
4.200935406e-46
4.285017578e-46
4.384290584e-46
1.557307391e-48
1.224374542e-48
1.395412371e-48
1.124557366e-48
1.120604922e-48
8.590165693e-49
6.009670904e-49
5.507899096e-49
3.029384753e-49
2.062399744e-49
2.069451492e-49
1.652055265e-49
1.118322974e-49
9.481687082e-50
7.160529661e-50
5.071237438e-50
4.451720819e-50
3.854262013e-50
2.584122604e-50
1.658104475e-50
1.152437014e-50
9.73500397e-51
8.042013679e-51
5.363486105e-51
4.047324413e-51
3.079579077e-51
2.368755836e-51
1.760942547e-51
1.472951331e-51
1.280619472e-51
1.08994975e-51
9.260509709e-52
7.226199214e-52
5.569719953e-52
5.389352714e-52
5.198206729e-52
4.874233047e-52
4.643572954e-52
4.930240073e-52
5.758800061e-52
7.355066142e-52
9.422959488e-52
9.19396404e-52
7.543328011e-52
5.551403186e-52
4.547981322e-52
4.552140297e-52
4.663906813e-52
4.45270748e-52
5.057851603e-52
5.348354216e-52
7.104955135e-52
9.840294223e-52
1.327421728e-51
1.969227464e-51
2.490981114e-51
3.928174758e-51
5.675970159e-51
8.594155818e-51
1.410526547e-50
2.366980067e-50
3.85985508e-50
6.019919241e-50
8.486706311e-50
1.385534539e-49
2.529657142e-49
5.123967431e-49
1.072163467e-48
2.191001662e-48
4.92978625e-48
1.126591883e-47
2.403000879e-47
4.701943895e-47
8.668151363e-47
1.760819012e-46
4.148268622e-46
8.609879309e-46
1.596001072e-45
2.923001097e-45
4.488603592e-45
7.24430447e-45
1.093905783e-44
1.425815104e-44
1.810132039e-44
2.171729161e-44
2.474790523e-44
2.845501054e-44
3.014259072e-44
3.325019073e-44
3.553712724e-44
3.847945321e-44
4.016359049e-44
4.24932757e-44
4.408278398e-44
4.59492605e-44
4.685722482e-44
4.674531651e-44
4.770081301e-44
4.944291684e-44
2.429295331e-46
1.855806424e-46
2.056160989e-46
1.7944433e-46
1.729568693e-46
1.260379463e-46
9.072245548e-47
8.045229485e-47
4.465196153e-47
3.152052201e-47
3.060204031e-47
2.396361084e-47
1.621542222e-47
1.416186062e-47
1.017832067e-47
7.439419007e-48
6.439237715e-48
5.933255e-48
3.772228442e-48
2.395568065e-48
1.71106981e-48
1.430643852e-48
1.189660876e-48
7.831385051e-49
5.82923214e-49
4.536391984e-49
3.472435135e-49
2.565521754e-49
2.21812758e-49
1.941712099e-49
1.620251918e-49
1.356385977e-49
1.028245508e-49
8.085201394e-50
7.943347549e-50
7.480481409e-50
6.755532437e-50
6.100843389e-50
6.202777529e-50
7.283444902e-50
9.082308278e-50
1.119578249e-49
1.162695794e-49
9.786834037e-50
7.405777049e-50
6.541682251e-50
6.680588427e-50
6.830268967e-50
6.56138167e-50
7.317873649e-50
8.163661799e-50
1.002891783e-49
1.44167857e-49
1.904255485e-49
2.819534235e-49
3.962999902e-49
5.817219658e-49
8.331075205e-49
1.204569121e-48
1.96850638e-48
3.345980398e-48
5.43228915e-48
8.959483527e-48
1.276527302e-47
1.935861145e-47
3.498644593e-47
7.06184871e-47
1.441158436e-46
2.979280385e-46
6.73469711e-46
1.491363285e-45
3.168657874e-45
6.256651463e-45
1.16859301e-44
2.159080885e-44
5.369874372e-44
1.104527879e-43
2.067445259e-43
3.730542921e-43
5.920598954e-43
9.10545851e-43
1.356284008e-42
1.848293613e-42
2.230779908e-42
2.630552292e-42
3.062959241e-42
3.362898928e-42
3.625028469e-42
3.942684305e-42
4.088164972e-42
4.466155435e-42
4.6957404e-42
4.861659439e-42
4.825332813e-42
5.213152557e-42
5.297511651e-42
5.496460945e-42
5.637836868e-42
5.710824048e-42
3.660381969e-44
2.960503287e-44
3.120775551e-44
2.67647421e-44
2.553545991e-44
1.841923457e-44
1.483629455e-44
1.173311992e-44
6.562201943e-45
4.633836704e-45
4.471909431e-45
3.729014079e-45
2.420351553e-45
2.138506446e-45
1.602258737e-45
1.090974036e-45
1.022149458e-45
8.705319178e-46
5.515175557e-46
3.442100117e-46
2.457563173e-46
2.182128614e-46
1.746320672e-46
1.159406298e-46
8.448035605e-47
6.776689376e-47
5.101537495e-47
3.705436594e-47
3.232023239e-47
2.861873787e-47
2.395905469e-47
1.979441539e-47
1.542388818e-47
1.25454725e-47
1.179536226e-47
1.093873421e-47
9.939543371e-48
8.164520083e-48
8.885595742e-48
9.906264893e-48
1.211610363e-47
1.540389577e-47
1.540040926e-47
1.254378102e-47
1.004459227e-47
9.418534432e-48
9.829754184e-48
9.920403033e-48
1.014929538e-47
1.038461032e-47
1.173657357e-47
1.542072638e-47
2.104362879e-47
2.764502859e-47
4.026722536e-47
5.652246922e-47
8.167051527e-47
1.216865629e-46
1.741160889e-46
2.761222989e-46
4.742700658e-46
7.620196259e-46
1.293476689e-45
1.886028058e-45
2.744454128e-45
4.874392935e-45
9.790864894e-45
2.018412053e-44
3.994717009e-44
8.917583504e-44
1.962378305e-43
4.111835907e-43
8.33753522e-43
1.532660458e-42
3.213175291e-42
6.956272339e-42
1.408885836e-41
2.691733289e-41
4.754653629e-41
7.406295707e-41
1.128167805e-40
1.672327593e-40
2.275542557e-40
2.737536019e-40
3.198395185e-40
3.652028494e-40
3.926488847e-40
4.169898632e-40
4.565713964e-40
4.898676731e-40
5.157160418e-40
5.389405542e-40
5.504877736e-40
5.551487248e-40
5.839814382e-40
6.048338411e-40
6.240226675e-40
6.344048974e-40
6.431290227e-40
5.600409465e-42
4.368540765e-42
4.604748287e-42
3.88743585e-42
3.671639383e-42
2.713277703e-42
2.183258809e-42
1.695719801e-42
9.686395076e-43
7.058714945e-43
6.525521153e-43
5.817274388e-43
3.653059503e-43
3.237450408e-43
2.425520112e-43
1.57568612e-43
1.516396429e-43
1.256662617e-43
8.0445944e-44
4.968194775e-44
3.560692258e-44
3.252709358e-44
2.495974423e-44
1.772208731e-44
1.205657405e-44
9.971327492e-45
7.524506781e-45
5.343505142e-45
4.734959395e-45
4.252050786e-45
3.554259664e-45
2.860780317e-45
2.235777601e-45
1.841483237e-45
1.690410053e-45
1.686889878e-45
1.514212003e-45
1.22090448e-45
1.253082477e-45
1.41545985e-45
1.785894809e-45
2.05731415e-45
2.013984465e-45
1.655118517e-45
1.36979167e-45
1.331275057e-45
1.412710378e-45
1.432281988e-45
1.473253134e-45
1.592827728e-45
1.709626137e-45
2.239123657e-45
3.064098342e-45
4.012468852e-45
5.774469324e-45
7.762066061e-45
1.120121161e-44
1.697648716e-44
2.436240545e-44
3.982522773e-44
6.723348616e-44
1.07510424e-43
1.825562767e-43
2.71755019e-43
3.87440471e-43
6.561768815e-43
1.352667304e-42
2.781007244e-42
5.118447123e-42
1.178181599e-41
2.607131019e-41
5.633427374e-41
1.10314276e-40
1.998697679e-40
4.102559017e-40
8.885804619e-40
1.777234948e-39
3.431840219e-39
6.039754266e-39
9.262628705e-39
1.390832215e-38
2.071289956e-38
2.812363516e-38
3.553126791e-38
3.866406101e-38
4.386019636e-38
4.586485775e-38
4.690182169e-38
5.111424524e-38
5.661454989e-38
5.997940255e-38
6.214355308e-38
6.25759191e-38
6.103491273e-38
6.470016185e-38
6.741489391e-38
7.032006494e-38
7.050541433e-38
7.193617255e-38
8.441168231e-40
6.216833965e-40
7.306622914e-40
6.165889312e-40
5.444051059e-40
4.026170314e-40
3.099454441e-40
2.441657768e-40
1.40301478e-40
1.094742314e-40
9.634184111e-41
8.731730591e-41
5.676272285e-41
4.869534326e-41
3.78040504e-41
2.265437386e-41
2.249459827e-41
1.746689438e-41
1.164946125e-41
7.269649811e-42
5.342489703e-42
4.775347261e-42
3.872000578e-42
2.670865543e-42
1.843919144e-42
1.434299143e-42
1.112831933e-42
8.343025929e-43
6.954491353e-43
6.352576408e-43
5.293774615e-43
4.250389785e-43
3.229123844e-43
2.689170452e-43
2.547093842e-43
2.470784811e-43
2.180644911e-43
1.755006043e-43
1.810184404e-43
2.223400738e-43
2.631929468e-43
2.811481564e-43
2.695639191e-43
2.195745841e-43
1.888166634e-43
1.896446648e-43
2.029307558e-43
2.064872403e-43
2.155040285e-43
2.259638349e-43
2.424403704e-43
3.137922006e-43
4.450628089e-43
5.865374053e-43
8.425170859e-43
1.140078842e-42
1.623647599e-42
2.333695112e-42
3.41347225e-42
5.563382744e-42
9.450542887e-42
1.51247151e-41
2.533243424e-41
3.807239238e-41
5.377956544e-41
8.531485878e-41
1.843295303e-40
3.775098981e-40
8.099815637e-40
1.593408148e-39
3.577627029e-39
7.628014892e-39
1.453661174e-38
2.738871661e-38
5.181683622e-38
1.122343562e-37
2.179921354e-37
4.337875986e-37
7.716735744e-37
1.151825699e-36
1.779012286e-36
2.621713112e-36
3.583593579e-36
4.416314419e-36
5.024136534e-36
5.359523243e-36
5.52712471e-36
5.748305405e-36
6.317405162e-36
6.65503842e-36
6.965993585e-36
7.140694873e-36
7.153956332e-36
6.683299382e-36
7.268170374e-36
7.557010399e-36
7.88763516e-36
8.091432302e-36
8.129844852e-36
1.314315235e-37
9.462265696e-38
1.08372616e-37
9.009998716e-38
7.74216437e-38
5.829735544e-38
4.357506109e-38
3.590659354e-38
2.03067717e-38
1.624344617e-38
1.450205099e-38
1.320117381e-38
9.109599437e-39
7.416024375e-39
5.546765221e-39
3.292911635e-39
3.329207174e-39
2.858675751e-39
1.699681772e-39
1.043576392e-39
7.993380631e-40
6.990428134e-40
5.67965136e-40
3.958191923e-40
2.902044698e-40
2.203762369e-40
1.64072372e-40
1.272310919e-40
1.021400679e-40
9.461388239e-41
7.806008213e-41
6.072051284e-41
4.42411116e-41
4.11550427e-41
3.697309418e-41
3.750096671e-41
3.064437996e-41
2.489875367e-41
2.606930762e-41
3.726304146e-41
3.909580918e-41
3.776523097e-41
3.686968001e-41
3.06264097e-41
2.750310497e-41
2.7102927e-41
2.913236674e-41
2.969777446e-41
3.080882718e-41
3.246439917e-41
3.460017821e-41
4.64197977e-41
6.41967367e-41
8.542458868e-41
1.209342461e-40
1.652571003e-40
2.358011501e-40
3.242705018e-40
4.842777494e-40
7.765837892e-40
1.327826041e-39
2.09380665e-39
3.63265977e-39
5.304182554e-39
7.344969159e-39
1.317728189e-38
2.515407102e-38
5.382180515e-38
1.129626787e-37
2.181191096e-37
4.756754316e-37
1.027231964e-36
1.901373785e-36
3.557131698e-36
6.83625502e-36
1.39341687e-35
2.932331989e-35
5.576517733e-35
9.78845996e-35
1.440736267e-34
2.190686201e-34
3.212670298e-34
4.547912943e-34
5.325773663e-34
6.19526178e-34
6.664302602e-34
6.495839903e-34
7.02709487e-34
7.451796043e-34
7.731971853e-34
8.036747034e-34
8.199281958e-34
7.960631487e-34
8.358698676e-34
8.679666786e-34
8.933814925e-34
9.121797681e-34
9.212467957e-34
9.175812192e-34
2.035254549e-35
1.535836498e-35
1.581536715e-35
1.258732012e-35
1.114151862e-35
8.479734589e-36
6.345648572e-36
5.432337453e-36
2.888365272e-36
2.347155761e-36
2.18702125e-36
1.936153126e-36
1.397866169e-36
1.108652184e-36
8.066258581e-37
5.083499659e-37
4.918064021e-37
4.057343695e-37
2.502491833e-37
1.444523718e-37
1.17399597e-37
1.022248245e-37
8.173256984e-38
5.685648258e-38
4.291419522e-38
3.3412551e-38
2.414295538e-38
1.859797212e-38
1.511506084e-38
1.389798376e-38
1.142268765e-38
8.736425505e-39
6.798660379e-39
6.059104981e-39
5.338205368e-39
5.450433321e-39
4.489918197e-39
3.544175727e-39
4.110704982e-39
6.633624316e-39
5.928077912e-39
5.544435759e-39
5.105024096e-39
4.165981829e-39
3.943401349e-39
3.926532884e-39
4.197035039e-39
4.274150744e-39
4.415682856e-39
4.748151922e-39
4.939422223e-39
6.641104272e-39
9.138724238e-39
1.198405589e-38
1.743844604e-38
2.333953496e-38
3.339586378e-38
4.968934638e-38
6.837587595e-38
1.07747722e-37
1.882496591e-37
2.845189401e-37
5.148487368e-37
7.518516676e-37
9.729784346e-37
1.793559331e-36
3.456693291e-36
7.440772997e-36
1.564408054e-35
2.955494384e-35
6.342184734e-35
1.370818336e-34
2.450220039e-34
4.606809949e-34
8.440324114e-34
1.770992319e-33
3.753853995e-33
6.890255885e-33
1.19071357e-32
1.897788e-32
2.74165624e-32
4.171985773e-32
5.597414626e-32
6.8952455e-32
7.47011744e-32
7.974881374e-32
8.106125199e-32
8.254851993e-32
8.599958659e-32
8.766172744e-32
9.135165511e-32
9.421206002e-32
8.981733031e-32
9.370226424e-32
9.741587414e-32
1.013922092e-31
1.05013285e-31
1.056311467e-31
1.038773018e-31
2.929571633e-33
2.393201681e-33
2.290177973e-33
1.834077027e-33
1.626753893e-33
1.292798113e-33
9.280864266e-34
8.292431335e-34
4.223269004e-34
3.413997525e-34
3.149696287e-34
2.819981353e-34
2.12011284e-34
1.663331326e-34
1.167588167e-34
7.423298933e-35
7.098654217e-35
5.883846795e-35
3.584990342e-35
2.312856493e-35
1.718493785e-35
1.500803634e-35
1.174298451e-35
7.961163587e-36
6.353871945e-36
5.024802472e-36
3.591977401e-36
2.703020924e-36
2.179981771e-36
2.010974208e-36
1.69398395e-36
1.252421777e-36
9.594276185e-37
8.894172918e-37
8.000536583e-37
7.724796878e-37
6.552908111e-37
5.124650858e-37
6.552275226e-37
1.221820964e-36
1.017304292e-36
8.064436549e-37
7.560111353e-37
6.516336972e-37
5.831476039e-37
5.751035207e-37
6.07646094e-37
6.037254499e-37
6.505782602e-37
6.783706598e-37
6.808459397e-37
9.444443074e-37
1.333466942e-36
1.564498249e-36
2.47262034e-36
3.41926795e-36
4.526531517e-36
6.997689137e-36
9.361658716e-36
1.502158288e-35
2.646185072e-35
4.339884781e-35
7.496625749e-35
1.055826183e-34
1.36292267e-34
2.438212536e-34
5.060882366e-34
1.06701851e-33
2.103557382e-33
3.92769403e-33
8.787917095e-33
1.832356263e-32
3.07511978e-32
5.863474328e-32
1.149260885e-31
2.535783043e-31
4.798252459e-31
8.758979401e-31
1.535381474e-30
2.373376908e-30
3.662670574e-30
5.255505366e-30
6.80879591e-30
8.283957511e-30
8.410840619e-30
9.338446792e-30
9.597079241e-30
9.548381616e-30
9.899315108e-30
9.950519435e-30
1.039301849e-29
1.082542156e-29
1.070242534e-29
1.104551197e-29
1.12933158e-29
1.177906699e-29
1.206542182e-29
1.206226934e-29
1.167370701e-29
4.639604905e-31
3.471394653e-31
3.295898711e-31
3.085301217e-31
2.358940514e-31
1.899003308e-31
1.382014711e-31
1.217206196e-31
6.417349854e-32
5.091323532e-32
4.575082499e-32
4.160171459e-32
3.132411144e-32
2.480378715e-32
1.688324717e-32
1.087350135e-32
1.006638684e-32
9.041874517e-33
5.01576013e-33
3.449829836e-33
2.509609667e-33
2.205573012e-33
1.742472775e-33
1.203312053e-33
9.366625065e-34
7.229757289e-34
5.091588279e-34
4.104816864e-34
3.147889948e-34
2.917864113e-34
2.541788263e-34
1.861201043e-34
1.375157217e-34
1.324339689e-34
1.166122238e-34
1.110558897e-34
1.0054905e-34
7.816392134e-35
1.124536638e-34
2.448825556e-34
1.726454858e-34
1.26242907e-34
1.099769601e-34
9.298671071e-35
8.419199679e-35
8.266473789e-35
8.831355976e-35
8.537702909e-35
9.686493985e-35
9.599862712e-35
9.919696571e-35
1.353111127e-34
1.82308064e-34
2.452938409e-34
3.635248884e-34
4.876970466e-34
6.710515495e-34
1.000975713e-33
1.213309233e-33
2.122491245e-33
3.718190343e-33
6.022653198e-33
1.065152945e-32
1.528549378e-32
1.822600068e-32
3.342337052e-32
7.010882125e-32
1.478053258e-31
2.769983641e-31
5.053423107e-31
1.172058168e-30
2.580823621e-30
4.081268634e-30
7.833169937e-30
1.531174911e-29
3.293996484e-29
6.249004362e-29
1.122464147e-28
1.865943074e-28
2.87321714e-28
4.638877091e-28
6.587391782e-28
7.971988132e-28
9.917155371e-28
1.041893732e-27
1.101875304e-27
1.126246304e-27
1.057448435e-27
1.129423154e-27
1.145199869e-27
1.195772555e-27
1.251343822e-27
1.244755118e-27
1.265024205e-27
1.224334258e-27
1.29949788e-27
1.346756505e-27
1.356047371e-27
1.299543118e-27
6.591042168e-29
5.206288511e-29
4.970048981e-29
4.637300916e-29
3.503270446e-29
2.808723058e-29
2.155279379e-29
1.817929969e-29
9.533450827e-30
7.631110924e-30
6.889068605e-30
5.888725948e-30
4.413322647e-30
3.675170237e-30
2.437225405e-30
1.644703321e-30
1.435958331e-30
1.306879193e-30
7.104494405e-31
5.196774102e-31
3.715792174e-31
3.22135974e-31
2.482442974e-31
1.704315822e-31
1.353688427e-31
1.055016007e-31
7.74194687e-32
6.103056991e-32
4.541317538e-32
4.25453734e-32
3.73466219e-32
2.817563112e-32
1.971310424e-32
1.928463815e-32
1.754289451e-32
1.673528166e-32
1.48019868e-32
1.181538037e-32
2.066386356e-32
5.256913504e-32
3.088505264e-32
1.948023704e-32
1.578776646e-32
1.32976398e-32
1.213960145e-32
1.171752957e-32
1.285598171e-32
1.299219079e-32
1.420893894e-32
1.335606573e-32
1.432720925e-32
1.968175246e-32
2.78981535e-32
3.351276459e-32
5.090493558e-32
6.994319483e-32
1.009268258e-31
1.46520896e-31
1.885724732e-31
3.033589569e-31
5.111752086e-31
8.468553161e-31
1.489270344e-30
2.015926471e-30
2.44957377e-30
4.588585094e-30
9.598321318e-30
2.025448874e-29
4.017693467e-29
6.877310013e-29
1.563551306e-28
3.441295345e-28
5.995254641e-28
9.982504078e-28
1.953159962e-27
4.315402543e-27
8.069256909e-27
1.427193222e-26
2.191719066e-26
3.30615683e-26
5.730106904e-26
8.184471045e-26
1.052456982e-25
1.200058982e-25
1.299875602e-25
1.322093933e-25
1.332442618e-25
1.304376375e-25
1.301375949e-25
1.2914947e-25
1.35296876e-25
1.429090335e-25
1.438848657e-25
1.459198304e-25
1.42719664e-25
1.464603789e-25
1.499123097e-25
1.504274401e-25
1.475351515e-25
9.574704643e-27
7.585661407e-27
7.185628956e-27
6.758523241e-27
4.940016164e-27
4.195147353e-27
3.348285836e-27
2.71101918e-27
1.442411687e-27
1.145150276e-27
1.038258681e-27
8.388764568e-28
6.611818556e-28
5.42598834e-28
3.474688379e-28
2.492563754e-28
2.308182958e-28
2.105075322e-28
1.067840001e-28
7.740328126e-29
5.329916486e-29
4.828286957e-29
3.721072819e-29
2.519100823e-29
1.994503663e-29
1.613984959e-29
1.142094361e-29
8.998425524e-30
6.629577112e-30
6.041858151e-30
5.404832741e-30
4.130883524e-30
2.888616386e-30
2.789348989e-30
2.651197843e-30
2.456690203e-30
2.234120222e-30
1.946304604e-30
3.881685989e-30
1.168917547e-29
5.830449385e-30
2.972203675e-30
2.338345814e-30
1.900572328e-30
1.750880761e-30
1.622112407e-30
1.875614833e-30
1.910585442e-30
2.063375786e-30
1.901443071e-30
2.078467081e-30
2.833600193e-30
4.07456902e-30
4.857413066e-30
6.992367775e-30
1.024305839e-29
1.438429584e-29
2.091942016e-29
2.614325101e-29
4.440867611e-29
7.036669787e-29
1.163357666e-28
2.068333743e-28
3.075826989e-28
3.357948073e-28
6.323784543e-28
1.336334665e-27
2.742771096e-27
5.55519597e-27
8.566871155e-27
2.08808869e-26
4.454607975e-26
7.904883179e-26
1.326026615e-25
2.471734853e-25
5.662855532e-25
1.03015953e-24
1.872990547e-24
3.198250095e-24
4.118904017e-24
7.103898748e-24
1.016103633e-23
1.340597884e-23
1.420485711e-23
1.556791598e-23
1.534574048e-23
1.568664256e-23
1.516120715e-23
1.474768473e-23
1.439699953e-23
1.537045041e-23
1.625988501e-23
1.679605958e-23
1.670016663e-23
1.624131493e-23
1.666486884e-23
1.685428945e-23
1.643923155e-23
1.635165326e-23
1.530756257e-24
1.079753796e-24
1.0277059e-24
9.585731834e-25
8.014874804e-25
6.101363996e-25
5.029871167e-25
4.044744126e-25
2.167938076e-25
1.711794312e-25
1.531398948e-25
1.297879728e-25
9.711700302e-26
8.01824525e-26
5.121051645e-26
3.739894785e-26
3.339692156e-26
3.078042914e-26
1.783870504e-26
1.205102041e-26
7.711425241e-27
6.926581196e-27
5.476776347e-27
3.9448317e-27
3.010210932e-27
2.418846848e-27
1.649813495e-27
1.311702489e-27
1.003727787e-27
8.492053036e-28
8.262968435e-28
6.025448085e-28
4.513939116e-28
4.04296517e-28
3.787387928e-28
3.626268184e-28
3.327653003e-28
3.077056842e-28
8.180732548e-28
2.598842037e-27
1.158337398e-27
5.291134466e-28
3.442980234e-28
2.668363731e-28
2.510897856e-28
2.347274883e-28
2.753073232e-28
2.881913991e-28
2.997087393e-28
2.665395129e-28
3.074546883e-28
3.936531114e-28
6.010386383e-28
7.175667227e-28
9.743892622e-28
1.451962875e-27
2.080079235e-27
2.953600532e-27
3.49211483e-27
6.496874219e-27
1.012434456e-26
1.598674362e-26
2.844478749e-26
4.210613191e-26
4.480504194e-26
8.769079416e-26
1.833691694e-25
3.666511219e-25
7.676076131e-25
1.194501628e-24
2.732148482e-24
6.105783999e-24
1.037034088e-23
1.713198322e-23
3.258383733e-23
7.408594814e-23
1.297193626e-22
2.4255901e-22
4.118903993e-22
5.159672837e-22
8.955556216e-22
1.243186763e-21
1.678414324e-21
1.759328998e-21
1.88222206e-21
1.704945027e-21
1.829034484e-21
1.787185441e-21
1.670735911e-21
1.62441385e-21
1.766061437e-21
1.858502771e-21
1.924097623e-21
1.944715426e-21
1.719018305e-21
1.830202128e-21
1.854044497e-21
1.834997805e-21
1.7822463e-21
2.271317791e-22
1.838879593e-22
1.448429886e-22
1.383717946e-22
1.220347422e-22
8.891852256e-23
7.151933467e-23
6.093556385e-23
3.255509787e-23
2.503241803e-23
2.178461215e-23
1.935693821e-23
1.453385765e-23
1.190295825e-23
7.730220691e-24
5.535195661e-24
5.277677394e-24
4.355084222e-24
2.728216037e-24
1.768572412e-24
1.143773993e-24
9.698787614e-25
8.09361587e-25
5.904471598e-25
4.301506893e-25
3.545163463e-25
2.340062865e-25
1.877637909e-25
1.455695026e-25
1.200123248e-25
1.269791679e-25
8.795636354e-26
6.739961331e-26
6.029048729e-26
5.524247879e-26
5.351222258e-26
4.898767478e-26
4.848447347e-26
1.815169274e-25
6.429811409e-25
2.370917922e-25
9.078255192e-26
5.118601977e-26
3.481697717e-26
3.58775083e-26
3.023397927e-26
4.003839718e-26
4.204693775e-26
4.255797811e-26
3.962014175e-26
4.700876102e-26
6.123712291e-26
8.499563385e-26
1.039252521e-25
1.451434853e-25
2.046037701e-25
3.011820537e-25
4.609893662e-25
5.513648497e-25
9.408026455e-25
1.413543241e-24
2.179801801e-24
4.160975603e-24
5.806393454e-24
5.832107681e-24
1.235799199e-23
2.470021691e-23
4.872157254e-23
1.054305845e-22
1.666059321e-22
3.667062162e-22
8.348855005e-22
1.335884393e-21
2.270112014e-21
4.049645195e-21
9.604099758e-21
1.740670391e-20
2.983521472e-20
5.829596024e-20
6.374751318e-20
1.162995709e-19
1.608098392e-19
2.006960359e-19
2.181702056e-19
2.371053242e-19
2.026677268e-19
2.106342358e-19
2.167255882e-19
1.841739643e-19
1.917921237e-19
1.991705678e-19
2.0914226e-19
2.153990374e-19
2.205971788e-19
2.136993855e-19
2.137725465e-19
2.099905862e-19
2.029780941e-19
1.923611829e-19
3.351448753e-20
3.090232933e-20
2.209602811e-20
2.159592614e-20
1.81083142e-20
1.365129447e-20
9.335439764e-21
9.302334471e-21
4.871130224e-21
3.831845171e-21
3.510175345e-21
2.88623371e-21
2.101790887e-21
1.760278773e-21
1.116774576e-21
8.119564299e-22
7.840507299e-22
6.384739402e-22
4.110164462e-22
2.552968108e-22
1.728309247e-22
1.460959872e-22
1.195735445e-22
8.706053367e-23
6.593963924e-23
5.317299438e-23
3.314010569e-23
2.833903808e-23
2.051742465e-23
1.877882324e-23
1.842581119e-23
1.277407215e-23
9.919924217e-24
9.069817292e-24
8.096745361e-24
7.856935533e-24
7.29471306e-24
7.520714739e-24
3.678435596e-23
1.443194512e-22
5.077666764e-23
1.736457452e-23
7.759077577e-24
5.020571654e-24
5.155651199e-24
4.899842069e-24
5.804828792e-24
6.048614397e-24
6.657331928e-24
5.812756122e-24