# Probe 0 (5e-06 5e-06 5e-06)
#           Probe                 0
#            Time
            2e-08       5006.758065
            4e-08       5001.148788
            6e-08       4995.982382
            8e-08        4991.90391
            1e-07       4989.248789
          1.2e-07       4973.222266
          1.4e-07        4973.65587
          1.6e-07        4974.20568
          1.8e-07       4972.850539
            2e-07       4971.789875
          2.2e-07       4962.505505
          2.4e-07        4960.86553
          2.6e-07       4959.544375
          2.8e-07       4959.071318
            3e-07       4959.468531
          3.2e-07       4963.566107
          3.4e-07       4967.196749
          3.6e-07       4968.206915
          3.8e-07       4965.127201
            4e-07        4961.45203
          4.2e-07       4954.838465
          4.4e-07       4952.858158
          4.6e-07       4952.696429
          4.8e-07       4954.005218
            5e-07       4955.462077
          5.2e-07       4953.996943
          5.4e-07       4950.656881
          5.6e-07       4951.079096
          5.8e-07       4950.771682
            6e-07       4948.933366
          6.2e-07       4940.725971
          6.4e-07        4941.15867
          6.6e-07       4939.940169
          6.8e-07       4934.703086
            7e-07       4931.407791
          7.2e-07       4923.485611
          7.4e-07       4928.441698
          7.6e-07       4931.639054
          7.8e-07       4931.847184
            8e-07       4931.563063
          8.2e-07       4917.057302
          8.4e-07       4919.894018
          8.6e-07       4922.414995
          8.8e-07        4923.82701
            9e-07       4923.067632
          9.2e-07        4925.78022
          9.4e-07       4926.075349
          9.6e-07       4925.642659
          9.8e-07       4924.858328
            1e-06       4923.298506
         1.02e-06       4911.407827
         1.04e-06         4914.6908
         1.06e-06       4915.417797
         1.08e-06        4915.22161
          1.1e-06       4913.277865
         1.12e-06       4899.124618
         1.14e-06        4899.90529
         1.16e-06       4904.613558
         1.18e-06       4906.562997
          1.2e-06       4906.035347
         1.22e-06       4905.103246
         1.24e-06       4901.377273
         1.26e-06       4899.689207
         1.28e-06       4899.086067
          1.3e-06       4899.163882
         1.32e-06       4903.572161
         1.34e-06       4906.682383
         1.36e-06       4904.940313
         1.38e-06       4904.229009
          1.4e-06       4902.668594
         1.42e-06       4892.975621
         1.44e-06       4892.579579
         1.46e-06       4892.377015
         1.48e-06       4892.076413
          1.5e-06       4892.207414
         1.52e-06       4892.054945
         1.54e-06       4893.426379
         1.56e-06       4891.967295
         1.58e-06       4891.831485
          1.6e-06        4889.95454
         1.62e-06       4883.332931
         1.64e-06       4883.494312
         1.66e-06       4882.236858
         1.68e-06       4881.715118
          1.7e-06       4882.797374
         1.72e-06       4883.739537
         1.74e-06        4884.67696
         1.76e-06       4886.154417
         1.78e-06       4886.905939
          1.8e-06       4886.926106
         1.82e-06       4882.204419
         1.84e-06       4881.098606
         1.86e-06       4880.728395
         1.88e-06       4878.766993
          1.9e-06       4877.833017
         1.92e-06       4870.712131
         1.94e-06       4869.052006
         1.96e-06       4871.442028
         1.98e-06       4869.075048
            2e-06       4867.969105
         2.02e-06       4861.593224
         2.04e-06       4861.299484
         2.06e-06       4861.854612
         2.08e-06       4861.900135
          2.1e-06       4862.146004
         2.12e-06       4858.627334
         2.14e-06       4859.220643
         2.16e-06       4858.035237
         2.18e-06       4858.044915
          2.2e-06       4857.193552
         2.22e-06       4849.004993
         2.24e-06       4848.689186
         2.26e-06       4849.691058
         2.28e-06       4847.679884
          2.3e-06       4846.690636
         2.32e-06        4838.62917
         2.34e-06       4840.093357
         2.36e-06       4843.624416
         2.38e-06       4844.359948
          2.4e-06       4843.153887
         2.42e-06       4848.464671
         2.44e-06       4851.949804
         2.46e-06       4852.058835
         2.48e-06       4850.356584
          2.5e-06       4848.799707
         2.52e-06       4845.054741
         2.54e-06        4847.59784
         2.56e-06       4849.488256
         2.58e-06       4849.426333
          2.6e-06       4848.142766
         2.62e-06       4843.910207
         2.64e-06       4844.386333
         2.66e-06       4843.832855
         2.68e-06       4841.885272
          2.7e-06       4839.129088
         2.72e-06       4826.890241
         2.74e-06       4827.127562
         2.76e-06        4827.02839
         2.78e-06        4828.13081
          2.8e-06       4827.460003
         2.82e-06       4820.023065
         2.84e-06       4821.876665
         2.86e-06        4823.07393
         2.88e-06       4824.944081
          2.9e-06        4824.45797
         2.92e-06       4833.948024
         2.94e-06       4833.406007
         2.96e-06       4832.260589
         2.98e-06       4830.116787
            3e-06       4827.995382
         3.02e-06       4821.662682
         3.04e-06       4819.891547
         3.06e-06       4816.472384
         3.08e-06       4813.838159
          3.1e-06       4811.587965
         3.12e-06        4805.53595
         3.14e-06       4806.219456
         3.16e-06       4808.271986
         3.18e-06       4809.622999
          3.2e-06       4809.513831
         3.22e-06       4806.324907
         3.24e-06       4807.434631
         3.26e-06       4806.043405
         3.28e-06       4804.809712
          3.3e-06        4805.34452
         3.32e-06       4812.611611
         3.34e-06       4814.506493
         3.36e-06       4812.569727
         3.38e-06       4812.781763
          3.4e-06       4813.817161
         3.42e-06       4806.756145
         3.44e-06       4807.551363
         3.46e-06       4808.572715
         3.48e-06       4808.512749
          3.5e-06       4808.467531
         3.52e-06       4810.904508
         3.54e-06       4811.438363
         3.56e-06       4809.291023
         3.58e-06        4807.44122
          3.6e-06       4803.877131
         3.62e-06       4797.855763
         3.64e-06        4796.86786
         3.66e-06       4796.169613
         3.68e-06       4796.713012
          3.7e-06       4797.264768
         3.72e-06       4802.882118
         3.74e-06       4801.167319
         3.76e-06       4797.320408
         3.78e-06       4797.275681
          3.8e-06       4795.897583
         3.82e-06       4790.751296
         3.84e-06       4791.553555
         3.86e-06       4789.260603
         3.88e-06       4784.980313
          3.9e-06       4784.405284
         3.92e-06       4776.018032
         3.94e-06       4780.496588
         3.96e-06       4780.557593
         3.98e-06       4781.085722
            4e-06       4780.350784
         4.02e-06       4775.568874
         4.04e-06       4778.054455
         4.06e-06       4778.376338
         4.08e-06       4779.015206
          4.1e-06        4779.75151
         4.12e-06       4777.846715
         4.14e-06       4772.915693
         4.16e-06       4772.580203
         4.18e-06       4771.742259
          4.2e-06        4769.28836
         4.22e-06       4765.551949
         4.24e-06       4766.412298
         4.26e-06        4765.83074
         4.28e-06       4765.623945
          4.3e-06       4764.367699
         4.32e-06       4759.043523
         4.34e-06       4762.037724
         4.36e-06        4763.24196
         4.38e-06       4763.991337
          4.4e-06       4762.838265
         4.42e-06        4767.58201
         4.44e-06       4766.943604
         4.46e-06       4766.976298
         4.48e-06       4765.927764
          4.5e-06       4764.527232
         4.52e-06       4757.707914
         4.54e-06       4756.195922
         4.56e-06       4753.398977
         4.58e-06       4751.307999
          4.6e-06       4750.002552
         4.62e-06       4744.227777
         4.64e-06       4750.143304
         4.66e-06       4749.687517
         4.68e-06       4749.404303
          4.7e-06       4749.092551
         4.72e-06       4742.710343
         4.74e-06       4748.889602
         4.76e-06       4750.839629
         4.78e-06        4753.36127
          4.8e-06        4753.15045
         4.82e-06       4754.526575
         4.84e-06       4756.996272
         4.86e-06       4757.947398
         4.88e-06       4756.845905
          4.9e-06       4756.702091
         4.92e-06       4752.769138
         4.94e-06       4753.568123
         4.96e-06       4751.505765
         4.98e-06       4750.687867
            5e-06       4751.313981
         5.02e-06       4749.985691
         5.04e-06       4746.434709
         5.06e-06       4746.208898
         5.08e-06       4746.710001
          5.1e-06       4745.570221
         5.12e-06       4740.058557
         5.14e-06       4739.672109
         5.16e-06       4739.284132
         5.18e-06       4741.480391
          5.2e-06       4741.131668
         5.22e-06       4740.993105
         5.24e-06         4739.6538
         5.26e-06       4737.527994
         5.28e-06       4737.626838
          5.3e-06       4739.285678
         5.32e-06       4739.266764
         5.34e-06       4739.550989
         5.36e-06       4739.101307
         5.38e-06        4740.59459
          5.4e-06       4740.428619
         5.42e-06       4733.897515
         5.44e-06       4735.002519
         5.46e-06       4735.847967
         5.48e-06       4735.114213
          5.5e-06       4731.061827
         5.52e-06       4720.801657
         5.54e-06       4719.708028
         5.56e-06        4718.37918
         5.58e-06       4717.431789
          5.6e-06       4718.275716
         5.62e-06       4729.036877
         5.64e-06       4728.638514
         5.66e-06       4725.095681
         5.68e-06       4722.600005
          5.7e-06       4719.409665
         5.72e-06       4712.000391
         5.74e-06       4710.527195
         5.76e-06       4710.456312
         5.78e-06       4710.436133
          5.8e-06        4711.07468
         5.82e-06       4716.121667
         5.84e-06       4717.639224
         5.86e-06       4718.082651
         5.88e-06       4718.584282
          5.9e-06       4718.019034
         5.92e-06       4713.877538
         5.94e-06       4712.822196
         5.96e-06       4713.467671
         5.98e-06       4711.741401
            6e-06       4710.592434
         6.02e-06       4708.622439
         6.04e-06       4710.414008
         6.06e-06        4706.95791
         6.08e-06       4704.880368
          6.1e-06       4704.718227
         6.12e-06       4703.368589
         6.14e-06       4701.932326
         6.16e-06       4703.140625
         6.18e-06       4701.060769
          6.2e-06        4700.51975
         6.22e-06       4705.858522
         6.24e-06       4701.775017
         6.26e-06       4701.457642
         6.28e-06        4701.20342
          6.3e-06       4700.794267
         6.32e-06        4695.09701
         6.34e-06       4691.341014
         6.36e-06       4693.124202
         6.38e-06       4695.483826
          6.4e-06        4696.40766
         6.42e-06       4696.599636
         6.44e-06       4696.813559
         6.46e-06       4696.362046
         6.48e-06       4694.968795
          6.5e-06       4693.852022
         6.52e-06       4682.596233
         6.54e-06       4684.484363
         6.56e-06       4682.463104
         6.58e-06       4683.284572
          6.6e-06        4683.30058
         6.62e-06       4689.799157
         6.64e-06       4690.131673
         6.66e-06       4687.694074
         6.68e-06       4687.382492
          6.7e-06       4687.136466
         6.72e-06       4684.196358
         6.74e-06       4678.247882
         6.76e-06       4675.718408
         6.78e-06       4674.812066
          6.8e-06       4675.184984
         6.82e-06       4674.544119
         6.84e-06       4678.436609
         6.86e-06       4682.125549
         6.88e-06        4686.07139
          6.9e-06       4686.518737
         6.92e-06       4682.252228
         6.94e-06       4680.733776
         6.96e-06       4678.398181
         6.98e-06       4678.662032
            7e-06       4678.869548
         7.02e-06       4681.487146
         7.04e-06       4683.330132
         7.06e-06        4684.01311
         7.08e-06       4682.325202
          7.1e-06       4680.260472
         7.12e-06       4672.259772
         7.14e-06       4670.368576
         7.16e-06       4668.845962
         7.18e-06       4667.156096
          7.2e-06       4666.176999
         7.22e-06       4662.463368
         7.24e-06       4661.888247
         7.26e-06       4661.878075
         7.28e-06       4661.535434
          7.3e-06       4660.977715
         7.32e-06       4655.556759
         7.34e-06       4655.256201
         7.36e-06       4656.751398
         7.38e-06       4657.210975
          7.4e-06        4658.15268
         7.42e-06       4661.667014
         7.44e-06       4660.048327
         7.46e-06        4658.80337
         7.48e-06       4656.505333
          7.5e-06       4653.768959
         7.52e-06       4652.452174
         7.54e-06       4654.191992
         7.56e-06       4657.141391
         7.58e-06       4658.827513
          7.6e-06       4659.099839
         7.62e-06       4665.935515
         7.64e-06       4663.262486
         7.66e-06       4661.680658
         7.68e-06       4662.101684
          7.7e-06       4662.719596
         7.72e-06       4664.434358
         7.74e-06       4662.097934
         7.76e-06       4662.679768
         7.78e-06       4662.219839
          7.8e-06       4662.163109
         7.82e-06       4665.630854
         7.84e-06       4665.016101
         7.86e-06       4668.039272
         7.88e-06       4665.570075
          7.9e-06       4663.293352
         7.92e-06       4652.792121
         7.94e-06       4652.731564
         7.96e-06       4652.615465
         7.98e-06       4651.189803
            8e-06       4650.879733
         8.02e-06       4652.873044
         8.04e-06        4654.94305
         8.06e-06       4655.356513
         8.08e-06       4651.666854
          8.1e-06       4649.520667
         8.12e-06        4638.47734
         8.14e-06       4642.590109
         8.16e-06       4642.954299
         8.18e-06       4643.089927
          8.2e-06       4642.657249
         8.22e-06        4641.63987
         8.24e-06       4639.576533
         8.26e-06        4637.69303
         8.28e-06       4637.666529
          8.3e-06       4639.371444
         8.32e-06       4650.609811
         8.34e-06       4645.271092
         8.36e-06       4642.709063
         8.38e-06       4640.942766
          8.4e-06       4639.942247
         8.42e-06       4639.358512
         8.44e-06       4637.018385
         8.46e-06       4637.661566
         8.48e-06       4638.146023
          8.5e-06       4638.324305
         8.52e-06       4639.563164
         8.54e-06       4636.603608
         8.56e-06        4635.53337
         8.58e-06       4634.317876
          8.6e-06       4633.120765
         8.62e-06       4624.139805
         8.64e-06       4626.785122
         8.66e-06       4625.871805
         8.68e-06        4627.92157
          8.7e-06       4628.000143
         8.72e-06       4626.448315
         8.74e-06       4627.780511
         8.76e-06       4628.898424
         8.78e-06       4627.213405
          8.8e-06       4625.928254
         8.82e-06       4621.102169
         8.84e-06        4625.11842
         8.86e-06       4625.450027
         8.88e-06       4625.627708
          8.9e-06       4627.030379
         8.92e-06       4632.138516
         8.94e-06        4629.50072
         8.96e-06       4627.962832
         8.98e-06       4626.783467
            9e-06        4625.67686
         9.02e-06       4621.575031
         9.04e-06       4621.211819
         9.06e-06       4621.426372
         9.08e-06       4620.323349
          9.1e-06       4619.859729
         9.12e-06        4605.69357
         9.14e-06        4609.42602
         9.16e-06       4610.532612
         9.18e-06       4610.339871
          9.2e-06       4609.033317
         9.22e-06       4601.661649
         9.24e-06       4600.308037
         9.26e-06       4600.006992
         9.28e-06       4602.010573
          9.3e-06       4602.858795
         9.32e-06       4609.498439
         9.34e-06        4606.31361
         9.36e-06       4604.478573
         9.38e-06       4603.540596
          9.4e-06       4601.566239
         9.42e-06       4590.487914
         9.44e-06       4594.821029
         9.46e-06       4595.146849
         9.48e-06       4593.358763
          9.5e-06       4591.296161
         9.52e-06       4591.046664
         9.54e-06       4592.062356
         9.56e-06       4593.703219
         9.58e-06       4595.369702
          9.6e-06       4595.196851
         9.62e-06       4591.547117
         9.64e-06       4588.567448
         9.66e-06        4586.36599
         9.68e-06       4584.111892
          9.7e-06       4583.745549
         9.72e-06       4584.134404
         9.74e-06       4583.560378
         9.76e-06       4584.717724
         9.78e-06       4584.793706
          9.8e-06        4587.61136
         9.82e-06       4592.862021
         9.84e-06       4591.103856
         9.86e-06       4590.553815
         9.88e-06       4592.247309
          9.9e-06       4593.856266
         9.92e-06       4602.622916
         9.94e-06       4604.712384
         9.96e-06       4603.750215
         9.98e-06       4604.551104
            1e-05       4604.629283
        1.002e-05        4595.54681
        1.004e-05       4596.033389
        1.006e-05       4596.942174
        1.008e-05       4597.227423
         1.01e-05       4597.533853
        1.012e-05       4591.894792
        1.014e-05       4593.633424
        1.016e-05        4593.13151
        1.018e-05       4591.507228
         1.02e-05       4589.906352
        1.022e-05       4584.883392
        1.024e-05       4584.555371
        1.026e-05       4585.216548
        1.028e-05       4583.420028
         1.03e-05       4582.104003
        1.032e-05       4574.549051
        1.034e-05       4576.039345
        1.036e-05       4573.653594
        1.038e-05       4572.932185
         1.04e-05       4574.471942
        1.042e-05         4573.6252
        1.044e-05       4574.959571
        1.046e-05       4574.820165
        1.048e-05        4574.23214
         1.05e-05       4573.335423
        1.052e-05       4577.120514
        1.054e-05       4579.607175
        1.056e-05       4579.487518
        1.058e-05       4578.259328
         1.06e-05        4576.27321
        1.062e-05       4567.215159
        1.064e-05       4569.767982
        1.066e-05        4569.67164
        1.068e-05       4571.493384
         1.07e-05       4572.601353
        1.072e-05       4578.925825
        1.074e-05       4574.842619
        1.076e-05       4575.948503
        1.078e-05       4577.144543
         1.08e-05       4576.634346
        1.082e-05        4570.01289
        1.084e-05       4569.542597
        1.086e-05       4568.733016
        1.088e-05       4568.811594
         1.09e-05       4567.672513
        1.092e-05       4565.135548
        1.094e-05       4566.999468
        1.096e-05       4567.618171
        1.098e-05       4567.331963
          1.1e-05       4567.960158
        1.102e-05       4570.898824
        1.104e-05       4567.965908
        1.106e-05       4568.518801
        1.108e-05       4570.857186
         1.11e-05       4570.541648
        1.112e-05       4570.821123
        1.114e-05       4573.558599
        1.116e-05        4574.12349
        1.118e-05       4572.833505
         1.12e-05         4572.1526
        1.122e-05       4561.269875
        1.124e-05       4558.901909
        1.126e-05       4558.865334
        1.128e-05       4557.812044
         1.13e-05       4556.370424
        1.132e-05       4553.601283
        1.134e-05       4558.564055
        1.136e-05       4561.215657
        1.138e-05       4561.607981
         1.14e-05       4560.040295
        1.142e-05       4553.182429
        1.144e-05         4556.2791
        1.146e-05       4556.694869
        1.148e-05       4556.665476
         1.15e-05       4558.085594
        1.152e-05       4552.505184
        1.154e-05       4551.232161
        1.156e-05       4551.871919
        1.158e-05       4551.031794
         1.16e-05       4550.993261
        1.162e-05       4556.861623
        1.164e-05       4554.360437
        1.166e-05       4551.520584
        1.168e-05       4550.977359
         1.17e-05       4550.897104
        1.172e-05       4536.586046
        1.174e-05       4534.478351
        1.176e-05       4533.688517
        1.178e-05       4534.709277
         1.18e-05        4536.02971
        1.182e-05       4537.417703
        1.184e-05       4539.546577
        1.186e-05       4541.280698
        1.188e-05       4541.703945
         1.19e-05       4542.008108
        1.192e-05       4547.662388
        1.194e-05       4542.556854
        1.196e-05       4538.353405
        1.198e-05       4538.569914
          1.2e-05       4538.453267
        1.202e-05       4550.175517
        1.204e-05       4551.977116
        1.206e-05       4551.947218
        1.208e-05       4549.999338
         1.21e-05       4548.876337
        1.212e-05       4537.951697
        1.214e-05       4538.981996
        1.216e-05       4537.444203
        1.218e-05       4535.410556
         1.22e-05       4536.987156
        1.222e-05       4535.939435
        1.224e-05       4537.575685
        1.226e-05        4538.86554
        1.228e-05       4538.427435
         1.23e-05       4539.241869
        1.232e-05        4542.55782
        1.234e-05       4543.732071
        1.236e-05       4546.995498
        1.238e-05       4548.663642
         1.24e-05       4549.269399
        1.242e-05        4545.70629
        1.244e-05        4545.50033
        1.246e-05       4543.054261
        1.248e-05       4544.665791
         1.25e-05       4545.559925
        1.252e-05       4550.351154
        1.254e-05       4545.055593
        1.256e-05       4544.122564
        1.258e-05       4542.553612
         1.26e-05       4540.703209
        1.262e-05       4532.473887
        1.264e-05       4534.548179
        1.266e-05       4532.400619
        1.268e-05       4531.372068
         1.27e-05       4530.601139
        1.272e-05       4530.648353
        1.274e-05        4530.92234
        1.276e-05       4529.860745
        1.278e-05        4529.26277
         1.28e-05       4529.439434
        1.282e-05        4525.34783
        1.284e-05       4523.067692
        1.286e-05       4520.267895
        1.288e-05       4518.598078
         1.29e-05       4518.343091
        1.292e-05       4515.972176
        1.294e-05       4513.721784
        1.296e-05       4515.832878
        1.298e-05       4516.296782
          1.3e-05       4518.246601
        1.302e-05       4525.370152
        1.304e-05       4525.760446
        1.306e-05       4522.967583
        1.308e-05       4523.098043
         1.31e-05       4524.514139
        1.312e-05       4523.010752
        1.314e-05       4525.874852
        1.316e-05        4523.63624
        1.318e-05       4522.723012
         1.32e-05       4523.982685
        1.322e-05       4525.140003
        1.324e-05       4523.364546
        1.326e-05       4520.583165
        1.328e-05       4519.414155
         1.33e-05       4517.410955
        1.332e-05        4505.96795
        1.334e-05       4507.790326
        1.336e-05       4511.019588
        1.338e-05       4513.435634
         1.34e-05       4514.959918
        1.342e-05       4519.312286
        1.344e-05       4518.085914
        1.346e-05       4516.575802
        1.348e-05       4515.375617
         1.35e-05       4514.846859
        1.352e-05       4510.238911
        1.354e-05       4508.186198
        1.356e-05       4506.209934
        1.358e-05       4505.007421
         1.36e-05       4504.729036
        1.362e-05       4507.566071
        1.364e-05       4508.841104
        1.366e-05       4511.198685
        1.368e-05       4513.246001
         1.37e-05       4514.201648
        1.372e-05       4521.390834
        1.374e-05       4520.857826
        1.376e-05       4520.231104
        1.378e-05       4518.963025
         1.38e-05       4516.564766
        1.382e-05       4507.757115
        1.384e-05       4507.825397
        1.386e-05       4508.609712
        1.388e-05       4507.249007
         1.39e-05       4508.557194
        1.392e-05       4514.906771
        1.394e-05       4510.203623
        1.396e-05       4507.458476
        1.398e-05       4505.291371
          1.4e-05        4504.53387
        1.402e-05       4504.566619
        1.404e-05       4502.683272
        1.406e-05        4504.04537
        1.408e-05       4504.812185
         1.41e-05       4506.394374
        1.412e-05       4507.796497
        1.414e-05       4504.787242
        1.416e-05       4501.797853
        1.418e-05       4500.797044
         1.42e-05       4499.428928
        1.422e-05       4486.847251
        1.424e-05       4485.793339
        1.426e-05       4485.465206
        1.428e-05        4485.29981
         1.43e-05       4487.395402
        1.432e-05        4493.40076
        1.434e-05       4491.608608
        1.436e-05       4490.618293
        1.438e-05       4489.772736
         1.44e-05       4490.492928
        1.442e-05       4490.243976
        1.444e-05       4490.959038
        1.446e-05       4491.101811
        1.448e-05       4489.089037
         1.45e-05       4486.564929
        1.452e-05       4483.646607
        1.454e-05       4483.907416
        1.456e-05       4482.376772
        1.458e-05       4483.301152
         1.46e-05       4484.565272
        1.462e-05       4492.033458
        1.464e-05       4487.357753
        1.466e-05       4484.660085
        1.468e-05        4484.73427
         1.47e-05       4485.329759
        1.472e-05       4481.213623
        1.474e-05       4484.061339
        1.476e-05       4483.167379
        1.478e-05       4480.704411
         1.48e-05       4477.792839
        1.482e-05       4470.890936
        1.484e-05       4475.211944
        1.486e-05       4476.664458
        1.488e-05       4477.030718
         1.49e-05       4476.752077
        1.492e-05       4476.911093
        1.494e-05       4479.816423
        1.496e-05       4479.242691
        1.498e-05       4479.803749
          1.5e-05       4480.130627
        1.502e-05       4484.637568
        1.504e-05        4486.22353
        1.506e-05       4487.933784
        1.508e-05       4486.173787
         1.51e-05        4484.59993
        1.512e-05        4474.04451
        1.514e-05       4476.568277
        1.516e-05       4476.406583
        1.518e-05        4475.31865
         1.52e-05       4474.363515
        1.522e-05       4473.041596
        1.524e-05       4473.887621
        1.526e-05       4476.876995
        1.528e-05       4478.004531
         1.53e-05       4479.794552
        1.532e-05       4489.267573
        1.534e-05       4483.449851
        1.536e-05        4480.67802
        1.538e-05       4477.878858
         1.54e-05       4476.171636
        1.542e-05       4470.464492
        1.544e-05       4470.339459
        1.546e-05       4467.796237
        1.548e-05       4466.383338
         1.55e-05       4465.543364
        1.552e-05       4462.870033
        1.554e-05       4462.192603
        1.556e-05       4463.183293
        1.558e-05       4461.857589
         1.56e-05       4461.675316
        1.562e-05       4462.205069
        1.564e-05       4460.669739
        1.566e-05       4457.361355
        1.568e-05       4457.639987
         1.57e-05        4457.98907
        1.572e-05       4460.742361
        1.574e-05       4457.404613
        1.576e-05       4457.221285
        1.578e-05        4455.74757
         1.58e-05       4454.618198
        1.582e-05       4456.335876
        1.584e-05       4458.305909
        1.586e-05       4458.253813
        1.588e-05       4457.708274
         1.59e-05       4459.705097
        1.592e-05        4469.05377
        1.594e-05       4468.993121
        1.596e-05        4466.51139
        1.598e-05       4466.323377
          1.6e-05       4467.289872
        1.602e-05        4464.66949
        1.604e-05       4465.458668
        1.606e-05       4463.814389
        1.608e-05       4463.034849
         1.61e-05       4462.461746
        1.612e-05       4454.524876
        1.614e-05       4456.903729
        1.616e-05       4457.858568
        1.618e-05       4459.045074
         1.62e-05       4458.976025
        1.622e-05        4455.28835
        1.624e-05       4452.430249
        1.626e-05        4452.56624
        1.628e-05       4452.689195
         1.63e-05       4452.380731
        1.632e-05       4447.058462
        1.634e-05       4448.930796
        1.636e-05       4449.110969
        1.638e-05       4450.260391
         1.64e-05       4450.930701
        1.642e-05       4456.578621
        1.644e-05        4457.01528
        1.646e-05       4457.704184
        1.648e-05       4458.675107
         1.65e-05         4458.5345
        1.652e-05       4445.641033
        1.654e-05       4445.776948
        1.656e-05       4446.700884
        1.658e-05       4446.391098
         1.66e-05       4445.328253
        1.662e-05        4441.93612